Title
81363
    1CHL1    C3    1   1.304   5.593  10.251  0.5359  1.1585 -0.9909
    1CHL1    H3    2   1.403   5.556  10.219  0.2398  0.5688 -1.2289
    1CHL1    O3    3   1.321   5.639  10.384 -0.1996  0.3789 -0.0749
    1CHL1   H3'    4   1.305   5.558  10.434 -3.0280  2.4789  2.6123
    1CHL1    C4    5   1.267   5.709  10.158  0.0627 -0.0161 -0.6989
    1CHL1   H4A    6   1.171   5.750  10.198 -0.2563 -0.5363 -0.9243
    1CHL1   H4B    7   1.348   5.785  10.165 -0.2271  0.2224  0.1845
    1CHL1    C5    8   1.238   5.666  10.012 -0.4475  0.2691 -0.4132
    1CHL1    C6    9   1.288   5.732   9.908 -0.4423  1.0965 -0.0414
    1CHL1    H6   10   1.353   5.818   9.927 -1.3110  1.6583  0.4413
    1CHL1    C7   11   1.253   5.690   9.766 -0.1517 -0.3958  0.5856
    1CHL1   H7A   12   1.249   5.787   9.712  2.2225 -0.7310 -0.2257
    1CHL1   H7B   13   1.336   5.623   9.736 -1.3693 -1.1473 -1.2477
    1CHL1    C8   14   1.115   5.621   9.751 -0.1681 -0.0270 -0.1206
    1CHL1    H8   15   1.027   5.685   9.773 -0.2468 -0.1365 -0.1153
    1CHL1   C14   16   1.111   5.563   9.617  0.2114  0.2860  0.2590
    1CHL1   H14   17   1.202   5.500   9.617 -0.4837 -0.7470 -0.9206
    1CHL1   C15   18   1.129   5.656   9.501 -0.1355 -0.2691  0.4805
    1CHL1  H15A   19   1.065   5.745   9.520 -0.1109  0.6067 -3.1906
    1CHL1  H15B   20   1.233   5.694   9.499  0.9988 -3.1622  1.7675
    1CHL1   C16   21   1.071   5.582   9.375 -0.3084 -0.1342 -0.7903
    1CHL1  H16A   22   1.001   5.643   9.314  1.3331 -0.1649 -2.7297
    1CHL1  H16B   23   1.164   5.557   9.320  1.7466 -0.0427  2.5085
    1CHL1   C17   24   1.013   5.450   9.427 -0.0241 -0.3321  0.2847
    1CHL1   H17   25   1.091   5.371   9.418  0.6946  0.5997 -2.1017
    1CHL1   C13   26   0.993   5.474   9.586 -0.2964  0.1928  0.3543
    1CHL1   C18   27   0.862   5.550   9.608  0.2640  0.1839  0.0498
    1CHL1  H18A   28   0.850   5.575   9.715  0.5526  1.0639 -0.1141
    1CHL1  H18B   29   0.866   5.648   9.554 -0.7042  0.5161  0.5643
    1CHL1  H18C   30   0.771   5.493   9.578  2.0758 -2.2235 -0.9888
    1CHL1   C12   31   0.994   5.349   9.674 -0.6573 -0.0351  0.3446
    1CHL1  H12A   32   0.905   5.285   9.658 -1.8743  1.5284  0.6918
    1CHL1  H12B   33   1.083   5.287   9.648 -0.4776  0.9854 -1.5466
    1CHL1   C11   34   1.002   5.390   9.827 -0.2562 -0.4557 -0.4892
    1CHL1  H11A   35   0.903   5.422   9.864 -0.0888  2.3111 -2.2948
    1CHL1  H11B   36   1.029   5.299   9.885  1.9224  1.3312  1.4377
    1CHL1    C9   37   1.111   5.500   9.854  0.2272  0.6702 -0.9177
    1CHL1    H9   38   1.207   5.446   9.834  0.0348 -0.6292  1.4980
    1CHL1   C10   39   1.129   5.560   9.996 -0.0976  0.3680  0.7146
    1CHL1   C19   40   0.997   5.617  10.041  0.5985 -0.0315 -0.3196
    1CHL1  H19A   41   1.004   5.643  10.149 -0.1338  0.7371 -0.4512
    1CHL1  H19B   42   0.977   5.716   9.996  2.1699  0.6516  0.4266
    1CHL1  H19C   43   0.914   5.544  10.034  0.5475 -0.0567  0.5108
    1CHL1    C1   44   1.179   5.438  10.091  0.0659 -0.9807 -0.3351
    1CHL1   H1A   45   1.113   5.349  10.086 -1.9425  0.4830 -0.2503
    1CHL1   H1B   46   1.278   5.406  10.052 -0.3375 -2.0429 -0.5102
    1CHL1    C2   47   1.210   5.475  10.235  0.8187  1.0143  0.1649
    1CHL1   H2A   48   1.258   5.391  10.291 -1.3225 -0.1953  0.2331
    1CHL1   H2B   49   1.117   5.502  10.290  0.5214  0.4155 -0.0344
    1CHL1   C20   50   0.891   5.406   9.341  0.4683 -0.0361  0.2507
    1CHL1   H20   51   0.811   5.483   9.347  1.1604  0.8112 -1.1064
    1CHL1   C21   52   0.847   5.273   9.389  0.3381 -0.2803 -0.0093
    1CHL1  H21A   53   0.771   5.250   9.312  0.6054  0.1929 -0.4236
    1CHL1  H21B   54   0.794   5.282   9.486 -0.7655  1.6967 -0.7765
    1CHL1  H21C   55   0.929   5.197   9.390 -0.3369 -1.0093  1.8949
    1CHL1   C22   56   0.925   5.403   9.187  0.1019 -0.1062 -0.5461
    1CHL1  H22A   57   0.984   5.494   9.165  0.9177 -0.1732  1.2640
    1CHL1  H22B   58   0.976   5.309   9.157 -0.5491 -0.6947  0.1707
    1CHL1   C23   59   0.803   5.405   9.087 -0.4900  0.2307 -0.8328
    1CHL1  H23A   60   0.774   5.298   9.087 -0.3265  0.1817 -2.2676
    1CHL1  H23B   61   0.729   5.468   9.140  1.3575  1.2762  0.5523
    1CHL1   C24   62   0.854   5.458   8.950  0.9563 -0.1011 -0.1247
    1CHL1  H24A   63   0.904   5.555   8.971 -0.3532  0.9775 -1.8767
    1CHL1  H24B   64   0.919   5.381   8.902 -0.4779 -0.5531 -1.4057
    1CHL1   C25   65   0.729   5.475   8.852  0.2150  0.3742  0.7586
    1CHL1   H25   66   0.664   5.555   8.894  1.1238  1.2915  0.4326
    1CHL1   C26   67   0.788   5.527   8.718  0.6114 -0.2861 -0.9227
    1CHL1  H26A   68   0.868   5.601   8.742  1.7616 -2.1744  1.2019
    1CHL1  H26B   69   0.835   5.437   8.673 -0.0240 -1.2139  0.2391
    1CHL1  H26C   70   0.708   5.571   8.655 -1.9772 -0.6913  1.9707
    1CHL1   C27   71   0.657   5.344   8.833 -0.0985  0.3047  0.1609
    1CHL1  H27A   72   0.725   5.257   8.819 -1.7492 -1.1184  0.7181
    1CHL1  H27B   73   0.591   5.326   8.921  2.7897  0.1144  2.3568
    1CHL1  H27C   74   0.593   5.363   8.744 -1.5774  0.9682  1.3335
    2CHL1    C3   75   1.810   3.539   9.949  0.5285 -0.4584  0.7138
    2CHL1    H3   76   1.738   3.622   9.965 -1.1194 -1.6399 -0.3696
    2CHL1    O3   77   1.886   3.502  10.066  0.0623  0.1491  0.5863
    2CHL1   H3'   78   1.839   3.428  10.105 -1.4479  0.6106 -0.3259
    2CHL1    C4   79   1.738   3.416   9.901  0.1636  0.2015 -0.5974
    2CHL1   H4A   80   1.808   3.330   9.896  0.4667  0.4321 -0.2952
    2CHL1   H4B   81   1.663   3.388   9.979  0.5869 -0.9158 -0.5876
    2CHL1    C5   82   1.675   3.420   9.763  0.1761  0.2430  0.0807
    2CHL1    C6   83   1.546   3.395   9.745  0.8188 -1.2699  0.0245
    2CHL1    H6   84   1.468   3.368   9.818 -0.6494 -3.4126 -2.2651
    2CHL1    C7   85   1.481   3.399   9.610  0.5256  0.3813  0.3438
    2CHL1   H7A   86   1.435   3.300   9.587  2.7796 -0.5427 -0.3510
    2CHL1   H7B   87   1.404   3.479   9.608 -1.0465 -1.0989  0.6337
    2CHL1    C8   88   1.573   3.428   9.492 -0.5056 -0.2030 -0.2143
    2CHL1    H8   89   1.619   3.330   9.466  1.9277  0.8439  0.0045
    2CHL1   C14   90   1.491   3.483   9.374  0.2635  0.1210  0.1122
    2CHL1   H14   91   1.445   3.577   9.410  0.1562 -0.3615  1.2370
    2CHL1   C15   92   1.366   3.408   9.326 -0.3329 -0.0119  0.1667
    2CHL1  H15A   93   1.393   3.302   9.308  0.6305  0.1603  0.6076
    2CHL1  H15B   94   1.287   3.410   9.404 -0.0265  0.6287  0.4560
    2CHL1   C16   95   1.341   3.476   9.182  0.8141  0.3937  0.0505
    2CHL1  H16A   96   1.338   3.392   9.109  0.1960 -1.2981  1.9994
    2CHL1  H16B   97   1.241   3.522   9.188 -0.7313 -2.9069  0.7632
    2CHL1   C17   98   1.451   3.578   9.148 -0.4038 -0.2983  0.4398
    2CHL1   H17   99   1.413   3.678   9.181 -0.2718 -0.0866 -0.0412
    2CHL1   C13  100   1.564   3.534   9.247  0.6514  0.4636  0.0885
    2CHL1   C18  101   1.630   3.419   9.180  0.0552 -0.1899 -0.5986
    2CHL1  H18A  102   1.674   3.459   9.086 -0.4310  2.9243  0.4445
    2CHL1  H18B  103   1.724   3.389   9.232  0.3525  1.2732 -0.2846
    2CHL1  H18C  104   1.560   3.335   9.157 -0.7815  0.9558 -2.3215
    2CHL1   C12  105   1.667   3.634   9.300 -0.7390 -0.3141  0.5438
    2CHL1  H12A  106   1.729   3.671   9.216 -2.5130 -2.4619 -1.7892
    2CHL1  H12B  107   1.608   3.715   9.349  1.4117  0.6407  1.6003
    2CHL1   C11  108   1.756   3.576   9.408  0.3730 -0.4416 -0.0722
    2CHL1  H11A  109   1.816   3.492   9.369 -1.3480 -2.2401  1.0686
    2CHL1  H11B  110   1.820   3.663   9.432  0.2123  0.1927 -1.8167
    2CHL1    C9  111   1.676   3.522   9.526 -0.0611 -0.8531  0.0846
    2CHL1    H9  112   1.616   3.609   9.560  0.3740 -0.3046 -0.5296
    2CHL1   C10  113   1.765   3.481   9.647 -0.3490  0.0327  0.7552
    2CHL1   C19  114   1.874   3.382   9.594  0.7837  0.4954  0.9507
    2CHL1  H19A  115   1.938   3.425   9.514  1.0119 -1.8842 -0.1982
    2CHL1  H19B  116   1.928   3.332   9.676  0.0375 -0.4763  0.8604
    2CHL1  H19C  117   1.830   3.292   9.545  1.9780  0.7933 -0.7010
    2CHL1    C1  118   1.840   3.605   9.697 -0.4558 -0.7339 -0.3202
    2CHL1   H1A  119   1.927   3.634   9.634 -1.6244  0.1310 -1.5644
    2CHL1   H1B  120   1.770   3.691   9.704  1.8284  1.0163  1.9637
    2CHL1    C2  121   1.907   3.586   9.839  0.1874 -0.0767 -0.0702
    2CHL1   H2A  122   1.951   3.684   9.869 -2.8559  1.7094 -1.1168
    2CHL1   H2B  123   1.987   3.510   9.828 -0.5659 -0.4348 -3.8260
    2CHL1   C20  124   1.473   3.596   8.999  0.7471  0.0202 -0.3384
    2CHL1   H20  125   1.488   3.493   8.962 -2.4407 -0.0545 -1.6340
    2CHL1   C21  126   1.583   3.704   8.979 -0.5406  0.0087 -0.4330
    2CHL1  H21A  127   1.554   3.801   9.024 -2.2306  0.1324 -1.7070
    2CHL1  H21B  128   1.601   3.717   8.870  0.5813 -0.2807 -0.2814
    2CHL1  H21C  129   1.680   3.678   9.026  1.1506  0.5554 -3.4564
    2CHL1   C22  130   1.341   3.642   8.928  0.0788  0.3768 -0.0041
    2CHL1  H22A  131   1.266   3.562   8.946 -0.8497  1.4285  0.7901
    2CHL1  H22B  132   1.303   3.732   8.980  0.1037 -1.8366  4.1000
    2CHL1   C23  133   1.359   3.655   8.782  0.2541  0.6133  0.5553
    2CHL1  H23A  134   1.409   3.753   8.767 -0.6902  0.7664 -1.7486
    2CHL1  H23B  135   1.430   3.580   8.740 -1.6390 -0.9382  0.0910
    2CHL1   C24  136   1.225   3.647   8.700 -0.7941 -0.6441  0.3224
    2CHL1  H24A  137   1.173   3.556   8.737  2.5068 -2.4720  0.7031
    2CHL1  H24B  138   1.172   3.736   8.738 -0.9584 -1.2819  1.6157
    2CHL1   C25  139   1.247   3.644   8.548  0.1503 -0.9951  0.3298
    2CHL1   H25  140   1.312   3.560   8.516  1.1225  0.0505 -0.5048
    2CHL1   C26  141   1.118   3.605   8.481 -0.5240  0.0283  0.2349
    2CHL1  H26A  142   1.040   3.681   8.504  1.5671  2.0675  0.8503
    2CHL1  H26B  143   1.127   3.595   8.370 -0.4790 -0.1252  0.2510
    2CHL1  H26C  144   1.076   3.508   8.513  0.2408 -0.2111  0.5194
    2CHL1   C27  145   1.287   3.778   8.495 -0.0828  0.3590  0.3578
    2CHL1  H27A  146   1.312   3.774   8.387 -0.8257  0.2188  0.1904
    2CHL1  H27B  147   1.203   3.849   8.512 -0.4427 -0.2965  1.3656
    2CHL1  H27C  148   1.375   3.818   8.550  0.0783  0.5696 -0.0464
    3CHL1    C3  149   2.070   2.987  10.325 -0.3543  0.5832 -0.8435
    3CHL1    H3  150   2.049   2.879  10.312  2.7472 -0.2111  0.3681
    3CHL1    O3  151   2.076   3.023  10.465  0.1214  0.1662  0.1208
    3CHL1   H3'  152   1.986   3.049  10.488 -0.4842 -1.6227 -0.1615
    3CHL1    C4  153   2.205   3.037  10.261 -0.0418 -0.3063  0.2209
    3CHL1   H4A  154   2.216   3.143  10.291 -1.1295 -0.2518  0.4560
    3CHL1   H4B  155   2.289   2.980  10.307 -0.8295 -0.1147  1.9299
    3CHL1    C5  156   2.193   3.010  10.111  0.4524  0.3364  0.3649
    3CHL1    C6  157   2.289   2.937  10.052  0.6001 -0.0378 -0.0620
    3CHL1    H6  158   2.360   2.878  10.111  0.7370 -0.1083 -0.2962
    3CHL1    C7  159   2.295   2.909   9.904 -0.3881 -0.1725  0.0579
    3CHL1   H7A  160   2.399   2.909   9.864  0.0977 -2.3561  1.2665
    3CHL1   H7B  161   2.276   2.800   9.904  1.8627 -0.5938  0.5730
    3CHL1    C8  162   2.187   2.983   9.826  0.2794 -0.3718 -0.6202
    3CHL1    H8  163   2.231   3.082   9.802 -0.4462  0.5605  1.7584
    3CHL1   C14  164   2.169   2.916   9.692  0.4512 -0.6581  0.2427
    3CHL1   H14  165   2.116   2.821   9.710 -1.3831 -0.0477 -1.7846
    3CHL1   C15  166   2.295   2.857   9.626  0.4521 -0.3087  0.5999
    3CHL1  H15A  167   2.381   2.927   9.630  0.4100 -0.2358  0.1868
    3CHL1  H15B  168   2.331   2.759   9.666 -0.5248 -0.5574  0.8876
    3CHL1   C16  169   2.250   2.836   9.480 -0.1938  0.5571 -0.1568
    3CHL1  H16A  170   2.323   2.878   9.407 -0.1202  0.6740 -0.0162
    3CHL1  H16B  171   2.242   2.726   9.472 -0.0179  0.5085  0.3287
    3CHL1   C17  172   2.105   2.891   9.466 -0.1545  0.0428 -0.6783
    3CHL1   H17  173   2.052   2.799   9.499  0.2178 -0.2075 -0.7769
    3CHL1   C13  174   2.082   2.988   9.592  0.2333  0.4554  0.6818
    3CHL1   C18  175   2.142   3.123   9.556 -0.1688 -0.8120 -0.0292
    3CHL1  H18A  176   2.133   3.190   9.645 -3.4656 -0.3519 -0.6312
    3CHL1  H18B  177   2.245   3.120   9.517 -0.2895  1.9724 -0.6376
    3CHL1  H18C  178   2.076   3.170   9.480  0.3408 -1.3221 -0.7840
    3CHL1   C12  179   1.941   3.006   9.656 -0.3119 -0.1227  0.0632
    3CHL1  H12A  180   1.870   3.066   9.595 -0.1698 -0.3184 -0.2952
    3CHL1  H12B  181   1.906   2.901   9.667 -0.0707 -0.0453  1.7754
    3CHL1   C11  182   1.951   3.066   9.800 -0.6172 -0.1628  0.8362
    3CHL1  H11A  183   1.986   3.172   9.799  1.2045 -0.7541  0.6630
    3CHL1  H11B  184   1.847   3.070   9.838 -0.3799 -1.3392  1.6359
    3CHL1    C9  185   2.049   2.996   9.897 -0.2155  0.8559 -0.3689
    3CHL1    H9  186   2.017   2.894   9.927 -0.1080  1.9944  3.9362
    3CHL1   C10  187   2.066   3.058  10.040  0.5141 -0.4044  0.3190
    3CHL1   C19  188   2.085   3.207  10.031 -0.0241  0.2063 -0.3982
    3CHL1  H19A  189   2.178   3.240   9.980  1.6574 -1.7533  1.3203
    3CHL1  H19B  190   1.999   3.259   9.982 -0.4873 -2.3508 -2.3959
    3CHL1  H19C  191   2.080   3.248  10.134  0.3384  0.8903 -0.6496
    3CHL1    C1  192   1.930   3.026  10.122  0.1175  0.4462  0.1234
    3CHL1   H1A  193   1.851   3.091  10.077  0.7339 -0.1376 -1.8574
    3CHL1   H1B  194   1.896   2.921  10.117  0.4735  0.2947  0.9157
    3CHL1    C2  195   1.954   3.066  10.265  0.7873  0.7498 -0.4674
    3CHL1   H2A  196   1.864   3.037  10.323  0.6424  0.5720 -0.7792
    3CHL1   H2B  197   1.975   3.174  10.275 -0.2937  0.9943 -0.8015
    3CHL1   C20  198   2.048   2.933   9.329  0.3200  0.0399 -0.0905
    3CHL1   H20  199   2.080   3.038   9.313 -1.3556  0.5433 -0.3097
    3CHL1   C21  200   1.896   2.936   9.348 -0.0141 -0.0158  0.4359
    3CHL1  H21A  201   1.857   2.852   9.408 -2.6910  1.1668  0.4294
    3CHL1  H21B  202   1.843   2.928   9.250  2.0111 -0.3473 -0.6620
    3CHL1  H21C  203   1.877   3.040   9.384  0.0056 -0.4696  1.7763
    3CHL1   C22  204   2.083   2.844   9.208  0.1870 -0.8903 -0.1135
    3CHL1  H22A  205   2.058   2.905   9.118  0.6154 -1.4288 -0.6015
    3CHL1  H22B  206   2.194   2.849   9.202  0.0688  0.5284 -1.7333
    3CHL1   C23  207   2.026   2.708   9.192 -0.2043  0.3746  0.5677
    3CHL1  H23A  208   2.053   2.644   9.279  1.5573  0.1478 -0.1203
    3CHL1  H23B  209   1.915   2.711   9.182  0.1728  1.6493 -4.9080
    3CHL1   C24  210   2.082   2.636   9.065 -0.0141 -0.4802 -0.4872
    3CHL1  H24A  211   2.063   2.704   8.979  1.5358 -0.5574 -0.9025
    3CHL1  H24B  212   2.191   2.619   9.075  0.3116  2.4949  1.6455
    3CHL1   C25  213   2.018   2.500   9.043 -0.5276  0.2224 -0.0765
    3CHL1   H25  214   1.910   2.513   9.065 -0.4554 -0.7858  0.9588
    3CHL1   C26  215   2.044   2.436   8.905  0.7716  0.5687 -0.1929
    3CHL1  H26A  216   2.020   2.505   8.821 -0.2119  2.9433  1.9913
    3CHL1  H26B  217   2.145   2.395   8.884 -0.5744 -3.0812  0.1152
    3CHL1  H26C  218   1.982   2.344   8.897  0.7187  0.6978 -1.4304
    3CHL1   C27  219   2.076   2.402   9.157  0.2340 -0.3186 -0.0047
    3CHL1  H27A  220   2.186   2.414   9.174 -0.0554  0.4529  1.4441
    3CHL1  H27B  221   2.023   2.426   9.252 -0.8462 -0.8503 -0.4744
    3CHL1  H27C  222   2.055   2.294   9.145  1.0885 -0.5893  0.8610
    4CHL1    C3  223   2.223   5.037  10.400  0.2806  0.4539  0.2420
    4CHL1    H3  224   2.155   5.120  10.430  1.3576  0.9839  1.2698
    4CHL1    O3  225   2.314   5.014  10.505  0.6037 -0.0001  0.1259
    4CHL1   H3'  226   2.261   4.990  10.582  1.5882 -0.5100  0.6658
    4CHL1    C4  227   2.133   4.914  10.373  0.1090  0.1676 -0.3922
    4CHL1   H4A  228   2.191   4.822  10.396 -2.1463 -0.7907  1.6380
    4CHL1   H4B  229   2.054   4.915  10.450  1.3244  0.1052  0.8628
    4CHL1    C5  230   2.062   4.906  10.233 -0.1697 -0.3202  0.0688
    4CHL1    C6  231   1.930   4.883  10.229 -0.6089  0.1047 -0.0906
    4CHL1    H6  232   1.873   4.846  10.316 -0.8098  0.6385  0.0072
    4CHL1    C7  233   1.837   4.892  10.113 -0.2165 -0.1832  0.8290
    4CHL1   H7A  234   1.772   4.802  10.111  1.1101 -1.1863  1.6662
    4CHL1   H7B  235   1.776   4.983  10.135 -1.6133 -0.2420 -2.4930
    4CHL1    C8  236   1.908   4.903   9.980  0.0938 -0.5181 -0.1217
    4CHL1    H8  237   1.945   4.802   9.953 -0.5903 -0.9309  0.4654
    4CHL1   C14  238   1.819   4.960   9.875 -0.9651  0.4094  0.3911
    4CHL1   H14  239   1.792   5.063   9.908 -2.5125 -0.2334  1.1681
    4CHL1   C15  240   1.681   4.903   9.853  0.5452 -0.6440  0.2802
    4CHL1  H15A  241   1.692   4.793   9.860  1.2841 -0.5428  0.7275
    4CHL1  H15B  242   1.607   4.927   9.933  2.0826  0.5445  1.3606
    4CHL1   C16  243   1.637   4.960   9.712  0.6512 -0.2291  0.2189
    4CHL1  H16A  244   1.602   4.877   9.646  0.2271 -0.7576  1.1015
    4CHL1  H16B  245   1.562   5.041   9.722  2.1749  1.5816 -2.3653
    4CHL1   C17  246   1.763   5.032   9.660 -0.6472 -0.5669  0.1893
    4CHL1   H17  247   1.757   5.133   9.705  1.2661 -0.4249  0.1587
    4CHL1   C13  248   1.886   4.975   9.733 -0.0538  0.5553  0.0174
    4CHL1   C18  249   1.920   4.840   9.670  0.1905 -0.6364 -0.0415
    4CHL1  H18A  250   1.973   4.770   9.739 -0.2638  0.8188  1.8252
    4CHL1  H18B  251   1.829   4.797   9.623 -0.3469 -1.0300  1.3314
    4CHL1  H18C  252   1.985   4.849   9.581 -0.2952  0.4627 -0.2858
    4CHL1   C12  253   2.016   5.067   9.740 -0.3772  0.1583  0.5006
    4CHL1  H12A  254   2.063   5.065   9.640  1.1692  1.5452  1.1871
    4CHL1  H12B  255   1.997   5.174   9.763  1.5010  0.4862  0.6144
    4CHL1   C11  256   2.102   5.009   9.851 -0.4769 -0.0753 -0.9337
    4CHL1  H11A  257   2.152   4.923   9.803 -1.2574 -0.1097 -1.6927
    4CHL1  H11B  258   2.195   5.064   9.877 -0.1929  0.2888 -2.7110
    4CHL1    C9  259   2.029   4.999   9.992 -1.0426  0.2730  0.3561
    4CHL1    H9  260   1.998   5.103  10.017 -1.0187  0.6782 -1.2642
    4CHL1   C10  261   2.131   4.965  10.108 -0.5310  0.0154 -0.6375
    4CHL1   C19  262   2.226   4.853  10.061 -0.3249  0.1753  0.1275
    4CHL1  H19A  263   2.161   4.776  10.013  0.6612  0.1839 -1.2545
    4CHL1  H19B  264   2.299   4.874   9.981 -1.1689  1.5478 -0.2886
    4CHL1  H19C  265   2.292   4.815  10.143  0.1775  0.2831 -0.2270
    4CHL1    C1  266   2.199   5.099  10.153  0.0829  0.3064 -0.5442
    4CHL1   H1A  267   2.260   5.128  10.064  2.3053 -3.3523 -0.3276
    4CHL1   H1B  268   2.128   5.183  10.162 -0.0323  0.1899 -0.3856
    4CHL1    C2  269   2.302   5.074  10.271  0.1924  0.1079  0.3695
    4CHL1   H2A  270   2.356   5.171  10.283 -0.6739  0.3763  2.2261
    4CHL1   H2B  271   2.379   5.001  10.238 -0.3734 -0.5320  0.4700
    4CHL1   C20  272   1.782   5.047   9.508  0.3340  0.6608  0.0697
    4CHL1   H20  273   1.890   5.036   9.484  0.5023 -0.5660  1.3467
    4CHL1   C21  274   1.733   5.189   9.477  0.7903 -0.4422  0.1606
    4CHL1  H21A  275   1.761   5.220   9.374 -1.0750  1.6441  0.2415
    4CHL1  H21B  276   1.771   5.273   9.540  0.9690  1.8374 -2.8771
    4CHL1  H21C  277   1.624   5.186   9.498  1.0287  0.5145  1.5927
    4CHL1   C22  278   1.708   4.954   9.413 -0.6732 -0.2862 -0.7862
    4CHL1  H22A  279   1.722   4.849   9.446 -0.8922 -0.4455 -1.2018
    4CHL1  H22B  280   1.596   4.958   9.413 -0.6746  2.4711  2.4744
    4CHL1   C23  281   1.767   4.956   9.275  0.2794  0.1815  0.1638
    4CHL1  H23A  282   1.721   4.878   9.211 -0.2535  1.8304 -1.5118
    4CHL1  H23B  283   1.755   5.056   9.229  2.3068  0.8824  1.0924
    4CHL1   C24  284   1.917   4.912   9.272 -0.2946 -0.0382  0.6747
    4CHL1  H24A  285   1.994   4.989   9.296 -0.1341  0.0030  0.0297
    4CHL1  H24B  286   1.938   4.835   9.350  2.0948  0.2497  0.3600
    4CHL1   C25  287   1.963   4.852   9.135 -0.3095  0.4190 -0.9499
    4CHL1   H25  288   1.896   4.772   9.098 -1.0488  0.6129 -0.0528
    4CHL1   C26  289   1.988   4.951   9.017  0.1021  0.3492  0.3742
    4CHL1  H26A  290   2.068   5.017   9.056  1.4934 -1.3276  0.4326
    4CHL1  H26B  291   2.042   4.894   8.938  0.9753  1.9839 -0.2193
    4CHL1  H26C  292   1.897   5.003   8.979 -0.8028 -3.5082 -3.1719
    4CHL1   C27  293   2.095   4.780   9.152  0.1263  0.1338 -0.4435
    4CHL1  H27A  294   2.102   4.711   9.239 -2.3660  1.4336  0.8443
    4CHL1  H27B  295   2.112   4.725   9.057  1.9485 -1.5671  0.8437
    4CHL1  H27C  296   2.170   4.859   9.170 -0.3884  0.8950 -1.5492
    5CHL1    C3  297   2.471   2.591  10.163 -0.4953  0.5741  0.0902
    5CHL1    H3  298   2.381   2.649  10.133 -0.7987 -0.0388 -0.2067
    5CHL1    O3  299   2.460   2.567  10.300 -0.0866  0.3513 -0.2280
    5CHL1   H3'  300   2.551   2.552  10.328  0.4542  1.5780 -1.2507
    5CHL1    C4  301   2.475   2.449  10.091 -0.0429 -0.2090  0.2480
    5CHL1   H4A  302   2.570   2.408  10.132 -0.2905 -0.8111  0.2311
    5CHL1   H4B  303   2.392   2.387  10.132  0.2010 -0.5300  0.2581
    5CHL1    C5  304   2.488   2.469   9.939 -0.5709 -0.5157  0.7731
    5CHL1    C6  305   2.409   2.406   9.855 -0.5006  0.3894  0.1041
    5CHL1    H6  306   2.323   2.347   9.891 -1.1168  2.7535  2.6240
    5CHL1    C7  307   2.409   2.418   9.709 -0.0694  0.5219 -0.0051
    5CHL1   H7A  308   2.408   2.316   9.666  1.2877  0.8606 -0.8828
    5CHL1   H7B  309   2.321   2.479   9.678  1.2075  1.9726 -0.8759
    5CHL1    C8  310   2.539   2.487   9.651 -0.5496 -0.6376 -0.0245
    5CHL1    H8  311   2.622   2.413   9.649  0.5833  0.6246 -1.2666
    5CHL1   C14  312   2.520   2.525   9.505 -0.0006 -0.4545 -0.8144
    5CHL1   H14  313   2.461   2.619   9.503  1.4208  0.4350 -2.0832
    5CHL1   C15  314   2.461   2.429   9.407 -0.4696  0.1132  0.5529
    5CHL1  H15A  315   2.501   2.325   9.403 -0.4029  0.1981 -1.2781
    5CHL1  H15B  316   2.351   2.417   9.407 -0.4940  0.2154 -2.2949
    5CHL1   C16  317   2.497   2.490   9.268  0.1387 -0.1294 -0.2005
    5CHL1  H16A  318   2.544   2.403   9.217 -2.0488 -1.1333 -0.5415
    5CHL1  H16B  319   2.421   2.537   9.201 -2.2036 -1.1413  1.6801
    5CHL1   C17  320   2.601   2.608   9.294 -0.5932  0.0064 -0.0116
    5CHL1   H17  321   2.544   2.703   9.305 -4.6930 -2.1714 -1.2426
    5CHL1   C13  322   2.643   2.585   9.442  0.0564 -0.2822  0.3881
    5CHL1   C18  323   2.762   2.483   9.442 -0.5259 -0.1594  0.0405
    5CHL1  H18A  324   2.846   2.536   9.393 -1.3554  0.5425 -0.6455
    5CHL1  H18B  325   2.796   2.451   9.543  1.0597  1.1776 -0.0403
    5CHL1  H18C  326   2.736   2.391   9.387 -0.4205 -0.7184  0.9157
    5CHL1   C12  327   2.681   2.718   9.522  0.1717 -0.1609  0.3647
    5CHL1  H12A  328   2.775   2.763   9.485  0.3693 -1.6367 -0.9969
    5CHL1  H12B  329   2.599   2.789   9.499  0.4958  0.3145  0.6728
    5CHL1   C11  330   2.709   2.680   9.667  0.0020  0.1573 -0.3384
    5CHL1  H11A  331   2.799   2.618   9.684 -0.2467 -0.0905  0.1012
    5CHL1  H11B  332   2.722   2.774   9.724  1.5671 -0.4064  0.2482
    5CHL1    C9  333   2.591   2.606   9.741  0.4870  0.4011  0.2887
    5CHL1    H9  334   2.513   2.684   9.752 -1.5671 -1.4655 -0.6073
    5CHL1   C10  335   2.601   2.556   9.885 -0.3100 -0.0159 -0.1482
    5CHL1   C19  336   2.736   2.476   9.906 -0.2737 -0.2293 -1.5003
    5CHL1  H19A  337   2.740   2.419  10.000 -1.0355  0.3499 -1.1063
    5CHL1  H19B  338   2.762   2.401   9.829  2.5231  0.5087 -1.3279
    5CHL1  H19C  339   2.816   2.553   9.910  0.3964 -1.0471  1.1042
    5CHL1    C1  340   2.612   2.681   9.973  0.6597  0.2425 -0.1184
    5CHL1   H1A  341   2.693   2.752   9.945  0.1721  1.0870  0.6022
    5CHL1   H1B  342   2.520   2.739   9.948 -0.5474 -1.2159  0.8700
    5CHL1    C2  343   2.599   2.664  10.126  0.2565  0.1630 -0.5007
    5CHL1   H2A  344   2.599   2.761  10.181  1.2080 -0.0140 -0.1852
    5CHL1   H2B  345   2.684   2.605  10.167  0.0178  0.0614 -0.1493
    5CHL1   C20  346   2.700   2.631   9.190 -0.4401 -0.0950 -0.6681
    5CHL1   H20  347   2.778   2.553   9.196 -0.0321  0.4096  0.6320
    5CHL1   C21  348   2.769   2.771   9.207 -0.1429  0.4157 -0.2489
    5CHL1  H21A  349   2.814   2.787   9.107 -3.0627 -1.1775 -1.9043
    5CHL1  H21B  350   2.852   2.761   9.279 -0.8870  1.1843  0.7257
    5CHL1  H21C  351   2.688   2.842   9.235  0.0137 -0.1981  1.8207
    5CHL1   C22  352   2.649   2.623   9.036 -0.1374 -0.0320 -0.4143
    5CHL1  H22A  353   2.740   2.623   8.972 -1.7231 -0.1081 -2.7198
    5CHL1  H22B  354   2.597   2.527   9.021 -0.8309  0.2710  0.0232
    5CHL1   C23  355   2.545   2.730   8.986  0.8681  0.4533 -0.7847
    5CHL1  H23A  356   2.446   2.710   9.033  1.7667 -0.1224  0.9346
    5CHL1  H23B  357   2.585   2.830   9.015 -0.3965  1.8219 -3.5956
    5CHL1   C24  358   2.532   2.732   8.832 -0.4483 -0.9219  0.0544
    5CHL1  H24A  359   2.629   2.743   8.779  0.4784 -2.7442  1.3454
    5CHL1  H24B  360   2.503   2.630   8.801 -0.2337 -0.0432 -3.2223
    5CHL1   C25  361   2.443   2.838   8.784 -0.5879 -0.6756  0.2757
    5CHL1   H25  362   2.457   2.928   8.848  2.8071 -0.1103 -1.1239
    5CHL1   C26  363   2.487   2.883   8.642  0.5462  0.7736  0.1772
    5CHL1  H26A  364   2.567   2.960   8.649  2.4275 -1.2170  1.1803
    5CHL1  H26B  365   2.520   2.808   8.568 -0.2749  2.3729 -1.8438
    5CHL1  H26C  366   2.401   2.943   8.604  1.5524  1.2341 -1.3989
    5CHL1   C27  367   2.288   2.803   8.794  0.3738 -0.1596 -0.1441
    5CHL1  H27A  368   2.221   2.883   8.755  1.0517  0.5548  0.1611
    5CHL1  H27B  369   2.274   2.713   8.730  0.8085 -1.3681  1.4373
    5CHL1  H27C  370   2.252   2.770   8.894 -0.1137  0.5445 -0.0817
    6CHL1    C3  371   0.705   0.348  10.334 -0.0306  0.2139  0.7758
    6CHL1    H3  372   0.708   0.456  10.312 -1.1540 -0.2262 -1.7663
    6CHL1    O3  373   0.671   0.325  10.468  0.2438 -0.6344 -1.2011
    6CHL1   H3'  374   0.654   0.230  10.469  0.8727 -0.7321  0.5372
    6CHL1    C4  375   0.592   0.282  10.251 -0.3995  0.6175  0.7849
    6CHL1   H4A  376   0.589   0.175  10.280  1.6222  0.2531 -0.2497
    6CHL1   H4B  377   0.497   0.334  10.276 -0.4082  0.9874  0.0318
    6CHL1    C5  378   0.627   0.306  10.104  1.0460 -0.9606  0.9569
    6CHL1    C6  379   0.534   0.352  10.018 -0.4185 -0.1585 -0.5386
    6CHL1    H6  380   0.432   0.367  10.058 -0.5153 -0.8671 -0.5155
    6CHL1    C7  381   0.557   0.367   9.868 -0.4478 -0.3020  0.3171
    6CHL1   H7A  382   0.479   0.320   9.806 -0.4923  0.2800 -0.0699
    6CHL1   H7B  383   0.558   0.476   9.848 -0.9399 -0.2664  0.4737
    6CHL1    C8  384   0.689   0.310   9.818 -0.5689  0.1188  0.8279
    6CHL1    H8  385   0.683   0.201   9.799 -0.2570 -0.0886  1.9089
    6CHL1   C14  386   0.727   0.379   9.685  0.5282  0.1885  0.1459
    6CHL1   H14  387   0.737   0.489   9.700 -1.5491  0.6478 -1.5741
    6CHL1   C15  388   0.627   0.381   9.568 -0.4171  0.5928 -0.1253
    6CHL1  H15A  389   0.580   0.281   9.555  4.2252 -1.4662 -2.0801
    6CHL1  H15B  390   0.541   0.450   9.583 -1.2591 -0.0957 -1.6889
    6CHL1   C16  391   0.711   0.429   9.449 -0.6821 -0.1706 -0.0345
    6CHL1  H16A  392   0.699   0.373   9.353 -0.8011 -0.8803  0.3880
    6CHL1  H16B  393   0.688   0.534   9.423 -1.7747  0.0291  1.6837
    6CHL1   C17  394   0.859   0.422   9.495 -0.3848 -0.5902  0.3328
    6CHL1   H17  395   0.894   0.521   9.532  2.0589 -0.7094 -1.5619
    6CHL1   C13  396   0.859   0.329   9.625  0.7102 -0.0835  0.1552
    6CHL1   C18  397   0.865   0.177   9.583 -0.7246 -0.0088 -0.0251
    6CHL1  H18A  398   0.796   0.162   9.498 -0.6267  1.3370 -0.3509
    6CHL1  H18B  399   0.969   0.156   9.549 -0.1800 -2.3097  2.8223
    6CHL1  H18C  400   0.830   0.118   9.671  2.1933 -1.5414  0.1875
    6CHL1   C12  401   0.970   0.350   9.725  0.9033 -0.1056  0.2781
    6CHL1  H12A  402   1.065   0.300   9.700  1.3054  1.4303 -1.3084
    6CHL1  H12B  403   0.982   0.458   9.750 -0.9292 -0.4078  2.7476
    6CHL1   C11  404   0.939   0.292   9.861  0.2419 -0.1569 -0.5093
    6CHL1  H11A  405   0.933   0.183   9.843 -3.8097  0.0851 -1.1803
    6CHL1  H11B  406   1.024   0.312   9.930 -2.6728  2.0263  2.6223
    6CHL1    C9  407   0.805   0.335   9.922  0.4051  0.0778  0.6165
    6CHL1    H9  408   0.817   0.445   9.927  1.0510 -0.0001  0.7795
    6CHL1   C10  409   0.773   0.272  10.056  0.0864  0.1499 -0.1804
    6CHL1   C19  410   0.784   0.116  10.041  0.3319 -0.3206 -0.5300
    6CHL1  H19A  411   0.739   0.068  10.131 -0.6885  1.1925 -0.2002
    6CHL1  H19B  412   0.720   0.069   9.963 -0.6405  1.0246 -0.5547
    6CHL1  H19C  413   0.889   0.088  10.021  0.6469 -0.8518  1.7341
    6CHL1    C1  414   0.884   0.330  10.159  0.5687 -0.7536  0.5622
    6CHL1   H1A  415   0.981   0.282  10.130 -0.5972 -1.5228 -2.1882
    6CHL1   H1B  416   0.899   0.440  10.165  1.2468 -0.7956 -0.2012
    6CHL1    C2  417   0.844   0.282  10.301  0.0215  0.0072  0.1990
    6CHL1   H2A  418   0.920   0.316  10.375  0.4266  0.4072 -0.3941
    6CHL1   H2B  419   0.841   0.171  10.298 -0.4254  0.0017  0.8283
    6CHL1   C20  420   0.954   0.391   9.376  0.3075 -0.1149  0.4775
    6CHL1   H20  421   0.929   0.288   9.343 -1.3772  0.0211  1.2544
    6CHL1   C21  422   1.101   0.382   9.428 -0.6534 -0.2371 -0.0115
    6CHL1  H21A  423   1.122   0.471   9.492 -0.4223  0.3860 -0.9558
    6CHL1  H21B  424   1.176   0.379   9.347 -0.3564 -3.9077  0.3377
    6CHL1  H21C  425   1.119   0.290   9.489  2.6786  1.1020  1.1381
    6CHL1   C22  426   0.949   0.492   9.258 -0.1000  0.0132 -0.1224
    6CHL1  H22A  427   0.846   0.511   9.220 -0.3286  1.4885  1.1970
    6CHL1  H22B  428   0.982   0.595   9.285  1.6069 -0.3355 -0.7601
    6CHL1   C23  429   1.039   0.456   9.135 -0.4597  0.6466  0.1955
    6CHL1  H23A  430   1.144   0.465   9.171 -1.0496 -0.2541  2.2386
    6CHL1  H23B  431   1.014   0.352   9.107 -0.7286  0.7350  0.1118
    6CHL1   C24  432   1.019   0.539   9.012  0.4475  0.6557  0.0928
    6CHL1  H24A  433   0.914   0.536   8.977  0.1520 -0.5547  1.0468
    6CHL1  H24B  434   1.050   0.643   9.035 -0.0430  0.5155  1.3766
    6CHL1   C25  435   1.104   0.499   8.885  0.7383  0.0706 -0.0518
    6CHL1   H25  436   1.210   0.484   8.912 -0.0454 -0.7237  2.7042
    6CHL1   C26  437   1.048   0.368   8.814  0.2691 -0.1624  0.2797
    6CHL1  H26A  438   0.937   0.377   8.817  0.2229 -0.0952 -1.2845
    6CHL1  H26B  439   1.080   0.361   8.708 -2.1153 -1.3667 -0.4032
    6CHL1  H26C  440   1.094   0.293   8.882  0.7707 -1.6335 -1.6449
    6CHL1   C27  441   1.083   0.611   8.784 -0.3072  0.1241 -0.2415
    6CHL1  H27A  442   1.104   0.585   8.678 -1.1379  1.8309 -0.8536
    6CHL1  H27B  443   0.978   0.648   8.778 -0.3279 -0.0066 -0.6973
    6CHL1  H27C  444   1.152   0.695   8.805 -1.4597  0.7515  1.1037
    7CHL1    C3  445   3.867   3.617  10.541  0.1154 -0.6859 -0.0615
    7CHL1    H3  446   3.911   3.536  10.479  0.1310 -0.3688 -0.4712
    7CHL1    O3  447   3.928   3.653  10.660 -0.2615 -0.6125  0.5693
    7CHL1   H3'  448   4.001   3.709  10.634 -1.1899  0.6877  0.6791
    7CHL1    C4  449   3.876   3.748  10.459  0.5322 -0.2179 -0.1562
    7CHL1   H4A  450   3.833   3.837  10.510  0.5562  0.0617 -0.6250
    7CHL1   H4B  451   3.982   3.778  10.442 -0.2230  1.7107 -1.5362
    7CHL1    C5  452   3.810   3.730  10.326  0.3042  0.1724  0.1862
    7CHL1    C6  453   3.878   3.734  10.210 -0.7283  0.4710 -0.3127
    7CHL1    H6  454   3.975   3.784  10.217 -0.7055  0.5664 -1.2219
    7CHL1    C7  455   3.826   3.696  10.075  0.7091 -0.1943  1.1601
    7CHL1   H7A  456   3.855   3.770   9.997 -3.0746 -1.1576 -1.3066
    7CHL1   H7B  457   3.876   3.605  10.036  3.0863  1.8558 -0.6886
    7CHL1    C8  458   3.672   3.689  10.076 -0.1100  0.0434  0.0314
    7CHL1    H8  459   3.640   3.795  10.084 -1.9031 -0.5624  1.1787
    7CHL1   C14  460   3.623   3.634   9.945  1.2321 -0.0162  0.1761
    7CHL1   H14  461   3.664   3.531   9.936  2.5981  0.5974 -0.7616
    7CHL1   C15  462   3.686   3.691   9.820 -0.1403  0.0365 -0.1420
    7CHL1  H15A  463   3.704   3.801   9.823  0.3836 -0.0972  1.7876
    7CHL1  H15B  464   3.779   3.634   9.802 -0.5887 -1.2506  1.5521
    7CHL1   C16  465   3.569   3.652   9.719 -0.4374 -0.6549  0.0072
    7CHL1  H16A  466   3.531   3.749   9.680 -0.4810 -0.6858 -0.0250
    7CHL1  H16B  467   3.612   3.600   9.632 -0.0699  1.2329 -0.9582
    7CHL1   C17  468   3.461   3.562   9.790  0.5837  0.0156 -0.0960
    7CHL1   H17  469   3.497   3.457   9.793 -2.0015 -0.8946  0.4750
    7CHL1   C13  470   3.469   3.617   9.934 -0.1893 -0.2086 -0.3429
    7CHL1   C18  471   3.397   3.747   9.936  0.2043 -0.6854 -0.0567
    7CHL1  H18A  472   3.432   3.808  10.022  0.5680  0.0662 -0.7344
    7CHL1  H18B  473   3.417   3.799   9.840 -0.0405 -1.6517 -0.6388
    7CHL1  H18C  474   3.287   3.739   9.955  0.5328 -0.4555  2.0669
    7CHL1   C12  475   3.431   3.529  10.049  0.2514  0.0044 -0.3673
    7CHL1  H12A  476   3.323   3.505  10.039 -0.1886  2.2591 -1.4507
    7CHL1  H12B  477   3.496   3.440  10.040  0.9935  0.5212 -0.2058
    7CHL1   C11  478   3.464   3.597  10.188  0.3990 -0.1682 -0.2548
    7CHL1  H11A  479   3.410   3.694  10.196 -1.2471 -1.0383 -0.4589
    7CHL1  H11B  480   3.442   3.526  10.270  1.3106  0.2353  0.3466
    7CHL1    C9  481   3.618   3.617  10.199  0.2750  0.0333  0.1813
    7CHL1    H9  482   3.657   3.513  10.194 -0.1584 -0.1907  1.4188
    7CHL1   C10  483   3.665   3.673  10.336  0.1944 -0.0123 -0.2556
    7CHL1   C19  484   3.570   3.791  10.379  0.3614  0.0382  0.4618
    7CHL1  H19A  485   3.609   3.861  10.455 -0.8542  1.3686 -0.1107
    7CHL1  H19B  486   3.546   3.852  10.289  0.6663 -0.8507 -0.2357
    7CHL1  H19C  487   3.474   3.752  10.420 -0.1210 -0.4591 -1.1211
    7CHL1    C1  488   3.654   3.561  10.438  0.1300  0.6517  0.2175
    7CHL1   H1A  489   3.547   3.557  10.467  0.3382 -1.1588  0.8515
    7CHL1   H1B  490   3.689   3.460  10.405  1.5587  1.4658 -0.8134
    7CHL1    C2  491   3.725   3.588  10.570 -0.3980 -0.4627 -0.1791
    7CHL1   H2A  492   3.721   3.500  10.638 -0.2996  0.0136  0.4503
    7CHL1   H2B  493   3.678   3.675  10.622  1.3074  0.5049 -0.2083
    7CHL1   C20  494   3.331   3.562   9.720  0.2890  0.0463  0.7232
    7CHL1   H20  495   3.292   3.665   9.710  0.3485 -0.0855 -1.0778
    7CHL1   C21  496   3.222   3.475   9.793  0.3530 -0.4822  0.5765
    7CHL1  H21A  497   3.146   3.434   9.722  0.9019  1.6406 -1.3109
    7CHL1  H21B  498   3.178   3.529   9.879  0.8924  1.1935 -0.1652
    7CHL1  H21C  499   3.280   3.392   9.840  1.4870  0.5074  0.9628
    7CHL1   C22  500   3.341   3.514   9.576  0.0153 -0.5114 -1.3653
    7CHL1  H22A  501   3.432   3.532   9.515  0.0657  3.3677 -0.3229
    7CHL1  H22B  502   3.339   3.404   9.569  1.5748 -0.8975  2.7688
    7CHL1   C23  503   3.235   3.575   9.484 -0.7122 -0.1283  0.3745
    7CHL1  H23A  504   3.140   3.546   9.535 -0.0371 -0.6581  1.3617
    7CHL1  H23B  505   3.250   3.684   9.470  1.9875 -0.6490 -1.2629
    7CHL1   C24  506   3.246   3.501   9.348  0.8598 -0.5681 -0.5879
    7CHL1  H24A  507   3.344   3.516   9.299  0.7601  1.4283 -0.2041
    7CHL1  H24B  508   3.232   3.392   9.365  0.6019 -0.2589  1.3860
    7CHL1   C25  509   3.134   3.537   9.256  0.3646  0.2108  0.1813
    7CHL1   H25  510   3.040   3.531   9.315  1.7658 -1.0841  2.3261
    7CHL1   C26  511   3.149   3.689   9.212  0.3189 -0.8543  0.7437
    7CHL1  H26A  512   3.172   3.759   9.295 -0.9825  1.1916 -0.5482
    7CHL1  H26B  513   3.241   3.696   9.150  0.6113 -0.1748  1.2537
    7CHL1  H26C  514   3.063   3.721   9.149  0.4814 -0.0152  0.9331
    7CHL1   C27  515   3.128   3.439   9.138 -0.0874 -0.0102  0.1357
    7CHL1  H27A  516   3.224   3.390   9.112  0.1498 -0.2015  1.3462
    7CHL1  H27B  517   3.058   3.358   9.167  1.5679 -1.2083  0.8734
    7CHL1  H27C  518   3.089   3.488   9.046  1.9650  0.6186 -0.4115
    8CHL1    C3  519   4.348   5.097  10.258  0.4079 -0.2394 -1.4532
    8CHL1    H3  520   4.445   5.122  10.211  0.9600 -0.4288 -0.4260
    8CHL1    O3  521   4.372   5.065  10.393 -0.1915 -0.1963 -0.0973
    8CHL1   H3'  522   4.292   5.021  10.422 -0.4113 -0.4321 -1.0713
    8CHL1    C4  523   4.254   5.214  10.256  0.4390 -0.0662 -0.1297
    8CHL1   H4A  524   4.165   5.166  10.302 -0.0550  0.2690 -0.7425
    8CHL1   H4B  525   4.296   5.300  10.312 -0.8923 -0.0371  0.8400
    8CHL1    C5  526   4.219   5.252  10.115  0.0532 -0.0075 -0.6984
    8CHL1    C6  527   4.246   5.375  10.071 -0.7185  0.1579 -0.1179
    8CHL1    H6  528   4.307   5.448  10.127  1.5705 -0.7437 -1.3821
    8CHL1    C7  529   4.204   5.440   9.940  0.3761  0.0389 -0.2291
    8CHL1   H7A  530   4.144   5.533   9.950 -1.9973 -1.1699 -2.6759
    8CHL1   H7B  531   4.299   5.457   9.887  0.7427  0.1468  0.4577
    8CHL1    C8  532   4.125   5.345   9.853  0.7722  0.5294  0.8953
    8CHL1    H8  533   4.015   5.352   9.869  0.9977 -0.4843  3.0430
    8CHL1   C14  534   4.159   5.374   9.704  0.1577 -0.4957  0.0029
    8CHL1   H14  535   4.265   5.353   9.681 -0.6065 -2.1672 -2.0785
    8CHL1   C15  536   4.146   5.523   9.657 -0.0313 -0.2452 -0.0081
    8CHL1  H15A  537   4.062   5.563   9.717  1.2976  1.0127  1.0414
    8CHL1  H15B  538   4.240   5.578   9.679  1.6460 -2.6716 -0.8617
    8CHL1   C16  539   4.103   5.515   9.505 -1.0591 -0.4846 -0.1478
    8CHL1  H16A  540   4.001   5.557   9.493 -0.6230  0.3349 -1.0903
    8CHL1  H16B  541   4.168   5.577   9.439  0.7251  0.5508  2.4840
    8CHL1   C17  542   4.100   5.363   9.473 -0.0514  0.6333 -0.1833
    8CHL1   H17  543   4.203   5.329   9.446 -0.2162 -0.5063  0.6027
    8CHL1   C13  544   4.066   5.294   9.608  0.0392  0.3669 -0.3283
    8CHL1   C18  545   3.916   5.290   9.645  0.3110 -0.5491  0.1317
    8CHL1  H18A  546   3.886   5.229   9.733  0.6374 -0.2767  0.4320
    8CHL1  H18B  547   3.871   5.391   9.636 -0.8968 -1.1942 -1.2383
    8CHL1  H18C  548   3.868   5.230   9.565 -0.6098  1.2392 -0.6868
    8CHL1   C12  549   4.103   5.145   9.628  0.0016  0.2393  0.5380
    8CHL1  H12A  550   4.030   5.077   9.578  1.9886 -0.4085 -1.6024
    8CHL1  H12B  551   4.201   5.120   9.581 -0.2105  1.8164 -0.8033
    8CHL1   C11  552   4.099   5.099   9.775 -0.3068  0.2125  0.3470
    8CHL1  H11A  553   3.995   5.075   9.806 -0.4365  1.0129  0.5374
    8CHL1  H11B  554   4.143   4.997   9.780 -1.0572 -0.1393 -0.1963
    8CHL1    C9  555   4.161   5.193   9.879 -0.3071  0.2954  0.1851
    8CHL1    H9  556   4.269   5.192   9.852  0.5207 -1.3132  3.3655
    8CHL1   C10  557   4.161   5.145  10.026  0.3067  0.0019 -0.5346
    8CHL1   C19  558   4.011   5.129  10.070 -0.1439 -0.1548  0.2075
    8CHL1  H19A  559   3.993   5.122  10.179 -0.5600 -0.1868  0.1354
    8CHL1  H19B  560   3.953   5.212  10.024  1.4166  0.3113 -0.9820
    8CHL1  H19C  561   3.975   5.033  10.029 -1.1053 -0.2987  1.4012
    8CHL1    C1  562   4.236   5.005  10.040 -0.7216 -0.5617  0.3302
    8CHL1   H1A  563   4.177   4.923   9.994  0.8016 -0.4427 -1.8982
    8CHL1   H1B  564   4.332   5.014   9.986 -1.1931  0.1080 -0.4071
    8CHL1    C2  565   4.289   4.973  10.181  0.6253  0.4679  0.4232
    8CHL1   H2A  566   4.366   4.893  10.178  0.2183  0.1124 -0.9256
    8CHL1   H2B  567   4.211   4.928  10.247  2.1428 -3.3273 -0.2745
    8CHL1   C20  568   4.014   5.333   9.340 -0.5019 -0.6002  0.0491
    8CHL1   H20  569   3.906   5.353   9.358 -0.2384  0.8304  0.0896
    8CHL1   C21  570   4.034   5.188   9.298 -0.0951 -0.4157 -0.0459
    8CHL1  H21A  571   4.131   5.166   9.249  1.0888  1.8123  1.2175
    8CHL1  H21B  572   3.944   5.155   9.241 -2.4709  1.6402  2.3453
    8CHL1  H21C  573   4.030   5.124   9.388 -4.1578 -0.3737 -0.1071
    8CHL1   C22  574   4.059   5.414   9.219 -0.2169 -0.1072  0.0184
    8CHL1  H22A  575   4.006   5.511   9.234 -2.1603 -0.6317 -2.9421
    8CHL1  H22B  576   4.167   5.438   9.214 -0.9794  3.4556 -1.0569
    8CHL1   C23  577   4.012   5.373   9.078 -0.0450  0.4414 -0.0509
    8CHL1  H23A  578   4.073   5.283   9.055 -1.6414 -0.9425  0.9210
    8CHL1  H23B  579   3.907   5.335   9.079  0.7313 -1.8900 -2.1086
    8CHL1   C24  580   4.019   5.484   8.972  0.2448  0.5827  0.6878
    8CHL1  H24A  581   3.976   5.571   9.026  0.8545 -0.1822  2.4369
    8CHL1  H24B  582   4.126   5.497   8.948 -0.7400  1.5658 -3.4799
    8CHL1   C25  583   3.939   5.445   8.839 -0.1074 -0.4731  0.3381
    8CHL1   H25  584   3.835   5.419   8.869  0.4108 -0.5261  2.1642
    8CHL1   C26  585   3.944   5.564   8.747  0.3056 -0.5019 -0.2644
    8CHL1  H26A  586   4.026   5.569   8.673  0.6653  1.8505  0.2772
    8CHL1  H26B  587   3.849   5.563   8.689 -0.3486  0.0370  0.7893
    8CHL1  H26C  588   3.943   5.662   8.799 -2.5607 -0.1035 -1.0158
    8CHL1   C27  589   3.995   5.325   8.764 -0.0475  0.1090 -1.4776
    8CHL1  H27A  590   4.081   5.359   8.703  0.7490 -2.1652 -1.6569
    8CHL1  H27B  591   4.024   5.237   8.825  0.8650  1.1037 -0.4685
    8CHL1  H27C  592   3.921   5.290   8.689 -0.0450 -0.5579 -1.1685
    9CHL1    C3  593   0.419   1.376  10.129 -0.2171  0.5210  0.1466
    9CHL1    H3  594   0.436   1.268  10.113  2.0623  0.6162  1.6697
    9CHL1    O3  595   0.372   1.389  10.264 -0.0945 -0.5569  0.0765
    9CHL1   H3'  596   0.363   1.484  10.273 -1.6098 -0.3393 -3.2658
    9CHL1    C4  597   0.549   1.458  10.104  0.2619 -0.1364  0.3411
    9CHL1   H4A  598   0.532   1.563  10.135 -0.0952 -0.0594 -0.1137
    9CHL1   H4B  599   0.629   1.422  10.173  0.4398 -1.3043 -0.4703
    9CHL1    C5  600   0.593   1.433   9.961 -0.5242 -0.4467  0.6646
    9CHL1    C6  601   0.715   1.389   9.935  0.9093  0.0247 -0.1752
    9CHL1    H6  602   0.787   1.373  10.017  0.6043 -2.1392 -0.2777
    9CHL1    C7  603   0.768   1.351   9.796  0.1151  0.7736  0.2538
    9CHL1   H7A  604   0.872   1.387   9.778  0.2422  0.3708  0.1862
    9CHL1   H7B  605   0.766   1.241   9.786  0.7493  0.8805 -1.0860
    9CHL1    C8  606   0.683   1.417   9.684  0.0187 -0.4124 -0.0463
    9CHL1    H8  607   0.710   1.525   9.679  0.1723 -0.3350  1.8689
    9CHL1   C14  608   0.702   1.346   9.545 -0.0119  0.2523  0.1740
    9CHL1   H14  609   0.655   1.247   9.562 -2.0099  1.0433 -0.6072
    9CHL1   C15  610   0.848   1.318   9.499  0.3996  0.8022 -0.3515
    9CHL1  H15A  611   0.918   1.402   9.519  1.0980 -0.0375  0.8506
    9CHL1  H15B  612   0.885   1.235   9.564 -0.9028  1.0716  0.7640
    9CHL1   C16  613   0.841   1.290   9.350 -0.3168  0.3257 -0.2392
    9CHL1  H16A  614   0.904   1.364   9.296 -1.1737  1.4738  0.2908
    9CHL1  H16B  615   0.873   1.185   9.332  2.2445  0.6908  1.9335
    9CHL1   C17  616   0.698   1.317   9.302  0.0008  0.7309 -0.3468
    9CHL1   H17  617   0.639   1.224   9.313  1.6440 -0.2126  0.6409
    9CHL1   C13  618   0.634   1.404   9.421 -0.9309 -0.3625 -0.4699
    9CHL1   C18  619   0.677   1.552   9.405  0.2005 -0.9705 -0.0452
    9CHL1  H18A  620   0.623   1.594   9.317  2.6236 -0.6011 -1.3972
    9CHL1  H18B  621   0.648   1.615   9.491  1.2037 -0.9710  0.2914
    9CHL1  H18C  622   0.785   1.572   9.388  0.4696 -0.9901  1.5546
    9CHL1   C12  623   0.482   1.386   9.453  0.4212 -0.5269  0.3954
    9CHL1  H12A  624   0.418   1.440   9.381  0.3435  0.8819  1.4983
    9CHL1  H12B  625   0.460   1.277   9.453  1.3259 -0.7574  3.0580
    9CHL1   C11  626   0.450   1.442   9.590  0.0604  0.1720  0.4195
    9CHL1  H11A  627   0.467   1.551   9.583  1.2011 -0.0885 -1.0278
    9CHL1  H11B  628   0.341   1.433   9.609  0.1671  0.1940  1.0619
    9CHL1    C9  629   0.538   1.396   9.720  0.5705  0.3803  0.6744
    9CHL1    H9  630   0.518   1.287   9.725 -0.7441  0.5932  0.1472
    9CHL1   C10  631   0.486   1.461   9.852 -0.0819 -0.3123  0.5356
    9CHL1   C19  632   0.474   1.611   9.830  0.0674  0.4704 -0.8802
    9CHL1  H19A  633   0.427   1.658   9.920 -2.2336  1.5103 -2.5785
    9CHL1  H19B  634   0.571   1.651   9.794  0.3593  0.0744 -0.5435
    9CHL1  H19C  635   0.396   1.630   9.753 -2.5611 -0.1317  1.5468
    9CHL1    C1  636   0.353   1.398   9.883  0.6094 -0.5296  0.7898
    9CHL1   H1A  637   0.275   1.447   9.821  1.3734  0.2895  0.4772
    9CHL1   H1B  638   0.345   1.291   9.855  0.1459 -0.0227 -1.0612
    9CHL1    C2  639   0.307   1.414  10.032 -0.0361  0.4665 -0.7221
    9CHL1   H2A  640   0.212   1.358  10.050 -0.5894  2.0608  1.5467
    9CHL1   H2B  641   0.267   1.517  10.032 -0.7110  0.2341  1.8557
    9CHL1   C20  642   0.679   1.369   9.160 -0.8548  0.4414  0.2939
    9CHL1   H20  643   0.728   1.468   9.150 -1.8620  0.8968 -0.1666
    9CHL1   C21  644   0.531   1.383   9.121  0.2009 -0.3280  0.5632
    9CHL1  H21A  645   0.477   1.286   9.130 -0.2374 -0.1871 -0.5221
    9CHL1  H21B  646   0.519   1.412   9.015  0.7969  0.2050  0.6375
    9CHL1  H21C  647   0.486   1.455   9.193 -0.9977 -0.5005 -0.0031
    9CHL1   C22  648   0.761   1.279   9.059  0.3579 -0.2753 -0.3409
    9CHL1  H22A  649   0.870   1.292   9.073  0.5906 -0.8497 -1.5168
    9CHL1  H22B  650   0.732   1.175   9.084 -1.5552 -0.0173 -1.3869
    9CHL1   C23  651   0.733   1.305   8.913  0.1516  0.2954 -0.4140
    9CHL1  H23A  652   0.629   1.268   8.896  0.4002 -1.5918  1.8638
    9CHL1  H23B  653   0.757   1.410   8.888  4.2961 -0.4244  0.3099
    9CHL1   C24  654   0.810   1.212   8.816  0.1056 -0.3557 -1.2152
    9CHL1  H24A  655   0.910   1.256   8.798  0.2725 -0.5094 -0.6654
    9CHL1  H24B  656   0.825   1.109   8.853 -0.8896  0.1605  0.7062
    9CHL1   C25  657   0.747   1.199   8.674  0.0739 -0.0691 -0.6932
    9CHL1   H25  658   0.645   1.157   8.686 -0.2338  1.0000  0.5242
    9CHL1   C26  659   0.727   1.335   8.606  0.0410  0.8012 -0.0307
    9CHL1  H26A  660   0.643   1.390   8.654 -0.2154  0.6632 -0.3122
    9CHL1  H26B  661   0.825   1.386   8.619  1.5126 -2.0139  0.2533
    9CHL1  H26C  662   0.721   1.321   8.496  0.2312 -0.3905  0.0976
    9CHL1   C27  663   0.836   1.104   8.590  0.8407  0.1519 -0.6566
    9CHL1  H27A  664   0.803   1.090   8.485  2.0659 -3.0749 -0.6799
    9CHL1  H27B  665   0.943   1.134   8.595 -0.4200  5.1317 -1.4836
    9CHL1  H27C  666   0.828   1.001   8.632  2.0368  0.5118  0.5038
   10CHL1    C3  667   6.190   5.716  10.080  0.0126 -0.0469  0.7494
   10CHL1    H3  668   6.160   5.609  10.083 -0.9293  0.2075  0.8050
   10CHL1    O3  669   6.206   5.767  10.208 -0.0082  0.5653  0.3681
   10CHL1   H3'  670   6.243   5.855  10.198  0.8952 -0.1774 -3.8362
   10CHL1    C4  671   6.321   5.726  10.008 -0.4218 -1.2056  0.3797
   10CHL1   H4A  672   6.356   5.831  10.002 -0.7994 -1.0188  1.3626
   10CHL1   H4B  673   6.402   5.673  10.062 -0.8752 -3.2740 -0.9173
   10CHL1    C5  674   6.295   5.680   9.864  0.6001 -0.4661 -0.5635
   10CHL1    C6  675   6.377   5.589   9.817 -0.0273 -1.0594  0.4914
   10CHL1    H6  676   6.455   5.547   9.882  1.2205 -0.6766 -0.7257
   10CHL1    C7  677   6.379   5.549   9.673 -0.0630  0.2949  0.2315
   10CHL1   H7A  678   6.480   5.564   9.631 -0.0003 -1.0416 -0.1140
   10CHL1   H7B  679   6.335   5.448   9.657  1.8770 -0.8380  1.7508
   10CHL1    C8  680   6.290   5.628   9.577  0.0888  0.0244 -0.2651
   10CHL1    H8  681   6.349   5.718   9.552  1.1984 -0.3303  0.9816
   10CHL1   C14  682   6.260   5.542   9.455  0.1320 -0.4969 -0.0400
   10CHL1   H14  683   6.205   5.456   9.499  0.8708 -1.0127 -0.1259
   10CHL1   C15  684   6.374   5.484   9.375  0.7106 -0.0746 -0.5192
   10CHL1  H15A  685   6.456   5.559   9.366  0.5574  0.2205  0.5619
   10CHL1  H15B  686   6.415   5.390   9.418 -0.8885 -0.0329  1.1112
   10CHL1   C16  687   6.312   5.458   9.233  0.4007 -0.4609  0.1685
   10CHL1  H16A  688   6.372   5.502   9.150  1.5169 -0.7517  0.8098
   10CHL1  H16B  689   6.310   5.349   9.212  1.5526 -0.8262  1.9477
   10CHL1   C17  690   6.168   5.529   9.232 -0.2278 -0.5109  0.0572
   10CHL1   H17  691   6.092   5.453   9.261  0.1946 -0.8478  0.2954
   10CHL1   C13  692   6.167   5.621   9.358 -0.3964  0.3656  0.8410
   10CHL1   C18  693   6.239   5.753   9.318 -0.0391  0.3342  0.2429
   10CHL1  H18A  694   6.337   5.729   9.270 -1.2326  1.6398 -2.9419
   10CHL1  H18B  695   6.175   5.802   9.241 -0.5278  2.4424  1.9598
   10CHL1  H18C  696   6.254   5.823   9.402 -0.2020 -4.0741  4.1348
   10CHL1   C12  697   6.030   5.651   9.422 -0.4290 -0.2190 -1.2589
   10CHL1  H12A  698   5.968   5.728   9.371 -0.6963 -0.4150 -1.2310
   10CHL1  H12B  699   5.975   5.556   9.436 -0.2802 -0.0147  0.8556
   10CHL1   C11  700   6.050   5.724   9.559 -0.4048  0.3230  0.0520
   10CHL1  H11A  701   6.084   5.828   9.536 -1.3994  0.6447  0.0094
   10CHL1  H11B  702   5.949   5.736   9.602 -0.1635 -0.8853  0.9782
   10CHL1    C9  703   6.159   5.662   9.650  0.4374 -1.1029  0.2665
   10CHL1    H9  704   6.119   5.565   9.687  0.5904 -0.8570  1.0861
   10CHL1   C10  705   6.182   5.746   9.783 -1.0403 -0.9263 -0.2986
   10CHL1   C19  706   6.227   5.892   9.738 -0.1545 -1.0266  1.0039
   10CHL1  H19A  707   6.139   5.958   9.724  1.3373  1.2759  2.0841
   10CHL1  H19B  708   6.289   5.938   9.818 -0.0633 -0.9058  0.8648
   10CHL1  H19C  709   6.279   5.899   9.640 -2.4807  0.7740 -0.1454
   10CHL1    C1  710   6.052   5.750   9.864 -0.5777  0.1738 -0.6116
   10CHL1   H1A  711   5.977   5.814   9.813 -0.7479  0.3892 -0.0976
   10CHL1   H1B  712   6.022   5.643   9.874  0.8750 -0.3680 -1.8203
   10CHL1    C2  713   6.075   5.799  10.011  0.1497 -0.1775  0.2816
   10CHL1   H2A  714   5.991   5.787  10.083  1.7967  1.4717  2.5392
   10CHL1   H2B  715   6.097   5.908  10.016 -1.2968  0.1096  0.5805
   10CHL1   C20  716   6.116   5.583   9.092 -0.5984  0.5354  0.6559
   10CHL1   H20  717   6.173   5.675   9.067 -0.4839  0.1645 -0.4566
   10CHL1   C21  718   5.968   5.616   9.106  0.3015 -0.0389  0.2893
   10CHL1  H21A  719   5.936   5.613   8.999 -0.3466  0.4680  0.4636
   10CHL1  H21B  720   5.945   5.712   9.157 -0.1210 -0.0258  0.0755
   10CHL1  H21C  721   5.908   5.539   9.159  1.4014  0.8198  2.8692
   10CHL1   C22  722   6.140   5.484   8.974  0.0083  0.6958 -0.1112
   10CHL1  H22A  723   6.111   5.534   8.880 -0.2151  0.5080 -0.1437
   10CHL1  H22B  724   6.248   5.462   8.985  0.0912 -0.2664 -2.6272
   10CHL1   C23  725   6.069   5.344   8.990 -0.6891  0.8775  0.5582
   10CHL1  H23A  726   6.113   5.289   9.076  0.8147  0.7233 -0.3037
   10CHL1  H23B  727   5.963   5.371   9.009 -0.2878  0.4332  3.7326
   10CHL1   C24  728   6.070   5.262   8.860  0.2536 -0.0352 -0.2466
   10CHL1  H24A  729   6.015   5.166   8.864  0.6654 -0.1942  1.8502
   10CHL1  H24B  730   6.017   5.317   8.779  1.4555  2.3617  0.5298
   10CHL1   C25  731   6.211   5.241   8.802  0.4982  0.5107 -0.5739
   10CHL1   H25  732   6.266   5.335   8.783 -0.3732  1.2163  0.2906
   10CHL1   C26  733   6.300   5.166   8.903 -0.6709  0.4228  0.3871
   10CHL1  H26A  734   6.291   5.214   9.003  0.4887  1.9410 -0.2371
   10CHL1  H26B  735   6.268   5.061   8.923 -0.0391  0.2435  0.4563
   10CHL1  H26C  736   6.408   5.176   8.882 -0.9110  2.1064 -0.1162
   10CHL1   C27  737   6.187   5.162   8.675 -0.4923  0.1293  0.7952
   10CHL1  H27A  738   6.282   5.141   8.622 -1.5321  0.6417 -1.3130
   10CHL1  H27B  739   6.127   5.071   8.700 -0.3717  0.0705  0.8733
   10CHL1  H27C  740   6.129   5.228   8.608 -0.0032 -2.1673 -1.9685
   11CHL1    C3  741   1.885   1.523  10.023  0.6368  0.3521 -0.5729
   11CHL1    H3  742   1.986   1.569  10.029  1.4701 -1.6591  1.5869
   11CHL1    O3  743   1.829   1.533  10.158  0.2032  0.4423 -0.1244
   11CHL1   H3'  744   1.891   1.504  10.225 -0.1702  0.8397  0.3966
   11CHL1    C4  745   1.807   1.596   9.917  0.9179 -0.5516  0.2383
   11CHL1   H4A  746   1.702   1.561   9.923  1.0286 -0.7729  1.0554
   11CHL1   H4B  747   1.820   1.699   9.957 -0.6068 -1.5794  3.6258
   11CHL1    C5  748   1.871   1.577   9.780 -0.2392  0.0513 -0.6680
   11CHL1    C6  749   1.885   1.687   9.706 -1.0295 -0.0822 -0.3942
   11CHL1    H6  750   1.859   1.787   9.744 -1.3795 -0.0784 -0.6395
   11CHL1    C7  751   1.938   1.681   9.570  0.2792  0.2373 -0.1499
   11CHL1   H7A  752   1.868   1.733   9.501  1.2036  1.3455 -0.2518
   11CHL1   H7B  753   2.038   1.730   9.574 -0.4035  1.5015  2.0959
   11CHL1    C8  754   1.956   1.538   9.513 -0.2295 -0.1042  0.3337
   11CHL1    H8  755   1.854   1.498   9.491 -0.8684  1.0513  1.1873
   11CHL1   C14  756   2.049   1.532   9.390 -0.1747  0.0486  0.3491
   11CHL1   H14  757   2.146   1.560   9.436  0.0105  0.6090 -0.3766
   11CHL1   C15  758   2.026   1.626   9.277 -0.5460  0.1006 -0.0495
   11CHL1  H15A  759   1.920   1.634   9.245 -0.3869  1.2036 -0.3413
   11CHL1  H15B  760   2.075   1.724   9.295  0.1433  0.0438 -1.5612
   11CHL1   C16  761   2.106   1.564   9.156 -0.6645  0.7473 -0.3465
   11CHL1  H16A  762   2.039   1.553   9.068 -0.4229 -1.4722 -0.2789
   11CHL1  H16B  763   2.194   1.628   9.131  1.2134 -1.2752  0.8759
   11CHL1   C17  764   2.156   1.423   9.211 -0.1148  0.3257  0.0760
   11CHL1   H17  765   2.259   1.428   9.252 -0.1410 -2.4202  0.5724
   11CHL1   C13  766   2.064   1.392   9.327 -0.3743  0.5620  0.1277
   11CHL1   C18  767   1.924   1.331   9.276  0.2827  0.4712 -0.3952
   11CHL1  H18A  768   1.848   1.321   9.356 -0.1984 -0.5759 -0.9711
   11CHL1  H18B  769   1.886   1.389   9.189  0.2134  1.1114  0.0579
   11CHL1  H18C  770   1.943   1.230   9.232 -2.0384  0.7920 -2.2316
   11CHL1   C12  771   2.135   1.310   9.440 -0.2598  0.2391  0.1790
   11CHL1  H12A  772   2.143   1.204   9.408 -0.8664 -0.7668  3.2123
   11CHL1  H12B  773   2.240   1.345   9.450  0.0043 -0.8825  1.3078
   11CHL1   C11  774   2.047   1.304   9.568  0.0419 -0.1208  0.6539
   11CHL1  H11A  775   1.956   1.247   9.538  0.3922 -0.1896 -0.2798
   11CHL1  H11B  776   2.106   1.261   9.652  0.4458 -0.5455  0.1539
   11CHL1    C9  777   2.009   1.442   9.617  0.5105  0.0350 -0.3029
   11CHL1    H9  778   2.104   1.483   9.659  0.0565  0.0442  0.7175
   11CHL1   C10  779   1.911   1.434   9.737  0.0220 -0.8695  0.5013
   11CHL1   C19  780   1.790   1.346   9.712  0.3973  0.0761 -0.5410
   11CHL1  H19A  781   1.758   1.347   9.605 -3.1452 -0.6998  0.4428
   11CHL1  H19B  782   1.816   1.238   9.711 -0.5720 -0.1622 -1.3912
   11CHL1  H19C  783   1.712   1.358   9.789 -0.1691 -0.9637 -0.9422
   11CHL1    C1  784   1.984   1.361   9.856  0.1545 -0.0824 -0.0614
   11CHL1   H1A  785   1.981   1.252   9.835 -0.4259 -0.0343 -0.2539
   11CHL1   H1B  786   2.083   1.407   9.872  1.1095 -2.4218  1.0249
   11CHL1    C2  787   1.908   1.375   9.990  0.0009  0.3145  0.7502
   11CHL1   H2A  788   1.958   1.319  10.072 -0.7595 -1.6230 -0.0937
   11CHL1   H2B  789   1.810   1.323   9.980 -0.3000  0.4054  2.8555
   11CHL1   C20  790   2.161   1.317   9.099  0.6499 -0.5109 -0.2215
   11CHL1   H20  791   2.068   1.264   9.070  0.5804 -1.3403  1.4756
   11CHL1   C21  792   2.243   1.195   9.156  0.0521  1.2803 -0.3514
   11CHL1  H21A  793   2.276   1.130   9.072  0.4590 -1.2294  1.6964
   11CHL1  H21B  794   2.178   1.128   9.216  0.6306  1.2709  0.2702
   11CHL1  H21C  795   2.333   1.231   9.209 -0.1843  2.7518 -0.9216
   11CHL1   C22  796   2.217   1.367   8.960  0.1252 -0.0991  0.1596
   11CHL1  H22A  797   2.170   1.455   8.911  0.5640 -0.4645 -0.9364
   11CHL1  H22B  798   2.326   1.387   8.970 -0.1492  1.7911 -0.3828
   11CHL1   C23  799   2.212   1.255   8.861 -0.0602 -1.2138 -1.0497
   11CHL1  H23A  800   2.302   1.191   8.871  1.4644  1.0474  0.0802
   11CHL1  H23B  801   2.121   1.194   8.878 -0.0341 -0.7556  0.8564
   11CHL1   C24  802   2.194   1.312   8.721  0.3921  0.0553  0.0747
   11CHL1  H24A  803   2.097   1.367   8.718  1.0394  1.1342 -2.1950
   11CHL1  H24B  804   2.284   1.375   8.703  0.4528 -0.4376 -1.4017
   11CHL1   C25  805   2.179   1.206   8.621 -0.3996 -0.0839  0.2812
   11CHL1   H25  806   2.126   1.113   8.650  1.8763 -2.1067 -1.7701
   11CHL1   C26  807   2.115   1.258   8.493 -0.0676 -0.0398 -0.3240
   11CHL1  H26A  808   2.094   1.184   8.413  1.9651 -1.8064  0.7098
   11CHL1  H26B  809   2.018   1.305   8.518  0.5322  0.5770  0.9137
   11CHL1  H26C  810   2.177   1.344   8.459 -1.9007  2.2365  1.9297
   11CHL1   C27  811   2.315   1.144   8.586  0.3924 -0.1903 -0.0039
   11CHL1  H27A  812   2.377   1.217   8.529  2.2511 -2.2789 -0.7235
   11CHL1  H27B  813   2.362   1.111   8.682 -0.5656 -1.3783  0.0679
   11CHL1  H27C  814   2.314   1.052   8.524  0.5209 -0.6569  0.6732
   12CHL1    C3  815   5.105   4.747  10.260 -0.1032  0.1730  0.6254
   12CHL1    H3  816   5.120   4.856  10.278 -2.0964  0.4883  0.4843
   12CHL1    O3  817   5.169   4.676  10.361  0.4378 -0.5291 -0.3195
   12CHL1   H3'  818   5.128   4.722  10.435  0.3152 -0.3870 -0.4757
   12CHL1    C4  819   4.956   4.718  10.261  0.0738 -0.5297 -0.1307
   12CHL1   H4A  820   4.956   4.607  10.254 -1.1738 -0.6869  1.9191
   12CHL1   H4B  821   4.919   4.761  10.357  0.5213  1.5904 -0.8919
   12CHL1    C5  822   4.893   4.790  10.144 -0.1959 -0.4331  0.3854
   12CHL1    C6  823   4.808   4.891  10.164  0.2368 -0.0573 -0.3461
   12CHL1    H6  824   4.760   4.927  10.256 -0.5086  0.3449 -0.8836
   12CHL1    C7  825   4.756   4.976  10.047  0.4719 -0.2935 -0.6822
   12CHL1   H7A  826   4.650   4.992  10.075  1.2503  0.0979  2.2343
   12CHL1   H7B  827   4.800   5.077  10.062  0.3904 -0.5498  1.4326
   12CHL1    C8  828   4.776   4.923   9.907 -0.7715  0.3587 -0.1940
   12CHL1    H8  829   4.701   4.841   9.900 -1.7029  1.3180 -1.7515
   12CHL1   C14  830   4.738   5.022   9.801  0.2630  0.3096  0.3078
   12CHL1   H14  831   4.810   5.107   9.805  0.8190 -0.1544  0.1254
   12CHL1   C15  832   4.612   5.096   9.809 -0.2086 -0.9168  0.1835
   12CHL1  H15A  833   4.530   5.033   9.851 -1.0598 -1.6803 -2.5270
   12CHL1  H15B  834   4.623   5.184   9.876  0.7801 -0.3086 -0.7674
   12CHL1   C16  835   4.584   5.156   9.672 -0.3767  0.7020  0.5466
   12CHL1  H16A  836   4.477   5.143   9.645 -0.8071 -0.1913  2.6210
   12CHL1  H16B  837   4.600   5.266   9.662  0.1436  0.8676  2.9808
   12CHL1   C17  838   4.689   5.085   9.574 -0.0310 -0.9820 -0.2319
   12CHL1   H17  839   4.763   5.167   9.561  0.2377 -1.1167  0.4408
   12CHL1   C13  840   4.754   4.968   9.659  0.5325 -0.4094  0.1417
   12CHL1   C18  841   4.672   4.837   9.643 -0.1145 -0.8546 -0.7357
   12CHL1  H18A  842   4.564   4.855   9.663  0.4804  2.6210 -0.2395
   12CHL1  H18B  843   4.674   4.808   9.536  2.1666  0.3997 -1.0532
   12CHL1  H18C  844   4.711   4.748   9.697  1.7001 -0.9710 -2.1880
   12CHL1   C12  845   4.902   4.942   9.633 -0.3834  0.1850 -1.3024
   12CHL1  H12A  846   4.924   4.899   9.533  2.3550  2.4021 -1.7301
   12CHL1  H12B  847   4.951   5.040   9.649 -2.0333  0.9369 -0.7311
   12CHL1   C11  848   4.954   4.844   9.750 -0.0323 -0.5653 -0.0752
   12CHL1  H11A  849   4.924   4.740   9.723 -1.9048  0.4349 -1.9631
   12CHL1  H11B  850   5.063   4.840   9.729  0.4787  0.2432  2.2070
   12CHL1    C9  851   4.910   4.879   9.889 -0.0302 -0.5920 -0.1244
   12CHL1    H9  852   4.962   4.975   9.910 -0.5140 -0.4937  0.6124
   12CHL1   C10  853   4.957   4.773  10.001 -0.0811 -0.2159  0.0992
   12CHL1   C19  854   4.913   4.627   9.963 -0.6148 -0.6712  0.5781
   12CHL1  H19A  855   4.929   4.549  10.041 -1.9492  0.2537  1.7974
   12CHL1  H19B  856   4.809   4.645   9.928 -0.3092 -0.3964 -0.1924
   12CHL1  H19C  857   4.981   4.601   9.879 -0.8776  0.1127  0.1149
   12CHL1    C1  858   5.117   4.783  10.009 -0.2804 -0.1362  0.5912
   12CHL1   H1A  859   5.161   4.735   9.919 -2.6005 -1.0576 -0.0866
   12CHL1   H1B  860   5.144   4.891  10.016  0.0339 -0.2042  0.4128
   12CHL1    C2  861   5.176   4.711  10.129  0.0993 -0.0481  0.5633
   12CHL1   H2A  862   5.286   4.723  10.137  0.1340 -0.7744  1.2138
   12CHL1   H2B  863   5.160   4.605  10.099 -1.2259 -0.4474  2.5164
   12CHL1   C20  864   4.636   5.041   9.440 -0.4650  0.6565 -0.8038
   12CHL1   H20  865   4.561   4.960   9.438 -0.0241  0.2424 -0.6407
   12CHL1   C21  866   4.750   4.991   9.341 -0.0571 -0.4723 -0.2814
   12CHL1  H21A  867   4.727   5.005   9.234  0.0225  2.9630  0.0809
   12CHL1  H21B  868   4.775   4.885   9.361 -1.9437 -1.1588 -1.5107
   12CHL1  H21C  869   4.840   5.055   9.358 -0.4598  0.0243  0.0004
   12CHL1   C22  870   4.557   5.147   9.358 -0.3577  0.8489  0.5210
   12CHL1  H22A  871   4.541   5.105   9.256 -1.9783  2.5849  0.0464
   12CHL1  H22B  872   4.454   5.168   9.393 -1.9226 -2.4735 -1.8133
   12CHL1   C23  873   4.629   5.277   9.328 -0.0103  0.4594 -0.3294
   12CHL1  H23A  874   4.640   5.321   9.429 -3.5283  3.2260 -1.0400
   12CHL1  H23B  875   4.732   5.274   9.286 -0.9240 -1.1874 -2.5603
   12CHL1   C24  876   4.549   5.379   9.237 -0.2680  0.1987 -0.2205
   12CHL1  H24A  877   4.446   5.384   9.277 -0.0869 -1.3300  0.4947
   12CHL1  H24B  878   4.597   5.479   9.242  1.4304 -0.6062  0.0274
   12CHL1   C25  879   4.527   5.326   9.090  0.4383 -0.4797 -0.4836
   12CHL1   H25  880   4.496   5.219   9.092  0.5639 -0.4973  1.4198
   12CHL1   C26  881   4.419   5.400   9.012  0.1420 -0.0361  0.2995
   12CHL1  H26A  882   4.321   5.410   9.063  0.5151 -1.3945  1.3180
   12CHL1  H26B  883   4.449   5.500   8.973  1.3543 -0.3884  0.3048
   12CHL1  H26C  884   4.396   5.346   8.918  0.5307 -1.9544  1.2740
   12CHL1   C27  885   4.657   5.318   9.009  0.0893 -0.3198  0.1463
   12CHL1  H27A  886   4.696   5.421   8.994  2.4508 -1.2551 -0.3751
   12CHL1  H27B  887   4.727   5.254   9.068 -1.8330 -2.9267 -0.3310
   12CHL1  H27C  888   4.645   5.273   8.909 -2.9059  0.5278  0.0868
   13CHL1    C3  889   3.857   0.087   9.906 -0.6275  0.1779  0.0237
   13CHL1    H3  890   3.913  -0.004   9.877 -0.6681  0.1558  0.0153
   13CHL1    O3  891   3.822   0.076  10.044  0.6583  0.5521 -0.3294
   13CHL1   H3'  892   3.904   0.068  10.093 -0.7405 -1.8739  1.7228
   13CHL1    C4  893   3.947   0.205   9.884 -0.1033  0.4442 -0.1010
   13CHL1   H4A  894   3.900   0.295   9.928 -0.8201 -0.5400  1.1737
   13CHL1   H4B  895   4.038   0.191   9.946 -1.2703 -2.1560  1.1000
   13CHL1    C5  896   3.988   0.232   9.743 -0.7575 -0.4565  0.3134
   13CHL1    C6  897   4.115   0.237   9.702  0.6362  0.1145  0.5524
   13CHL1    H6  898   4.191   0.224   9.779 -0.2320  2.7690  1.9476
   13CHL1    C7  899   4.159   0.256   9.561  0.0415 -0.2290  0.2144
   13CHL1   H7A  900   4.236   0.335   9.554  1.5533 -1.7483 -0.8500
   13CHL1   H7B  901   4.190   0.164   9.507  0.1272  1.6442 -3.0663
   13CHL1    C8  902   4.052   0.305   9.462  0.3602 -0.3181  0.1979
   13CHL1    H8  903   4.024   0.411   9.478  1.7525 -0.0941  1.2461
   13CHL1   C14  904   4.095   0.280   9.316 -0.3485  0.3602 -0.7722
   13CHL1   H14  905   4.082   0.170   9.313 -1.4085  0.4715 -0.5953
   13CHL1   C15  906   4.231   0.312   9.264  0.1932 -0.0358 -0.7898
   13CHL1  H15A  907   4.255   0.416   9.297  2.9179 -0.6828 -0.5898
   13CHL1  H15B  908   4.306   0.236   9.297  0.0399  0.7162  1.3625
   13CHL1   C16  909   4.209   0.289   9.108 -0.5899  0.1085 -0.3019
   13CHL1  H16A  910   4.269   0.370   9.060  0.8072 -0.3225  0.6763
   13CHL1  H16B  911   4.249   0.189   9.083  0.7576  1.1232 -2.3896
   13CHL1   C17  912   4.061   0.298   9.079 -0.1879 -0.3786 -0.0670
   13CHL1   H17  913   4.029   0.195   9.054  1.8453 -0.7649 -1.2408
   13CHL1   C13  914   3.988   0.332   9.220 -0.6797  0.2910  0.3444
   13CHL1   C18  915   3.981   0.483   9.240  0.0038  0.1410 -0.0318
   13CHL1  H18A  916   3.946   0.514   9.341 -0.4089 -2.1077  0.5479
   13CHL1  H18B  917   4.077   0.532   9.212  0.5897 -1.4813 -0.9244
   13CHL1  H18C  918   3.906   0.532   9.175 -1.1625 -0.3258  0.9318
   13CHL1   C12  919   3.852   0.261   9.246  0.4023 -0.2022 -0.4341
   13CHL1  H12A  920   3.775   0.293   9.173  0.4922  0.2278 -0.3430
   13CHL1  H12B  921   3.873   0.154   9.228  2.6522  0.1901 -0.3311
   13CHL1   C11  922   3.800   0.270   9.388 -0.1552  0.2080  0.1342
   13CHL1  H11A  923   3.762   0.372   9.407 -2.1929 -0.1046 -2.0736
   13CHL1  H11B  924   3.718   0.198   9.412  0.6661 -0.3578  1.3162
   13CHL1    C9  925   3.914   0.235   9.490 -0.1255  0.0262 -0.2188
   13CHL1    H9  926   3.939   0.127   9.482 -1.6055 -0.5050  2.0020
   13CHL1   C10  927   3.868   0.246   9.641  0.0239 -0.3049  0.5593
   13CHL1   C19  928   3.814   0.388   9.670 -0.5367 -0.5731  0.2826
   13CHL1  H19A  929   3.896   0.463   9.676 -0.3617 -0.8124  0.9078
   13CHL1  H19B  930   3.736   0.422   9.599 -0.9008 -1.3587  0.3015
   13CHL1  H19C  931   3.764   0.384   9.769 -2.1674 -0.1324 -0.4988
   13CHL1    C1  932   3.771   0.133   9.671  0.5868  0.2440 -0.0118
   13CHL1   H1A  933   3.684   0.176   9.616  1.3991  0.1898 -1.3585
   13CHL1   H1B  934   3.807   0.037   9.628  3.7179  1.6197 -0.5943
   13CHL1    C2  935   3.731   0.095   9.814  0.3446 -0.6553  0.2401
   13CHL1   H2A  936   3.661   0.009   9.818 -2.4656  1.5960  0.9933
   13CHL1   H2B  937   3.670   0.182   9.848  2.0256  0.9976 -0.8357
   13CHL1   C20  938   4.027   0.378   8.960  0.4572  0.7764  0.1956
   13CHL1   H20  939   4.068   0.481   8.972  0.5859  0.4497  2.7783
   13CHL1   C21  940   3.872   0.380   8.932  0.4100 -0.2812 -0.1030
   13CHL1  H21A  941   3.827   0.278   8.926 -0.9630  0.2990  0.3154
   13CHL1  H21B  942   3.852   0.424   8.832  0.8586 -0.4970 -0.2919
   13CHL1  H21C  943   3.820   0.436   9.012  2.3318  0.6009  0.5551
   13CHL1   C22  944   4.096   0.331   8.819 -0.7136 -0.1232 -0.3053
   13CHL1  H22A  945   4.200   0.295   8.832 -1.3749 -2.1995 -0.5769
   13CHL1  H22B  946   4.044   0.235   8.799 -0.0555 -0.3301 -1.0483
   13CHL1   C23  947   4.095   0.430   8.705 -0.2848  0.2410 -0.2797
   13CHL1  H23A  948   3.990   0.453   8.677  0.3642  0.7717 -2.4148
   13CHL1  H23B  949   4.150   0.523   8.732  0.7701 -0.5242  0.2184
   13CHL1   C24  950   4.167   0.361   8.589 -0.0134 -0.3810  0.6727
   13CHL1  H24A  951   4.267   0.325   8.621  0.5581 -0.8913 -1.6033
   13CHL1  H24B  952   4.120   0.264   8.565  0.6670 -0.2318 -1.3601
   13CHL1   C25  953   4.195   0.441   8.457  0.4922 -0.1486 -0.1224
   13CHL1   H25  954   4.234   0.543   8.477  1.2067 -0.6821  1.2389
   13CHL1   C26  955   4.307   0.385   8.369  0.4073 -0.4904  0.0081
   13CHL1  H26A  956   4.407   0.404   8.414 -0.5434  1.5965  1.3103
   13CHL1  H26B  957   4.302   0.275   8.351  0.2748 -0.2512 -1.4922
   13CHL1  H26C  958   4.306   0.449   8.278  1.2620  3.9264  2.9735
   13CHL1   C27  959   4.068   0.459   8.375 -0.2489  0.3802  0.0254
   13CHL1  H27A  960   4.091   0.484   8.269  1.3112 -1.1538 -0.0281
   13CHL1  H27B  961   4.029   0.356   8.357  2.2095 -0.8327  1.4475
   13CHL1  H27C  962   3.985   0.520   8.414 -0.3877 -0.2418  0.7179
   14CHL1    C3  963   3.062   2.744  10.281  0.0730 -0.3987 -0.3930
   14CHL1    H3  964   3.153   2.681  10.276  0.4308  0.1780 -1.3584
   14CHL1    O3  965   2.997   2.723  10.401 -0.5497 -0.1902 -0.1652
   14CHL1   H3'  966   3.063   2.761  10.459  1.3964  1.0302 -3.0536
   14CHL1    C4  967   3.105   2.893  10.261  1.0318  0.2293 -0.2492
   14CHL1   H4A  968   3.018   2.958  10.285  1.4175  1.2275 -1.5019
   14CHL1   H4B  969   3.178   2.917  10.342  0.2770  1.4536  0.0977
   14CHL1    C5  970   3.155   2.915  10.120 -0.1100 -0.1755 -0.0102
   14CHL1    C6  971   3.272   2.968  10.084  0.0937 -0.5090 -0.1390
   14CHL1    H6  972   3.344   2.990  10.164 -1.6124 -0.0790  1.2969
   14CHL1    C7  973   3.324   3.004   9.948 -0.8331  0.7068 -0.0775
   14CHL1   H7A  974   3.376   3.102   9.936 -0.5298  0.4019 -1.3315
   14CHL1   H7B  975   3.401   2.930   9.916 -2.4658 -0.8241 -0.5303
   14CHL1    C8  976   3.211   3.013   9.845 -0.0632  0.2394 -0.6925
   14CHL1    H8  977   3.148   3.100   9.872 -1.1393 -0.8015  0.2089
   14CHL1   C14  978   3.260   3.009   9.703 -0.6248 -0.1138 -0.1002
   14CHL1   H14  979   3.315   2.914   9.683 -0.3586 -0.4111  1.9419
   14CHL1   C15  980   3.375   3.106   9.659  0.3784 -0.0281 -0.1300
   14CHL1  H15A  981   3.340   3.210   9.674 -0.6092 -0.5580  1.3727
   14CHL1  H15B  982   3.472   3.079   9.707  0.4177  0.7859  0.2452
   14CHL1   C16  983   3.380   3.084   9.508  0.1363  0.4252  0.1273
   14CHL1  H16A  984   3.386   3.188   9.470  1.1790 -0.0231 -0.9548
   14CHL1  H16B  985   3.464   3.016   9.480 -2.2735 -4.1668  3.3521
   14CHL1   C17  986   3.238   3.021   9.469 -0.0108 -0.7415  0.4325
   14CHL1   H17  987   3.272   2.916   9.456  2.7243 -0.0676  1.5891
   14CHL1   C13  988   3.153   3.020   9.588  0.5613  0.6417 -0.4155
   14CHL1   C18  989   3.063   3.143   9.602 -0.5386 -0.6712 -0.3790
   14CHL1  H18A  990   2.967   3.124   9.548 -0.6894 -2.8575  0.5924
   14CHL1  H18B  991   3.032   3.150   9.708  2.2624 -1.6563  0.5360
   14CHL1  H18C  992   3.101   3.242   9.570 -0.2251 -0.6021  0.2076
   14CHL1   C12  993   3.069   2.895   9.607 -0.7541  0.4085  0.4444
   14CHL1  H12A  994   2.991   2.882   9.529  1.5506 -0.0141 -1.8930
   14CHL1  H12B  995   3.133   2.806   9.589 -0.8940  0.3374  0.2956
   14CHL1   C11  996   3.012   2.878   9.749  0.2674  0.7501 -0.4880
   14CHL1  H11A  997   2.935   2.958   9.758 -1.2289 -0.8432  1.4417
   14CHL1  H11B  998   2.964   2.778   9.752  0.4747  0.6908  1.4461
   14CHL1    C9  999   3.117   2.891   9.861  0.6111 -0.4105  0.0192
   14CHL1    H9 1000   3.183   2.805   9.841  0.5332 -0.0961 -1.6869
   14CHL1   C10 1001   3.059   2.882  10.004 -0.2555  0.2931  0.2897
   14CHL1   C19 1002   2.936   2.974  10.007 -0.0798 -0.0676  0.7026
   14CHL1  H19A 1003   2.851   2.942   9.943  0.7371  1.2120 -1.0531
   14CHL1  H19B 1004   2.895   2.987  10.110  0.3341  2.2694  0.6106
   14CHL1  H19C 1005   2.963   3.074   9.965 -0.7828  0.0112  0.4345
   14CHL1    C1 1006   3.019   2.731  10.027 -0.5503  0.1255 -0.0731
   14CHL1   H1A 1007   2.936   2.703   9.960 -0.1637  1.0245 -0.9443
   14CHL1   H1B 1008   3.111   2.672  10.008  1.1016  3.0090 -1.3172
   14CHL1    C2 1009   2.966   2.704  10.170  0.0473 -0.2695  0.0633
   14CHL1   H2A 1010   2.949   2.595  10.180  0.1325 -0.3430 -0.5476
   14CHL1   H2B 1011   2.869   2.758  10.177  0.4572  0.5525 -0.4872
   14CHL1   C20 1012   3.186   3.075   9.328 -0.3514 -0.2688 -0.0244
   14CHL1   H20 1013   3.153   3.181   9.336  0.1786  0.2640 -3.7223
   14CHL1   C21 1014   3.068   2.987   9.282 -0.7628 -0.4532 -0.3537
   14CHL1  H21A 1015   3.031   3.015   9.181 -0.9775  1.3544  0.1998
   14CHL1  H21B 1016   2.976   2.991   9.344 -0.1922  1.4153  0.4197
   14CHL1  H21C 1017   3.108   2.883   9.280  0.2153 -0.1486  1.4786
   14CHL1   C22 1018   3.294   3.094   9.213 -0.9536  0.2539 -0.1360
   14CHL1  H22A 1019   3.247   3.138   9.123  0.8704  1.3500 -0.5750
   14CHL1  H22B 1020   3.370   3.167   9.250 -0.3716 -1.3171  1.8708
   14CHL1   C23 1021   3.362   2.965   9.155 -0.7760 -0.0175 -0.8437
   14CHL1  H23A 1022   3.422   2.932   9.243 -1.1831  1.5962  0.0448
   14CHL1  H23B 1023   3.281   2.891   9.137  0.9641 -1.5676 -2.5806
   14CHL1   C24 1024   3.449   2.982   9.025 -0.2468 -0.1790 -0.1173
   14CHL1  H24A 1025   3.383   3.021   8.946  1.5859  0.2591 -1.4753
   14CHL1  H24B 1026   3.531   3.054   9.047  0.1866 -0.4032 -0.9839
   14CHL1   C25 1027   3.510   2.852   8.975  0.4157  0.3600 -0.1073
   14CHL1   H25 1028   3.560   2.795   9.056 -0.5097  3.3065  2.6377
   14CHL1   C26 1029   3.400   2.774   8.897 -0.2086  0.0081 -0.8019
   14CHL1  H26A 1030   3.321   2.757   8.973 -0.0243  1.2248 -0.3342
   14CHL1  H26B 1031   3.348   2.835   8.821  0.7810 -0.5719 -1.9653
   14CHL1  H26C 1032   3.424   2.669   8.867 -1.4998 -0.3857 -0.4709
   14CHL1   C27 1033   3.614   2.886   8.867  0.0296 -0.1796 -0.8917
   14CHL1  H27A 1034   3.656   2.789   8.830 -0.1948 -0.8556  0.6212
   14CHL1  H27B 1035   3.571   2.934   8.776  3.6306 -0.2843 -2.7642
   14CHL1  H27C 1036   3.703   2.934   8.912  0.3053 -1.0514 -0.4949
   15CHL1    C3 1037   3.808   1.848  10.174 -0.3364  0.3921 -0.4082
   15CHL1    H3 1038   3.778   1.956  10.180  3.2922  1.5406 -1.9154
   15CHL1    O3 1039   3.798   1.785  10.303  1.0222 -0.8843 -0.1200
   15CHL1   H3' 1040   3.710   1.812  10.330  1.0284 -0.8886 -0.0964
   15CHL1    C4 1041   3.712   1.773  10.083  0.3088  0.2705  0.9759
   15CHL1   H4A 1042   3.752   1.669  10.078 -1.0641 -0.1267 -4.4228
   15CHL1   H4B 1043   3.610   1.774  10.127  0.7242 -0.4618  1.9816
   15CHL1    C5 1044   3.706   1.831   9.946 -0.1276 -0.6087 -0.4518
   15CHL1    C6 1045   3.595   1.892   9.902 -0.2335 -0.5138  0.4249
   15CHL1    H6 1046   3.512   1.902   9.974 -3.4041  0.6658 -3.2398
   15CHL1    C7 1047   3.589   1.957   9.769  0.3488  0.3353  1.0783
   15CHL1   H7A 1048   3.496   1.922   9.720  1.1411 -2.3837  1.4730
   15CHL1   H7B 1049   3.581   2.067   9.783  0.5945  0.6271 -0.8690
   15CHL1    C8 1050   3.714   1.933   9.675 -0.0615  0.7393 -0.7810
   15CHL1    H8 1051   3.702   1.828   9.640  2.1725  0.3662 -0.5117
   15CHL1   C14 1052   3.717   2.025   9.548  0.4291 -0.1460 -0.9788
   15CHL1   H14 1053   3.735   2.126   9.590  1.8126  0.8790 -3.8672
   15CHL1   C15 1054   3.588   2.038   9.458  0.5325  0.5847 -0.1980
   15CHL1  H15A 1055   3.540   1.939   9.446  0.5964  0.5004  0.2180
   15CHL1  H15B 1056   3.505   2.102   9.497  0.9046  0.9100  0.0608
   15CHL1   C16 1057   3.640   2.083   9.327  0.4148  0.7018  0.1572
   15CHL1  H16A 1058   3.619   2.003   9.253  2.6444 -1.6513  1.9641
   15CHL1  H16B 1059   3.598   2.181   9.295 -3.2229 -0.4812  1.0739
   15CHL1   C17 1060   3.794   2.100   9.339  0.2993 -0.0962 -0.0119
   15CHL1   H17 1061   3.811   2.202   9.379  0.6699 -0.3576  0.5071
   15CHL1   C13 1062   3.833   1.993   9.453  0.0012 -0.4400 -0.1200
   15CHL1   C18 1063   3.817   1.842   9.403 -0.6079  0.2194  0.2597
   15CHL1  H18A 1064   3.816   1.770   9.488 -0.4337 -0.1372 -0.0373
   15CHL1  H18B 1065   3.719   1.833   9.352  0.6796  2.6504 -2.8400
   15CHL1  H18C 1066   3.901   1.814   9.335 -0.2273 -1.4103  1.3579
   15CHL1   C12 1067   3.963   2.015   9.535 -0.1465  0.5248 -0.2940
   15CHL1  H12A 1068   4.053   1.993   9.475  0.1432 -2.6329  1.2324
   15CHL1  H12B 1069   3.966   2.120   9.573  0.1291 -0.3039  2.0586
   15CHL1   C11 1070   3.964   1.931   9.673  0.0259 -0.7802 -0.3612
   15CHL1  H11A 1071   3.976   1.828   9.631 -1.8422 -0.9743 -0.4480
   15CHL1  H11B 1072   4.056   1.960   9.729  0.4305  0.8479 -1.8136
   15CHL1    C9 1073   3.841   1.943   9.761 -0.8321 -0.1578 -0.5883
   15CHL1    H9 1074   3.845   2.049   9.796  2.5676  0.5777 -3.0045
   15CHL1   C10 1075   3.842   1.837   9.876  0.1458  0.7764 -0.0028
   15CHL1   C19 1076   3.861   1.690   9.817 -0.1997 -0.0206  0.2859
   15CHL1  H19A 1077   3.851   1.628   9.908 -0.5336 -0.6720 -0.1969
   15CHL1  H19B 1078   3.774   1.672   9.751 -1.0859  0.5316  1.2702
   15CHL1  H19C 1079   3.958   1.676   9.765 -0.2709 -1.0143  0.4125
   15CHL1    C1 1080   3.954   1.873   9.976 -0.7691 -0.6718  0.6294
   15CHL1   H1A 1081   4.052   1.834   9.941  0.2243  1.6573  0.7714
   15CHL1   H1B 1082   3.961   1.983   9.991 -0.0991 -0.8948  2.0151
   15CHL1    C2 1083   3.947   1.826  10.122  0.5278 -0.4119 -0.6302
   15CHL1   H2A 1084   4.033   1.869  10.179 -0.0946  0.6963 -0.5239
   15CHL1   H2B 1085   3.976   1.719  10.120 -0.5322 -0.7270  0.4005
   15CHL1   C20 1086   3.865   2.098   9.203 -0.4998  0.0146  0.6111
   15CHL1   H20 1087   3.878   1.994   9.167  1.1418  0.9926 -1.7330
   15CHL1   C21 1088   4.004   2.174   9.221 -0.9602  0.1087 -0.7438
   15CHL1  H21A 1089   4.079   2.116   9.279 -2.1182 -0.6021  0.0696
   15CHL1  H21B 1090   3.992   2.280   9.254 -1.9817  0.9893 -3.7523
   15CHL1  H21C 1091   4.052   2.189   9.122 -0.7868  0.5747 -0.5928
   15CHL1   C22 1092   3.794   2.169   9.077  1.1400  0.3474  0.2236
   15CHL1  H22A 1093   3.860   2.166   8.988 -0.6816  2.2515 -1.2341
   15CHL1  H22B 1094   3.711   2.099   9.054  0.2867  1.4250  0.0216
   15CHL1   C23 1095   3.733   2.314   9.102  0.6712 -0.3186  0.2485
   15CHL1  H23A 1096   3.705   2.329   9.209 -2.2098 -0.5306 -0.4450
   15CHL1  H23B 1097   3.809   2.394   9.087 -1.0044  1.1329 -0.7525
   15CHL1   C24 1098   3.595   2.335   9.039  0.0178  0.2850 -0.0047
   15CHL1  H24A 1099   3.533   2.253   9.082 -1.0933 -0.3692 -2.7417
   15CHL1  H24B 1100   3.545   2.433   9.053 -2.5051 -1.1076  1.0016
   15CHL1   C25 1101   3.590   2.316   8.884 -0.0221  0.4165 -0.1905
   15CHL1   H25 1102   3.636   2.219   8.856  2.0516  1.0111  1.0479
   15CHL1   C26 1103   3.440   2.317   8.845  0.6471  0.2231  0.2794
   15CHL1  H26A 1104   3.399   2.416   8.873 -1.5994 -0.7092  0.4317
   15CHL1  H26B 1105   3.420   2.316   8.735 -0.4999 -1.4150  0.4712
   15CHL1  H26C 1106   3.380   2.237   8.894  0.1612  0.1676 -0.3826
   15CHL1   C27 1107   3.669   2.431   8.826 -0.2261  0.0920 -0.6708
   15CHL1  H27A 1108   3.677   2.403   8.719  1.6940 -1.8005 -0.0650
   15CHL1  H27B 1109   3.624   2.531   8.841 -0.3912 -0.0576 -0.1551
   15CHL1  H27C 1110   3.772   2.441   8.867 -1.5287  1.8424  2.2993
   16CHL1    C3 1111   4.270   2.596  10.226 -0.1855 -0.0879 -0.1912
   16CHL1    H3 1112   4.293   2.501  10.173 -1.5956 -0.8038  0.4393
   16CHL1    O3 1113   4.250   2.559  10.363  0.1841  0.3291 -0.1888
   16CHL1   H3' 1114   4.155   2.548  10.375  0.2474  0.0041  0.0112
   16CHL1    C4 1115   4.389   2.690  10.213 -0.1024 -0.2326  0.0716
   16CHL1   H4A 1116   4.392   2.777  10.282  0.8087 -1.3778  1.5017
   16CHL1   H4B 1117   4.471   2.628  10.254  0.9665  1.0727 -0.0612
   16CHL1    C5 1118   4.411   2.738  10.064  0.7255  0.5507 -0.4815
   16CHL1    C6 1119   4.526   2.725  10.009 -0.5139  0.1901 -0.4046
   16CHL1    H6 1120   4.612   2.686  10.065 -2.4626 -4.0631 -0.1698
   16CHL1    C7 1121   4.552   2.765   9.868 -0.3034 -0.4616 -0.6295
   16CHL1   H7A 1122   4.651   2.813   9.856 -0.9251  1.0005 -0.0913
   16CHL1   H7B 1123   4.549   2.666   9.818  0.7353  0.8354 -3.3215
   16CHL1    C8 1124   4.458   2.861   9.807 -0.0070  0.2594 -0.3734
   16CHL1    H8 1125   4.462   2.963   9.851  0.0818 -0.5268  1.4737
   16CHL1   C14 1126   4.477   2.870   9.657  0.2966 -0.0211 -0.5476
   16CHL1   H14 1127   4.463   2.765   9.625  2.0582 -1.3808  2.8863
   16CHL1   C15 1128   4.612   2.913   9.604  0.4806  0.3729 -0.3668
   16CHL1  H15A 1129   4.651   3.008   9.647  0.8588  0.9711 -1.9701
   16CHL1  H15B 1130   4.687   2.832   9.611  0.0722  0.0779  0.5714
   16CHL1   C16 1131   4.585   2.944   9.449  0.6742 -0.3481 -0.4502
   16CHL1  H16A 1132   4.623   3.045   9.421  0.3552  0.0037  0.3916
   16CHL1  H16B 1133   4.633   2.863   9.390  3.0610  0.4264  0.3745
   16CHL1   C17 1134   4.429   2.937   9.443  0.2045 -0.1227 -0.3174
   16CHL1   H17 1135   4.419   2.828   9.423  2.0422 -0.4673  0.5178
   16CHL1   C13 1136   4.367   2.948   9.587 -0.2821  0.0811 -0.4500
   16CHL1   C18 1137   4.363   3.099   9.621  0.1950  0.6541 -0.1642
   16CHL1  H18A 1138   4.276   3.161   9.589 -1.8548 -2.8311 -1.6713
   16CHL1  H18B 1139   4.351   3.117   9.730 -1.5229  2.0986 -0.5758
   16CHL1  H18C 1140   4.458   3.151   9.596 -0.0160  0.7231 -0.8285
   16CHL1   C12 1141   4.235   2.887   9.614 -0.3330 -0.5588  0.2495
   16CHL1  H12A 1142   4.153   2.944   9.565 -0.0849  0.4924  1.0651
   16CHL1  H12B 1143   4.233   2.783   9.575  0.8355 -1.2292  1.9314
   16CHL1   C11 1144   4.203   2.885   9.770 -0.1035 -0.0073  0.3259
   16CHL1  H11A 1145   4.202   2.994   9.794  3.1691  0.4665 -1.3637
   16CHL1  H11B 1146   4.112   2.822   9.772  0.7184 -1.2659 -1.1267
   16CHL1    C9 1147   4.319   2.811   9.847  0.7032 -0.2013 -0.2624
   16CHL1    H9 1148   4.313   2.712   9.797  0.9716 -0.7035  0.6891
   16CHL1   C10 1149   4.291   2.799   9.996 -0.1505  0.3536  0.0258
   16CHL1   C19 1150   4.261   2.940  10.058 -0.0758  0.4327 -0.2010
   16CHL1  H19A 1151   4.348   3.008  10.039  0.8929 -0.2315  1.7520
   16CHL1  H19B 1152   4.169   2.969  10.003 -0.3180 -0.4967 -0.2961
   16CHL1  H19C 1153   4.238   2.937  10.166 -1.3696  1.5624 -0.4298
   16CHL1    C1 1154   4.175   2.702  10.020 -0.2607 -0.2549 -0.4573
   16CHL1   H1A 1155   4.081   2.753   9.991 -1.2671 -1.7332  0.1340
   16CHL1   H1B 1156   4.184   2.602   9.973 -1.0826 -0.9280  0.7909
   16CHL1    C2 1157   4.144   2.656  10.168 -0.3171  0.4690  0.2683
   16CHL1   H2A 1158   4.066   2.576  10.162 -0.8940  1.1214 -1.4718
   16CHL1   H2B 1159   4.106   2.738  10.232  0.1904  2.1382 -1.5316
   16CHL1   C20 1160   4.357   3.005   9.335 -0.3104 -0.6413  0.0065
   16CHL1   H20 1161   4.258   3.019   9.383 -0.6013 -2.1004 -0.1324
   16CHL1   C21 1162   4.338   2.912   9.216 -0.2872  0.0291  0.2834
   16CHL1  H21A 1163   4.432   2.925   9.157 -0.2949  2.6759  0.8140
   16CHL1  H21B 1164   4.256   2.949   9.151 -1.4201 -2.6183  0.1376
   16CHL1  H21C 1165   4.311   2.811   9.255  0.9816  0.3792  2.1212
   16CHL1   C22 1166   4.407   3.153   9.299 -0.3083 -0.0720 -0.1296
   16CHL1  H22A 1167   4.396   3.227   9.381  1.9399 -2.4722  2.4854
   16CHL1  H22B 1168   4.514   3.146   9.271  0.2336 -0.4955  1.9232
   16CHL1   C23 1169   4.335   3.212   9.177 -0.1588 -0.2961 -0.9292
   16CHL1  H23A 1170   4.366   3.149   9.091  1.1763  1.1163 -1.4996
   16CHL1  H23B 1171   4.224   3.206   9.188  0.1147 -1.5587  1.3591
   16CHL1   C24 1172   4.369   3.360   9.144 -0.0397  0.1246  0.4818
   16CHL1  H24A 1173   4.480   3.368   9.142  0.2241 -3.1326 -1.4373
   16CHL1  H24B 1174   4.355   3.385   9.036 -1.7470  0.7450  0.8300
   16CHL1   C25 1175   4.297   3.469   9.229 -0.0148  0.2025  0.0782
   16CHL1   H25 1176   4.291   3.436   9.335 -1.1558 -1.0473 -0.3614
   16CHL1   C26 1177   4.365   3.607   9.221 -0.1367  0.0429  0.8446
   16CHL1  H26A 1178   4.456   3.599   9.283 -0.6023  0.5360  1.5940
   16CHL1  H26B 1179   4.400   3.626   9.117 -1.7907 -0.6566  0.1281
   16CHL1  H26C 1180   4.302   3.694   9.249 -1.3123 -0.4251 -0.2653
   16CHL1   C27 1181   4.153   3.475   9.168  0.2814  0.1960  0.2859
   16CHL1  H27A 1182   4.100   3.378   9.156  2.5027 -1.0934  0.6925
   16CHL1  H27B 1183   4.091   3.549   9.224  0.3350 -0.6560  1.4805
   16CHL1  H27C 1184   4.167   3.517   9.066  0.7396 -2.6355 -0.8481
   17CHL1    C3 1185   0.353   6.253  10.398 -0.8012 -1.1925 -0.4636
   17CHL1    H3 1186   0.371   6.362  10.397  2.4229 -1.6492  1.3732
   17CHL1    O3 1187   0.358   6.197  10.525  0.2182  0.7233 -0.1914
   17CHL1   H3' 1188   0.345   6.105  10.502  0.9026  0.7395 -0.6846
   17CHL1    C4 1189   0.220   6.211  10.346 -0.2824  0.3554 -0.2868
   17CHL1   H4A 1190   0.198   6.102  10.342 -1.8178  0.6999 -2.8302
   17CHL1   H4B 1191   0.139   6.256  10.407 -0.0525 -1.1733  1.1756
   17CHL1    C5 1192   0.207   6.257  10.205 -0.3763  0.3727 -0.4686
   17CHL1    C6 1193   0.113   6.348  10.167 -0.4959 -0.1222 -0.0694
   17CHL1    H6 1194   0.057   6.403  10.244 -0.8928 -1.7989  0.8788
   17CHL1    C7 1195   0.088   6.391  10.023 -0.2199  0.4555  0.4838
   17CHL1   H7A 1196  -0.018   6.392   9.990  0.0355  0.0924 -0.3571
   17CHL1   H7B 1197   0.135   6.491  10.006 -1.2801  0.9074  0.1852
   17CHL1    C8 1198   0.159   6.302   9.916 -0.2056 -0.0235  0.0888
   17CHL1    H8 1199   0.107   6.205   9.929 -2.0880  1.2295  2.1815
   17CHL1   C14 1200   0.163   6.357   9.776  0.1993  0.1298  0.1115
   17CHL1   H14 1201   0.219   6.453   9.768 -0.7615  0.7223  0.5377
   17CHL1   C15 1202   0.029   6.390   9.711  0.3165 -0.1209  0.1329
   17CHL1  H15A 1203  -0.052   6.314   9.717 -0.8172  0.8041 -2.5053
   17CHL1  H15B 1204  -0.010   6.491   9.734  0.1563 -0.0178 -0.5802
   17CHL1   C16 1205   0.070   6.404   9.558 -0.3563  0.6581  0.2552
   17CHL1  H16A 1206  -0.011   6.358   9.498  0.0485 -0.9893  0.9310
   17CHL1  H16B 1207   0.078   6.511   9.530  2.3409  0.4470  0.0393
   17CHL1   C17 1208   0.214   6.336   9.539 -0.1248  0.3482  0.1677
   17CHL1   H17 1209   0.287   6.419   9.551  1.0988 -0.7655  0.5540
   17CHL1   C13 1210   0.243   6.268   9.678 -0.3454  0.8567  0.6844
   17CHL1   C18 1211   0.176   6.134   9.664  0.5069 -0.2742  0.1943
   17CHL1  H18A 1212   0.157   6.092   9.765 -0.5723 -2.7957 -1.0228
   17CHL1  H18B 1213   0.081   6.132   9.607  0.2962 -0.5071  0.5521
   17CHL1  H18C 1214   0.248   6.061   9.620  0.9365  1.8266 -2.7407
   17CHL1   C12 1215   0.388   6.268   9.723  0.0962  0.4675 -0.0492
   17CHL1  H12A 1216   0.458   6.215   9.655  0.0810 -1.8382  1.6662
   17CHL1  H12B 1217   0.423   6.373   9.728 -1.0405  0.8458  0.0922
   17CHL1   C11 1218   0.394   6.205   9.863  0.4310 -0.5821 -0.8723
   17CHL1  H11A 1219   0.368   6.098   9.852 -3.7833  0.4743 -1.9034
   17CHL1  H11B 1220   0.495   6.208   9.910  0.3693 -0.2281 -0.7593
   17CHL1    C9 1221   0.306   6.270   9.965 -0.0697  0.1795  0.8939
   17CHL1    H9 1222   0.345   6.373   9.980 -3.0125  1.8499 -2.1770
   17CHL1   C10 1223   0.315   6.207  10.108  0.3600 -0.9992 -0.1985
   17CHL1   C19 1224   0.296   6.052  10.103  0.2100  0.2254 -0.1292
   17CHL1  H19A 1225   0.190   6.028  10.078  0.0152 -0.8614  1.6185
   17CHL1  H19B 1226   0.360   6.003  10.026  1.6109 -1.5590  2.0788
   17CHL1  H19C 1227   0.325   5.995  10.194 -2.1655 -1.3663 -0.3066
   17CHL1    C1 1228   0.460   6.228  10.165  0.0978  0.2062 -0.3652
   17CHL1   H1A 1229   0.530   6.160  10.113  1.8454  2.0030 -0.4274
   17CHL1   H1B 1230   0.492   6.331  10.139 -1.2399  0.6627 -0.2495
   17CHL1    C2 1231   0.469   6.190  10.315 -0.5416  0.1688  0.3094
   17CHL1   H2A 1232   0.560   6.237  10.357  0.0399 -0.1688 -0.5560
   17CHL1   H2B 1233   0.485   6.081  10.325 -1.9237 -0.5499 -3.9913
   17CHL1   C20 1234   0.233   6.263   9.409  0.8297  0.7708  0.3404
   17CHL1   H20 1235   0.160   6.179   9.407  0.0945  1.4154 -0.8584
   17CHL1   C21 1236   0.375   6.199   9.387  0.6286  0.1331  0.6826
   17CHL1  H21A 1237   0.408   6.115   9.450 -1.7395 -1.4619 -0.1512
   17CHL1  H21B 1238   0.453   6.277   9.402  1.0365 -0.0394 -0.4730
   17CHL1  H21C 1239   0.390   6.174   9.280  0.4171  1.9199  0.2096
   17CHL1   C22 1240   0.196   6.345   9.281  0.1582  0.2544  0.0994
   17CHL1  H22A 1241   0.192   6.262   9.207 -0.4808  0.0898  0.3151
   17CHL1  H22B 1242   0.091   6.381   9.280 -0.0467 -0.2821  1.6369
   17CHL1   C23 1243   0.276   6.475   9.246  0.5181  0.3741 -0.1451
   17CHL1  H23A 1244   0.253   6.553   9.321 -0.0847  2.4425 -2.4260
   17CHL1  H23B 1245   0.385   6.454   9.242  0.1942 -1.3568 -0.6590
   17CHL1   C24 1246   0.246   6.534   9.103  0.4706 -0.3498  0.0350
   17CHL1  H24A 1247   0.139   6.543   9.077  0.1677 -2.9155  0.3129
   17CHL1  H24B 1248   0.284   6.639   9.099  0.0403 -0.1739  0.4652
   17CHL1   C25 1249   0.303   6.449   8.988 -0.0372  0.6794  0.4510
   17CHL1   H25 1250   0.267   6.345   8.996 -2.6076  1.5829  1.3064
   17CHL1   C26 1251   0.243   6.492   8.855  0.4367 -0.3911  0.4419
   17CHL1  H26A 1252   0.132   6.498   8.859  0.2609 -0.8852 -2.4455
   17CHL1  H26B 1253   0.290   6.586   8.819 -1.4535  0.8682  1.1660
   17CHL1  H26C 1254   0.272   6.414   8.782  2.3216  0.0268  0.7125
   17CHL1   C27 1255   0.454   6.431   8.989  1.0675  0.8518 -0.7588
   17CHL1  H27A 1256   0.475   6.396   8.885  0.6864  3.1767 -1.6712
   17CHL1  H27B 1257   0.498   6.532   9.005 -0.2509  1.1427  1.1463
   17CHL1  H27C 1258   0.502   6.369   9.067 -0.9652 -0.0767 -0.2454
   18CHL1    C3 1259   6.054   5.212  10.262 -0.5100  0.2599 -0.4837
   18CHL1    H3 1260   5.964   5.148  10.271 -0.7846  0.4231 -2.0149
   18CHL1    O3 1261   6.091   5.262  10.387  0.1290  0.7850 -0.3267
   18CHL1   H3' 1262   6.088   5.358  10.383 -0.7671  0.7674 -0.1659
   18CHL1    C4 1263   6.181   5.137  10.200  0.6921  0.1106  0.2650
   18CHL1   H4A 1264   6.273   5.199  10.192  0.8822  0.0223  1.6011
   18CHL1   H4B 1265   6.202   5.052  10.268 -0.1790 -0.4959 -0.2232
   18CHL1    C5 1266   6.168   5.091  10.060 -0.3373  1.0810  0.6340
   18CHL1    C6 1267   6.187   4.959  10.032  0.1161  0.3473 -0.0482
   18CHL1    H6 1268   6.232   4.894  10.108 -0.5247 -1.7132 -1.3881
   18CHL1    C7 1269   6.173   4.903   9.886  0.0429 -0.8844 -0.2610
   18CHL1   H7A 1270   6.258   4.833   9.868 -0.3075 -1.5893  0.7265
   18CHL1   H7B 1271   6.084   4.836   9.880 -0.6631  0.0031  0.3340
   18CHL1    C8 1272   6.170   5.023   9.787 -0.2770  1.0286  0.9801
   18CHL1    H8 1273   6.269   5.072   9.771 -0.0389  1.5233  3.6235
   18CHL1   C14 1274   6.131   4.966   9.646 -0.2568 -0.0663 -0.0171
   18CHL1   H14 1275   6.029   4.928   9.671 -1.2606 -0.7830 -4.7011
   18CHL1   C15 1276   6.202   4.851   9.579  0.8173  0.4210 -0.2882
   18CHL1  H15A 1277   6.311   4.868   9.590  0.8897 -0.2990  0.1623
   18CHL1  H15B 1278   6.170   4.758   9.631  0.4723  1.1077  0.7573
   18CHL1   C16 1279   6.144   4.841   9.443 -0.0819  0.7775  0.0910
   18CHL1  H16A 1280   6.233   4.842   9.377 -0.6310  2.5981 -0.6566
   18CHL1  H16B 1281   6.086   4.749   9.424 -2.0758  2.2231 -1.0906
   18CHL1   C17 1282   6.054   4.968   9.421 -0.3045 -0.3442  0.1492
   18CHL1   H17 1283   5.948   4.942   9.441 -0.0393 -0.4744  1.4387
   18CHL1   C13 1284   6.101   5.068   9.531  0.4112 -0.2438 -0.4695
   18CHL1   C18 1285   6.242   5.119   9.490  0.1457 -0.0951  0.1725
   18CHL1  H18A 1286   6.285   5.166   9.581 -0.3770  1.5684 -0.4026
   18CHL1  H18B 1287   6.298   5.038   9.438  1.0572  0.3215  0.4947
   18CHL1  H18C 1288   6.227   5.202   9.418 -0.4418  0.4527  0.9192
   18CHL1   C12 1289   6.000   5.173   9.580  0.0839  0.1974 -0.1256
   18CHL1  H12A 1290   5.982   5.257   9.510  1.3758 -1.5479 -2.6342
   18CHL1  H12B 1291   5.903   5.125   9.602  0.0381 -0.3353 -1.4583
   18CHL1   C11 1292   6.051   5.238   9.710 -0.4402  0.2797 -0.1759
   18CHL1  H11A 1293   6.149   5.287   9.691 -0.5131  0.4798 -0.0325
   18CHL1  H11B 1294   5.983   5.315   9.749  0.2561 -0.0038  1.6388
   18CHL1    C9 1295   6.070   5.130   9.825  0.3880  0.7707  1.0615
   18CHL1    H9 1296   5.970   5.085   9.843 -0.0644  1.4893  0.3741
   18CHL1   C10 1297   6.109   5.193   9.966 -0.6450  0.1955 -0.6668
   18CHL1   C19 1298   6.219   5.296   9.939  0.2619  0.3572 -0.3761
   18CHL1  H19A 1299   6.276   5.326  10.029  0.0523 -0.4316  0.0266
   18CHL1  H19B 1300   6.291   5.255   9.865  0.2730 -1.3609  0.5801
   18CHL1  H19C 1301   6.183   5.394   9.899  1.3545  0.8688 -0.1128
   18CHL1    C1 1302   5.980   5.258  10.033  0.4828 -0.1230 -0.2811
   18CHL1   H1A 1303   5.929   5.337   9.974  0.7984  1.8437  2.0287
   18CHL1   H1B 1304   5.901   5.181  10.043  1.7605 -1.4319 -0.0683
   18CHL1    C2 1305   6.011   5.324  10.169 -0.0841 -0.3415  0.8054
   18CHL1   H2A 1306   5.914   5.361  10.208 -1.4695 -1.4004 -1.5095
   18CHL1   H2B 1307   6.084   5.407  10.169 -1.8797  1.2859  0.7641
   18CHL1   C20 1308   6.050   5.031   9.278 -0.3099  0.3411  1.1405
   18CHL1   H20 1309   6.117   5.119   9.270 -1.5465  1.1341 -0.8072
   18CHL1   C21 1310   5.911   5.088   9.251  0.6862 -0.3134 -0.3557
   18CHL1  H21A 1311   5.895   5.146   9.158  1.0533  0.4620  0.0544
   18CHL1  H21B 1312   5.902   5.163   9.333  0.2930  0.4084 -1.0467
   18CHL1  H21C 1313   5.842   5.001   9.255  2.1672 -1.4358  3.0553
   18CHL1   C22 1314   6.095   4.935   9.164 -0.4828 -0.4794  0.6767
   18CHL1  H22A 1315   6.068   4.992   9.072 -0.4381  0.0018  0.9602
   18CHL1  H22B 1316   6.205   4.921   9.156 -0.4195  0.5568 -0.4340
   18CHL1   C23 1317   6.016   4.806   9.135  0.1355  0.6394 -0.0844
   18CHL1  H23A 1318   6.038   4.730   9.213  1.1409 -0.0617 -1.0389
   18CHL1  H23B 1319   5.907   4.826   9.131 -0.0755 -0.1667  1.0940
   18CHL1   C24 1320   6.028   4.746   8.994  0.2184 -0.5681 -0.4886
   18CHL1  H24A 1321   6.135   4.726   8.971  0.4063 -2.1950  1.6175
   18CHL1  H24B 1322   5.985   4.644   8.983 -0.5044 -0.1994 -1.0917
   18CHL1   C25 1323   5.951   4.828   8.882  0.1005  0.0659 -0.6256
   18CHL1   H25 1324   5.966   4.938   8.884 -0.0393  0.0771  0.3141
   18CHL1   C26 1325   6.012   4.777   8.759 -0.0452  0.1712  0.4031
   18CHL1  H26A 1326   6.121   4.792   8.770  0.6334 -2.5659 -1.7757
   18CHL1  H26B 1327   5.999   4.669   8.736  1.9091  0.1909 -0.9065
   18CHL1  H26C 1328   5.984   4.839   8.671  0.1296 -2.1087 -1.3008
   18CHL1   C27 1329   5.797   4.799   8.880  0.5509  0.2106 -0.3589
   18CHL1  H27A 1330   5.750   4.797   8.980  0.7711 -0.4621 -0.2678
   18CHL1  H27B 1331   5.748   4.868   8.808  0.0233 -0.3362 -0.5282
   18CHL1  H27C 1332   5.779   4.697   8.842 -0.5776  0.8530 -1.5732
   19CHL1    C3 1333   3.684   1.360  10.088 -0.1589 -0.3908 -0.4549
   19CHL1    H3 1334   3.745   1.452  10.077  2.1258 -2.0024 -1.8329
   19CHL1    O3 1335   3.683   1.309  10.219 -0.1593  0.0409 -0.3466
   19CHL1   H3' 1336   3.601   1.344  10.254 -0.0190  0.0189  0.0098
   19CHL1    C4 1337   3.538   1.375  10.046  0.4987  0.2815  0.2511
   19CHL1   H4A 1338   3.485   1.279  10.060 -0.2649  0.4779 -1.2715
   19CHL1   H4B 1339   3.488   1.447  10.113 -1.2123  0.0524 -0.7605
   19CHL1    C5 1340   3.529   1.423   9.899  0.1337  0.8570 -0.4037
   19CHL1    C6 1341   3.463   1.535   9.865  0.3060 -0.2213  0.0648
   19CHL1    H6 1342   3.418   1.605   9.937  1.0038  1.0511 -0.7113
   19CHL1    C7 1343   3.443   1.576   9.725 -0.0353  0.9688 -0.4484
   19CHL1   H7A 1344   3.341   1.608   9.697 -0.0921 -0.3356 -1.8234
   19CHL1   H7B 1345   3.511   1.664   9.718  2.5851 -0.6666  2.9527
   19CHL1    C8 1346   3.482   1.462   9.620 -0.1544 -1.0729  0.2677
   19CHL1    H8 1347   3.388   1.404   9.614 -0.5703 -0.6984  2.8855
   19CHL1   C14 1348   3.496   1.517   9.476  0.7780 -0.2969  0.2998
   19CHL1   H14 1349   3.591   1.575   9.476  1.8900 -1.8810 -3.8657
   19CHL1   C15 1350   3.383   1.611   9.421 -0.5012  0.8356 -0.4373
   19CHL1  H15A 1351   3.285   1.559   9.430 -0.2801  0.4751 -0.0600
   19CHL1  H15B 1352   3.378   1.715   9.459 -1.6809  1.2069 -1.5834
   19CHL1   C16 1353   3.425   1.620   9.275  0.5617  0.1707  0.3279
   19CHL1  H16A 1354   3.338   1.619   9.206  1.8149  0.5475 -1.2984
   19CHL1  H16B 1355   3.484   1.712   9.255 -2.6766  1.8586 -1.8270
   19CHL1   C17 1356   3.528   1.509   9.245  0.0102  0.2292  0.1669
   19CHL1   H17 1357   3.631   1.547   9.265 -0.4090  2.2071 -1.3884
   19CHL1   C13 1358   3.519   1.418   9.366  0.4235  0.0419 -0.3163
   19CHL1   C18 1359   3.393   1.322   9.336  0.1974 -0.5689 -0.5549
   19CHL1  H18A 1360   3.424   1.253   9.254 -0.3130  0.2891 -1.4682
   19CHL1  H18B 1361   3.369   1.260   9.426 -1.7426 -0.2355 -0.8304
   19CHL1  H18C 1362   3.295   1.360   9.299  0.9298  0.7838 -1.1338
   19CHL1   C12 1363   3.646   1.339   9.402  0.2150 -0.2108  0.0502
   19CHL1  H12A 1364   3.662   1.250   9.338 -2.0543 -1.3321  0.9755
   19CHL1  H12B 1365   3.744   1.389   9.393 -0.0904  0.7203  1.6162
   19CHL1   C11 1366   3.636   1.273   9.542 -0.2204 -0.3645  0.0946
   19CHL1  H11A 1367   3.554   1.198   9.548 -0.9752  0.5855  2.0764
   19CHL1  H11B 1368   3.731   1.225   9.574 -0.4015 -0.2289  0.8434
   19CHL1    C9 1369   3.608   1.382   9.653 -0.0094 -0.0814  0.0756
   19CHL1    H9 1370   3.694   1.453   9.648 -2.1611  3.0304  3.8047
   19CHL1   C10 1371   3.606   1.330   9.803  0.4371  0.2511 -0.1636
   19CHL1   C19 1372   3.535   1.189   9.807 -0.3983 -0.3023  1.3922
   19CHL1  H19A 1373   3.586   1.111   9.747 -1.7787 -0.7458  0.7809
   19CHL1  H19B 1374   3.532   1.144   9.908 -0.2324 -2.4754  0.4380
   19CHL1  H19C 1375   3.436   1.197   9.759  0.7194  2.6142 -0.5935
   19CHL1    C1 1376   3.751   1.299   9.846  0.2028 -0.0562 -0.8610
   19CHL1   H1A 1377   3.789   1.213   9.788 -0.6421 -1.7650  1.0665
   19CHL1   H1B 1378   3.802   1.397   9.835 -3.1450  1.9454  0.5782
   19CHL1    C2 1379   3.760   1.263   9.995  0.4205  0.2781 -0.5886
   19CHL1   H2A 1380   3.863   1.275  10.036  0.9168 -1.2055 -1.3824
   19CHL1   H2B 1381   3.722   1.160  10.011  2.2684 -0.2417  0.6944
   19CHL1   C20 1382   3.516   1.457   9.104  0.5147  0.6337 -0.3236
   19CHL1   H20 1383   3.416   1.412   9.084 -0.7719  2.4433  1.8463
   19CHL1   C21 1384   3.631   1.359   9.073 -0.0030  0.2184 -0.3328
   19CHL1  H21A 1385   3.615   1.258   9.115 -0.2743  0.2499 -0.3591
   19CHL1  H21B 1386   3.730   1.396   9.106 -0.2056 -0.1331  0.6903
   19CHL1  H21C 1387   3.620   1.338   8.965 -2.6456 -1.4213  0.2022
   19CHL1   C22 1388   3.531   1.571   8.996  0.5459 -0.0672  0.9803
   19CHL1  H22A 1389   3.518   1.524   8.896  0.8030  1.6135  0.1318
   19CHL1  H22B 1390   3.453   1.649   9.000  2.4992  2.1099 -1.3852
   19CHL1   C23 1391   3.657   1.652   8.997 -0.2262  0.7050  0.3979
   19CHL1  H23A 1392   3.668   1.710   9.092  2.0170 -0.8202  1.0979
   19CHL1  H23B 1393   3.740   1.579   8.998 -1.9363 -1.2975  0.0930
   19CHL1   C24 1394   3.661   1.748   8.874 -0.2328  0.0555  0.3304
   19CHL1  H24A 1395   3.675   1.700   8.775 -3.1553  3.5244 -1.8688
   19CHL1  H24B 1396   3.571   1.812   8.865  1.2149  2.1067 -0.1923
   19CHL1   C25 1397   3.774   1.854   8.886  0.1316 -0.2848 -0.3087
   19CHL1   H25 1398   3.778   1.895   8.990 -0.4880 -1.3745  0.1460
   19CHL1   C26 1399   3.921   1.805   8.852  0.0883  0.8096  0.2619
   19CHL1  H26A 1400   3.914   1.764   8.749 -0.7173  0.9891  0.2354
   19CHL1  H26B 1401   4.006   1.875   8.861  0.9295 -0.0509 -0.8899
   19CHL1  H26C 1402   3.940   1.710   8.906  1.9068  1.4435  0.7586
   19CHL1   C27 1403   3.750   1.963   8.782 -0.4185 -0.0185  1.0935
   19CHL1  H27A 1404   3.844   2.012   8.750 -1.0285  1.4949  1.5430
   19CHL1  H27B 1405   3.723   1.912   8.688  1.6050  4.2666 -2.0034
   19CHL1  H27C 1406   3.674   2.032   8.826  0.1234  0.8715  0.6627
   20CHL1    C3 1407   5.295   2.342  10.161 -0.2774 -0.5960 -0.0326
   20CHL1    H3 1408   5.233   2.428  10.196 -0.1725  0.1492 -1.6095
   20CHL1    O3 1409   5.329   2.263  10.274  0.0704  0.4949  0.3185
   20CHL1   H3' 1410   5.394   2.319  10.317 -0.6881  3.1924 -1.8403
   20CHL1    C4 1411   5.218   2.252  10.065  0.5010 -0.1755  0.6234
   20CHL1   H4A 1412   5.263   2.150  10.065  0.7702 -0.0655  1.6860
   20CHL1   H4B 1413   5.115   2.235  10.103 -0.8422  0.7487 -2.4591
   20CHL1    C5 1414   5.212   2.296   9.921  0.3568 -0.0104 -0.0372
   20CHL1    C6 1415   5.095   2.290   9.852  0.5271  0.3739  0.4639
   20CHL1    H6 1416   4.997   2.268   9.896  0.2723 -1.2671 -0.8752
   20CHL1    C7 1417   5.093   2.305   9.700  0.2869 -0.4329  0.1868
   20CHL1   H7A 1418   5.036   2.220   9.657  0.4657 -1.2225  1.4683
   20CHL1   H7B 1419   5.043   2.402   9.677  0.9313 -0.3090 -0.7103
   20CHL1    C8 1420   5.229   2.320   9.640  0.2451 -0.2587  0.5928
   20CHL1    H8 1421   5.270   2.217   9.632 -1.3372 -0.6958 -2.9021
   20CHL1   C14 1422   5.221   2.393   9.501 -0.1268  0.5037  0.0354
   20CHL1   H14 1423   5.194   2.498   9.524 -0.1103  0.2180  1.3660
   20CHL1   C15 1424   5.133   2.329   9.397 -0.2510 -0.6966 -0.7150
   20CHL1  H15A 1425   5.148   2.219   9.394 -1.5683 -0.8821 -0.7429
   20CHL1  H15B 1426   5.028   2.358   9.413  0.2612  2.2709 -2.4436
   20CHL1   C16 1427   5.187   2.390   9.265 -0.5925  0.7314 -0.3115
   20CHL1  H16A 1428   5.195   2.307   9.192  1.2315 -0.6949  1.4843
   20CHL1  H16B 1429   5.117   2.464   9.219 -0.5907  0.0393 -1.4478
   20CHL1   C17 1430   5.331   2.451   9.287  0.7144  0.4896  0.2740
   20CHL1   H17 1431   5.315   2.561   9.293 -0.1106  0.3116  1.5000
   20CHL1   C13 1432   5.368   2.408   9.433  0.1368 -0.0522  0.3879
   20CHL1   C18 1433   5.439   2.269   9.428 -0.0973  0.2188  0.2539
   20CHL1  H18A 1434   5.484   2.230   9.522  0.2486 -2.0307 -0.8176
   20CHL1  H18B 1435   5.361   2.193   9.409  1.3260 -0.9829 -0.8983
   20CHL1  H18C 1436   5.520   2.259   9.353 -1.0194  0.4183 -0.7769
   20CHL1   C12 1437   5.443   2.509   9.515  0.9516  0.4828  0.0718
   20CHL1  H12A 1438   5.547   2.532   9.486 -0.3384  1.7434 -3.7863
   20CHL1  H12B 1439   5.384   2.603   9.522 -0.1984 -0.1477 -1.0255
   20CHL1   C11 1440   5.451   2.454   9.657  0.2019 -0.1413 -0.2386
   20CHL1  H11A 1441   5.527   2.373   9.652  1.1855  0.7053  0.8911
   20CHL1  H11B 1442   5.489   2.537   9.720 -0.2854  0.3544 -0.5889
   20CHL1    C9 1443   5.320   2.401   9.732  0.0895  0.1623 -0.2188
   20CHL1    H9 1444   5.265   2.496   9.752 -0.2948  0.4722 -2.6002
   20CHL1   C10 1445   5.345   2.331   9.863  0.2397 -0.5712  0.0091
   20CHL1   C19 1446   5.438   2.210   9.846  0.2108  0.5562 -0.3543
   20CHL1  H19A 1447   5.527   2.236   9.784  0.6385  1.6530  0.6985
   20CHL1  H19B 1448   5.470   2.169   9.944  0.4384  1.7313  0.0728
   20CHL1  H19C 1449   5.389   2.131   9.786 -0.8183  1.9910 -1.4240
   20CHL1    C1 1450   5.403   2.446   9.961 -0.0932 -0.4111 -0.2657
   20CHL1   H1A 1451   5.504   2.484   9.936 -1.0214  1.2933 -1.5223
   20CHL1   H1B 1452   5.328   2.528   9.958 -1.0031 -0.9901  4.0895
   20CHL1    C2 1453   5.417   2.402  10.104  0.1379 -0.1134  1.3069
   20CHL1   H2A 1454   5.454   2.493  10.156  0.1085 -0.6210  2.2228
   20CHL1   H2B 1455   5.495   2.323  10.110  0.4598  0.1634  0.8070
   20CHL1   C20 1456   5.425   2.422   9.174  0.3275  0.4832  0.1878
   20CHL1   H20 1457   5.449   2.314   9.175 -0.8289  0.2315  1.2956
   20CHL1   C21 1458   5.562   2.493   9.204 -0.2415 -0.5703 -0.3944
   20CHL1  H21A 1459   5.613   2.445   9.290 -0.3281  2.2655  1.2967
   20CHL1  H21B 1460   5.544   2.602   9.215  1.4056 -0.6836  4.4478
   20CHL1  H21C 1461   5.618   2.475   9.110 -1.6664 -1.5557 -1.0780
   20CHL1   C22 1462   5.365   2.459   9.028 -0.4026  0.5377  0.1772
   20CHL1  H22A 1463   5.446   2.428   8.959 -1.1254 -0.1945 -0.3458
   20CHL1  H22B 1464   5.277   2.394   9.008 -0.7455  0.7666  0.9182
   20CHL1   C23 1465   5.322   2.601   9.004  0.2664  0.3339 -1.0075
   20CHL1  H23A 1466   5.237   2.616   9.074  0.0525 -1.5805 -0.8148
   20CHL1  H23B 1467   5.401   2.673   9.035  1.1607 -0.6649 -0.9009
   20CHL1   C24 1468   5.278   2.634   8.861  0.5234  0.5531  0.0831
   20CHL1  H24A 1469   5.366   2.606   8.799  0.6390 -1.8976  1.2769
   20CHL1  H24B 1470   5.195   2.563   8.842  1.1209 -0.3329  0.7310
   20CHL1   C25 1471   5.233   2.776   8.837  0.4908 -0.2894  0.0417
   20CHL1   H25 1472   5.154   2.815   8.905  0.5550  1.7227 -1.0134
   20CHL1   C26 1473   5.343   2.887   8.837 -0.3675 -1.1838 -1.2599
   20CHL1  H26A 1474   5.358   2.916   8.944 -0.6825  1.9034 -1.9997
   20CHL1  H26B 1475   5.439   2.844   8.803  1.5832  2.5757 -0.8061
   20CHL1  H26C 1476   5.306   2.975   8.781 -1.3503  0.3878  1.7126
   20CHL1   C27 1477   5.161   2.786   8.699  0.3268 -0.3331  0.3329
   20CHL1  H27A 1478   5.233   2.813   8.619 -2.9237  3.3964 -1.5042
   20CHL1  H27B 1479   5.108   2.691   8.675  1.8556 -1.4327  1.1836
   20CHL1  H27C 1480   5.090   2.871   8.705 -0.4010 -0.9981  1.4156
   21CHL1    C3 1481   5.107   5.357  10.219 -0.7774  0.0899  0.1886
   21CHL1    H3 1482   5.212   5.320  10.213 -0.9382 -0.2104 -1.0964
   21CHL1    O3 1483   5.068   5.359  10.357 -0.2372  0.0841  0.3932
   21CHL1   H3' 1484   5.014   5.436  10.377  1.1676  0.9596  0.9248
   21CHL1    C4 1485   5.071   5.492  10.163 -0.9891  0.3226 -0.0882
   21CHL1   H4A 1486   4.964   5.517  10.179 -2.0211 -3.0275 -1.1918
   21CHL1   H4B 1487   5.125   5.565  10.226  0.9569 -0.6169 -0.6409
   21CHL1    C5 1488   5.102   5.505  10.018 -0.5936 -0.0421  0.2006
   21CHL1    C6 1489   5.202   5.584   9.962 -0.0937 -0.5938  0.4176
   21CHL1    H6 1490   5.266   5.653  10.020 -2.0908  2.0498 -0.4158
   21CHL1    C7 1491   5.234   5.594   9.815  0.0233 -0.1070  0.3155
   21CHL1   H7A 1492   5.233   5.703   9.792  0.4396 -0.2732 -0.5386
   21CHL1   H7B 1493   5.333   5.550   9.791  0.0805  0.5628 -0.7099
   21CHL1    C8 1494   5.121   5.530   9.729 -0.2868  0.7206  0.0300
   21CHL1    H8 1495   5.029   5.591   9.739 -0.4987  0.2315  1.2205
   21CHL1   C14 1496   5.161   5.515   9.583 -0.1536 -0.6652  0.8332
   21CHL1   H14 1497   5.260   5.463   9.581  0.6919  0.9305 -1.1591
   21CHL1   C15 1498   5.187   5.658   9.510  0.4528 -0.0763  0.1355
   21CHL1  H15A 1499   5.107   5.734   9.526  1.5337  0.9761  0.6240
   21CHL1  H15B 1500   5.281   5.698   9.553  0.1705  1.8104 -0.9231
   21CHL1   C16 1501   5.195   5.620   9.370 -0.1802  0.6912  0.0482
   21CHL1  H16A 1502   5.119   5.680   9.314 -1.1223 -1.0639 -0.5797
   21CHL1  H16B 1503   5.298   5.632   9.330 -0.5209 -0.1038 -1.0960
   21CHL1   C17 1504   5.163   5.464   9.358 -0.1647  0.8374 -0.1075
   21CHL1   H17 1505   5.264   5.419   9.355 -0.6656 -0.5222  2.2057
   21CHL1   C13 1506   5.083   5.431   9.485  0.2539 -0.5220 -0.1345
   21CHL1   C18 1507   4.939   5.496   9.477  0.3213  0.6956  0.0069
   21CHL1  H18A 1508   4.866   5.456   9.403 -0.5274  3.0907 -0.5006
   21CHL1  H18B 1509   4.891   5.497   9.577  1.2589 -0.3925  0.4867
   21CHL1  H18C 1510   4.950   5.601   9.443 -0.0923  0.9157  0.5624
   21CHL1   C12 1511   5.072   5.292   9.543 -0.6507  0.6289 -0.4865
   21CHL1  H12A 1512   5.001   5.221   9.494 -1.0445  2.0619 -2.0257
   21CHL1  H12B 1513   5.173   5.248   9.532 -0.1658  1.2748  1.2143
   21CHL1   C11 1514   5.023   5.295   9.688  1.1557 -0.6583 -0.2690
   21CHL1  H11A 1515   4.916   5.327   9.685  1.5553  0.6556 -0.8343
   21CHL1  H11B 1516   5.033   5.191   9.726 -1.2615 -0.7026  0.3122
   21CHL1    C9 1517   5.100   5.389   9.786 -0.0184  0.1093  0.0988
   21CHL1    H9 1518   5.204   5.352   9.791  0.6832  2.2455  3.0690
   21CHL1   C10 1519   5.037   5.394   9.928 -0.5839  0.2558 -0.4098
   21CHL1   C19 1520   4.888   5.423   9.909  0.1515  0.4333 -0.6918
   21CHL1  H19A 1521   4.831   5.333   9.877  2.9970 -0.9872 -1.9341
   21CHL1  H19B 1522   4.842   5.447  10.008 -1.8394 -2.0333 -0.9695
   21CHL1  H19C 1523   4.872   5.511   9.842  0.6048  1.0120 -0.0445
   21CHL1    C1 1524   5.064   5.262   9.998  0.6278  0.7366 -0.2645
   21CHL1   H1A 1525   5.023   5.184   9.931  2.7945  0.2806 -1.1028
   21CHL1   H1B 1526   5.172   5.234  10.002 -0.0587 -2.0099  0.2044
   21CHL1    C2 1527   5.027   5.250  10.145 -0.0521  0.2225 -0.3786
   21CHL1   H2A 1528   5.045   5.151  10.193 -1.5980 -0.1152 -0.4669
   21CHL1   H2B 1529   4.922   5.271  10.174 -0.1590  2.1334 -2.0341
   21CHL1   C20 1530   5.092   5.435   9.218 -0.1915  0.0541  0.4067
   21CHL1   H20 1531   5.010   5.508   9.201  0.0056  0.2031  0.0863
   21CHL1   C21 1532   5.032   5.288   9.221  0.5011 -0.0158  0.4540
   21CHL1  H21A 1533   5.115   5.215   9.233  1.0143  0.8374  2.2429
   21CHL1  H21B 1534   4.971   5.263   9.131  1.4641  1.1425 -0.5372
   21CHL1  H21C 1535   4.958   5.280   9.303 -0.6340 -3.0220 -0.7938
   21CHL1   C22 1536   5.181   5.455   9.089 -0.1216  0.0442 -0.5951
   21CHL1  H22A 1537   5.224   5.557   9.091 -1.2207  0.5210 -0.8445
   21CHL1  H22B 1538   5.267   5.386   9.105  1.0668  1.3109 -1.4433
   21CHL1   C23 1539   5.101   5.431   8.954  0.2525 -0.5813 -0.2261
   21CHL1  H23A 1540   5.183   5.422   8.879  0.9655  0.4223  0.4142
   21CHL1  H23B 1541   5.040   5.341   8.973  1.5749 -1.2542  0.9442
   21CHL1   C24 1542   5.012   5.543   8.918 -0.2809 -0.2304  0.1129
   21CHL1  H24A 1543   4.949   5.564   9.007  0.5026  0.8834  0.4207
   21CHL1  H24B 1544   5.073   5.635   8.903 -1.0798  0.4547  1.0382
   21CHL1   C25 1545   4.925   5.493   8.794 -0.1170  0.0740 -0.3109
   21CHL1   H25 1546   4.883   5.395   8.823 -2.2897  1.5564  1.7438
   21CHL1   C26 1547   4.801   5.592   8.779 -0.0725 -0.8570  0.0388
   21CHL1  H26A 1548   4.755   5.607   8.879 -0.8540  0.7041 -0.5353
   21CHL1  H26B 1549   4.841   5.689   8.741  0.7834 -0.2599  2.3562
   21CHL1  H26C 1550   4.720   5.560   8.710  3.4462 -2.7974 -3.3934
   21CHL1   C27 1551   5.001   5.488   8.654 -0.2914  0.6969  0.1103
   21CHL1  H27A 1552   4.935   5.433   8.584 -0.5368  1.0965  0.0311
   21CHL1  H27B 1553   5.039   5.584   8.614  1.3331 -0.0479 -0.1783
   21CHL1  H27C 1554   5.097   5.432   8.665 -0.0572  0.7198 -1.6900
   22CHL1    C3 1555   5.285   6.448  10.053 -0.5985 -0.2477 -0.0547
   22CHL1    H3 1556   5.299   6.338  10.039 -1.3958 -0.8705  3.5469
   22CHL1    O3 1557   5.349   6.476  10.180 -0.3471  0.4146  0.2204
   22CHL1   H3' 1558   5.438   6.444  10.163 -0.2518  1.7125 -1.9101
   22CHL1    C4 1559   5.356   6.525   9.943  0.1065 -0.3352 -0.1915
   22CHL1   H4A 1560   5.338   6.634   9.959 -0.6644 -0.2094 -1.7479
   22CHL1   H4B 1561   5.464   6.505   9.953 -0.0888 -1.7644 -0.8441
   22CHL1    C5 1562   5.302   6.495   9.804  0.1240  0.4330  0.0029
   22CHL1    C6 1563   5.376   6.459   9.697 -0.0860  0.7469 -0.2936
   22CHL1    H6 1564   5.485   6.462   9.711  0.0586 -2.2807 -0.4974
   22CHL1    C7 1565   5.330   6.436   9.561 -0.1773  0.2034 -0.1889
   22CHL1   H7A 1566   5.401   6.475   9.486 -0.4015  1.0488  0.0268
   22CHL1   H7B 1567   5.310   6.328   9.546 -0.2803  0.1196  0.5314
   22CHL1    C8 1568   5.189   6.492   9.538  0.1683 -0.5382 -0.3063
   22CHL1    H8 1569   5.195   6.601   9.520 -1.4591 -0.5082 -0.6699
   22CHL1   C14 1570   5.130   6.431   9.410  0.4089 -0.6371  0.7480
   22CHL1   H14 1571   5.126   6.320   9.417 -0.3939 -0.5522  1.6399
   22CHL1   C15 1572   5.208   6.438   9.278 -0.4628  0.3618  0.0433
   22CHL1  H15A 1573   5.260   6.533   9.254 -1.3233  0.1083 -3.1508
   22CHL1  H15B 1574   5.294   6.367   9.282 -0.3833  0.5094  1.1295
   22CHL1   C16 1575   5.101   6.424   9.166 -0.6753  0.0637 -0.1969
   22CHL1  H16A 1576   5.111   6.517   9.106  3.4387  0.0861  0.3479
   22CHL1  H16B 1577   5.120   6.331   9.109  1.8819 -0.0327  0.7435
   22CHL1   C17 1578   4.968   6.402   9.240 -0.3515 -0.1309  0.8253
   22CHL1   H17 1579   4.963   6.292   9.256 -0.1645 -0.4416 -1.1019
   22CHL1   C13 1580   4.990   6.472   9.371 -0.2879  0.1064 -0.2952
   22CHL1   C18 1581   4.985   6.628   9.351  0.4556 -0.8688  0.4798
   22CHL1  H18A 1582   4.882   6.663   9.330  1.2278 -0.6759 -3.5106
   22CHL1  H18B 1583   5.010   6.669   9.451 -0.1272 -0.4612  0.4630
   22CHL1  H18C 1584   5.051   6.670   9.272  1.2495  1.9661  2.5640
   22CHL1   C12 1585   4.901   6.429   9.493 -0.1348 -0.4074 -0.4560
   22CHL1  H12A 1586   4.802   6.480   9.495  1.1232  2.0642  0.7397
   22CHL1  H12B 1587   4.892   6.318   9.491  1.9409 -0.5908 -0.3253
   22CHL1   C11 1588   4.946   6.477   9.634 -0.0903 -0.1055  0.2298
   22CHL1  H11A 1589   4.919   6.585   9.641 -3.2070 -0.8521  0.5026
   22CHL1  H11B 1590   4.889   6.426   9.714  0.5425 -1.9144 -0.4525
   22CHL1    C9 1591   5.100   6.452   9.656  0.3758 -0.3299 -0.0359
   22CHL1    H9 1592   5.106   6.341   9.660  0.8266 -0.2807  0.8835
   22CHL1   C10 1593   5.148   6.518   9.793 -0.4893 -0.2940 -0.4730
   22CHL1   C19 1594   5.110   6.672   9.805  0.2353 -0.0304  0.5964
   22CHL1  H19A 1595   5.002   6.689   9.825  0.1475  0.6726 -0.4231
   22CHL1  H19B 1596   5.154   6.711   9.899  0.7349 -0.7783  0.6798
   22CHL1  H19C 1597   5.150   6.726   9.717  1.1598  0.5709  1.3763
   22CHL1    C1 1598   5.074   6.440   9.921 -0.3390  0.1478 -0.5120
   22CHL1   H1A 1599   4.966   6.453   9.903 -0.8230 -0.5190  1.7544
   22CHL1   H1B 1600   5.091   6.332   9.903  0.8543  0.1722  0.4112
   22CHL1    C2 1601   5.136   6.462  10.058 -0.1347  0.1858  0.1185
   22CHL1   H2A 1602   5.081   6.398  10.130 -0.6169  0.3953 -0.0658
   22CHL1   H2B 1603   5.117   6.569  10.078 -1.5162 -0.0700  0.2630
   22CHL1   C20 1604   4.853   6.430   9.152  0.7295  0.5477 -0.1226
   22CHL1   H20 1605   4.853   6.538   9.125 -0.5699  0.3064 -1.1365
   22CHL1   C21 1606   4.721   6.401   9.228 -0.0751 -0.8959  0.2686
   22CHL1  H21A 1607   4.710   6.479   9.306 -1.5362 -0.8788  0.0509
   22CHL1  H21B 1608   4.722   6.302   9.277 -1.3000 -1.9490 -1.7605
   22CHL1  H21C 1609   4.642   6.411   9.150 -0.7618  0.9521  1.1667
   22CHL1   C22 1610   4.844   6.358   9.021  0.3959  0.6879  0.0995
   22CHL1  H22A 1611   4.947   6.355   8.979  0.2232 -0.7420 -0.2303
   22CHL1  H22B 1612   4.798   6.257   9.020 -1.1256  1.3718 -0.7370
   22CHL1   C23 1613   4.770   6.431   8.907 -0.6202 -0.8601  1.0434
   22CHL1  H23A 1614   4.662   6.449   8.929 -1.6061 -1.1872 -3.2257
   22CHL1  H23B 1615   4.810   6.534   8.899 -2.5209 -0.2486 -1.1700
   22CHL1   C24 1616   4.790   6.373   8.765  0.4713 -0.2188 -0.0704
   22CHL1  H24A 1617   4.765   6.265   8.775  0.8455 -0.2568  0.4728
   22CHL1  H24B 1618   4.719   6.416   8.690  0.4883  1.9561  1.1114
   22CHL1   C25 1619   4.928   6.386   8.707 -0.4243  0.8184 -0.1312
   22CHL1   H25 1620   5.008   6.356   8.778  0.8237 -0.7501 -2.1472
   22CHL1   C26 1621   4.941   6.286   8.587 -0.1672  0.0699 -0.8225
   22CHL1  H26A 1622   4.898   6.190   8.620 -1.2770  1.1019  0.7982
   22CHL1  H26B 1623   4.877   6.325   8.505 -1.1180  1.0265  0.3553
   22CHL1  H26C 1624   5.041   6.273   8.538 -0.0163 -1.2753 -0.1642
   22CHL1   C27 1625   4.954   6.536   8.673 -0.5700  0.0730  0.1159
   22CHL1  H27A 1626   4.944   6.602   8.763 -0.9330 -2.6316  2.1266
   22CHL1  H27B 1627   5.061   6.551   8.648 -0.2822 -1.4622  0.3668
   22CHL1  H27C 1628   4.887   6.564   8.589  0.7084  2.4101 -0.1790
   23CHL1    C3 1629   0.395   0.857  10.243 -0.1461 -0.1500  0.8350
   23CHL1    H3 1630   0.461   0.809  10.318  0.4177 -0.2962  0.2547
   23CHL1    O3 1631   0.268   0.885  10.298  0.2360 -0.1284  0.2163
   23CHL1   H3' 1632   0.252   0.978  10.284 -2.6655 -0.4383  1.1148
   23CHL1    C4 1633   0.441   0.990  10.195  0.6821 -0.2383 -1.0334
   23CHL1   H4A 1634   0.365   1.048  10.137  0.1445 -0.5057 -0.5931
   23CHL1   H4B 1635   0.460   1.056  10.282 -0.9134  0.3347 -1.0974
   23CHL1    C5 1636   0.559   0.977  10.105  0.6114 -0.0675 -0.3190
   23CHL1    C6 1637   0.673   1.045  10.134 -0.2298 -0.9595  0.4835
   23CHL1    H6 1638   0.673   1.111  10.222  0.4416  0.7088 -0.7331
   23CHL1    C7 1639   0.793   1.043  10.048  0.8529  0.6042  0.3597
   23CHL1   H7A 1640   0.828   1.147  10.027 -1.7776  0.9215 -2.8035
   23CHL1   H7B 1641   0.873   0.992  10.107 -0.8296 -2.8548 -0.2692
   23CHL1    C8 1642   0.782   0.978   9.907  0.2139  0.4120 -0.2411
   23CHL1    H8 1643   0.725   1.044   9.839 -0.8044 -0.6562 -0.4409
   23CHL1   C14 1644   0.918   0.931   9.850  0.0028 -0.7447 -0.0460
   23CHL1   H14 1645   0.960   0.863   9.926  1.0259  0.9462  0.9150
   23CHL1   C15 1646   1.025   1.036   9.851  0.3035  0.2294 -0.0906
   23CHL1  H15A 1647   0.974   1.132   9.827 -0.6970  0.0941  1.4120
   23CHL1  H15B 1648   1.060   1.034   9.956 -1.1323 -2.0560  0.3685
   23CHL1   C16 1649   1.121   0.981   9.740  0.8966 -0.0233  0.1004
   23CHL1  H16A 1650   1.134   1.055   9.658  1.4249  0.4144  0.5730
   23CHL1  H16B 1651   1.215   0.957   9.793  1.2901  1.7913  0.2648
   23CHL1   C17 1652   1.059   0.848   9.693  0.0540  0.6557  0.0232
   23CHL1   H17 1653   1.084   0.768   9.766  1.6012  0.7098 -0.4396
   23CHL1   C13 1654   0.912   0.864   9.721  0.0276 -0.4884 -0.1433
   23CHL1   C18 1655   0.838   0.951   9.615 -0.2970 -0.7602 -0.4291
   23CHL1  H18A 1656   0.820   0.885   9.528  0.9410 -3.5208  1.3631
   23CHL1  H18B 1657   0.737   0.983   9.651 -0.3828 -1.0287 -0.4339
   23CHL1  H18C 1658   0.899   1.036   9.577 -0.3323 -0.5257  0.0317
   23CHL1   C12 1659   0.840   0.729   9.739  0.5727  0.0388  0.4198
   23CHL1  H12A 1660   0.821   0.677   9.642 -2.9387  0.1028  1.0156
   23CHL1  H12B 1661   0.897   0.664   9.808  0.8961  0.0832  0.1973
   23CHL1   C11 1662   0.697   0.760   9.798 -0.4054 -0.4725 -0.3859
   23CHL1  H11A 1663   0.644   0.816   9.718 -0.7438  0.1518  0.2780
   23CHL1  H11B 1664   0.647   0.665   9.826  1.2928 -1.4337 -0.5273
   23CHL1    C9 1665   0.697   0.855   9.920 -0.5167  0.1268 -0.2476
   23CHL1    H9 1666   0.751   0.795   9.995  1.1816  0.8298 -0.8863
   23CHL1   C10 1667   0.557   0.884   9.990  0.5132  0.0715  0.6110
   23CHL1   C19 1668   0.467   0.966   9.893  0.0252 -0.2925  1.1988
   23CHL1  H19A 1669   0.455   0.909   9.798  1.2423 -1.3556  1.6674
   23CHL1  H19B 1670   0.369   0.997   9.935 -0.7399  0.3846 -0.9991
   23CHL1  H19C 1671   0.521   1.060   9.870  2.0827 -1.2560  1.8967
   23CHL1    C1 1672   0.491   0.750  10.017  0.2108 -0.2321 -0.9005
   23CHL1   H1A 1673   0.446   0.700   9.928 -1.3442 -1.2627  0.4380
   23CHL1   H1B 1674   0.559   0.674  10.063  1.5735 -0.4035 -3.1404
   23CHL1    C2 1675   0.367   0.763  10.120  0.6994 -0.0753  0.0499
   23CHL1   H2A 1676   0.347   0.663  10.165  2.7331  0.4506  2.1854
   23CHL1   H2B 1677   0.281   0.804  10.062  0.7167  0.3767  0.3435
   23CHL1   C20 1678   1.101   0.804   9.553 -0.4775  0.4460  0.2310
   23CHL1   H20 1679   1.013   0.749   9.514 -2.0045  2.5923  0.5257
   23CHL1   C21 1680   1.216   0.710   9.567  0.7212  0.5514  0.4170
   23CHL1  H21A 1681   1.187   0.639   9.647 -1.9204  0.9172 -0.1347
   23CHL1  H21B 1682   1.315   0.756   9.584  0.9499  0.3090 -0.2477
   23CHL1  H21C 1683   1.234   0.655   9.472  1.2829 -4.1294  3.1175
   23CHL1   C22 1684   1.140   0.906   9.449 -0.6759 -0.2383 -0.6835
   23CHL1  H22A 1685   1.074   0.994   9.465  0.0014 -0.3864  3.3062
   23CHL1  H22B 1686   1.247   0.933   9.459 -0.9494  0.6702 -0.1419
   23CHL1   C23 1687   1.113   0.864   9.309  0.2000  0.0469 -0.0118
   23CHL1  H23A 1688   1.201   0.804   9.280  0.3055 -0.5857  1.5419
   23CHL1  H23B 1689   1.012   0.817   9.302 -0.0143  0.6933 -1.3555
   23CHL1   C24 1690   1.097   0.984   9.217  0.1539 -0.2794 -0.2526
   23CHL1  H24A 1691   1.026   1.065   9.247  1.0563 -0.1253  1.5374
   23CHL1  H24B 1692   1.191   1.042   9.229  0.8092 -1.1120 -1.2815
   23CHL1   C25 1693   1.063   0.947   9.068  0.5964 -0.1464 -0.1220
   23CHL1   H25 1694   1.137   0.865   9.048  1.1990 -0.7481  4.0603
   23CHL1   C26 1695   0.929   0.877   9.053  0.5581 -0.3227  0.1023
   23CHL1  H26A 1696   0.909   0.836   8.951 -2.5367 -0.0313  0.5485
   23CHL1  H26B 1697   0.916   0.792   9.124 -1.4805 -0.1168  0.0055
   23CHL1  H26C 1698   0.832   0.930   9.066  0.5958 -0.3236  0.3889
   23CHL1   C27 1699   1.093   1.063   8.971 -0.1704  0.3881  0.0234
   23CHL1  H27A 1700   1.201   1.089   8.975 -0.3399  1.0311  0.5926
   23CHL1  H27B 1701   1.067   1.042   8.865 -1.8017  1.2527  0.2313
   23CHL1  H27C 1702   1.036   1.151   9.008  1.5236  0.9352  1.3801
   24CHL1    C3 1703   2.440   1.141  10.094  0.0635  0.6512 -0.2114
   24CHL1    H3 1704   2.364   1.061  10.085  0.0388  0.7470 -0.9195
   24CHL1    O3 1705   2.435   1.175  10.228 -0.5606  0.7436 -1.0291
   24CHL1   H3' 1706   2.507   1.120  10.259 -2.1893 -1.0967 -0.4464
   24CHL1    C4 1707   2.584   1.102  10.048  0.4937 -0.1400  0.5119
   24CHL1   H4A 1708   2.655   1.183  10.071 -0.7766  1.7325 -1.9436
   24CHL1   H4B 1709   2.614   1.011  10.105  0.9698 -1.3427 -1.6218
   24CHL1    C5 1710   2.599   1.064   9.903  0.3605 -0.0858 -0.3746
   24CHL1    C6 1711   2.629   0.942   9.850 -0.2870 -0.4498 -0.2937
   24CHL1    H6 1712   2.651   0.856   9.915 -0.4939  0.5386  1.0989
   24CHL1    C7 1713   2.631   0.906   9.702  0.3217  0.7358 -0.0662
   24CHL1   H7A 1714   2.720   0.842   9.681  0.7077  1.0460  0.6276
   24CHL1   H7B 1715   2.536   0.854   9.677  1.2036 -2.0233  2.1672
   24CHL1    C8 1716   2.652   1.033   9.612  0.6501 -0.7288  0.5358
   24CHL1    H8 1717   2.756   1.067   9.630 -0.1321  2.6507 -0.9286
   24CHL1   C14 1718   2.633   0.995   9.467  0.0513 -0.1619  0.8432
   24CHL1   H14 1719   2.527   0.966   9.453  0.0130  0.2394  0.2937
   24CHL1   C15 1720   2.701   0.875   9.416 -0.4036  0.1218 -0.2832
   24CHL1  H15A 1721   2.807   0.867   9.449 -0.2731  1.2122 -0.4361
   24CHL1  H15B 1722   2.646   0.780   9.436 -0.7195 -0.0334 -1.8621
   24CHL1   C16 1723   2.710   0.897   9.260 -0.0790 -0.1669 -0.0158
   24CHL1  H16A 1724   2.814   0.890   9.224 -0.3205 -1.5366 -0.4785
   24CHL1  H16B 1725   2.650   0.820   9.206  0.7352 -0.9398  0.1704
   24CHL1   C17 1726   2.642   1.035   9.228  0.3752 -0.4987  0.5958
   24CHL1   H17 1727   2.534   1.013   9.215 -0.2125  1.5657  1.8125
   24CHL1   C13 1728   2.653   1.118   9.365  0.8135 -0.2846 -0.2265
   24CHL1   C18 1729   2.792   1.171   9.383 -0.0578  0.2919 -0.2595
   24CHL1  H18A 1730   2.868   1.091   9.371 -0.9468 -0.8296  1.4114
   24CHL1  H18B 1731   2.832   1.253   9.320  0.9856 -0.9369 -1.2198
   24CHL1  H18C 1732   2.795   1.202   9.490  1.3455  3.0358 -1.0512
   24CHL1   C12 1733   2.534   1.214   9.405  0.1001 -0.1305 -0.1542
   24CHL1  H12A 1734   2.527   1.297   9.332  0.6133  1.5324  1.6667
   24CHL1  H12B 1735   2.441   1.153   9.400 -0.2291  0.3522  0.1213
   24CHL1   C11 1736   2.533   1.259   9.548  0.2884  0.3593  0.3803
   24CHL1  H11A 1737   2.612   1.332   9.576  0.2119 -0.4110  2.7348
   24CHL1  H11B 1738   2.440   1.319   9.560  1.0781  1.6228  0.3280
   24CHL1    C9 1739   2.548   1.142   9.652  0.4852 -0.8796 -0.2579
   24CHL1    H9 1740   2.449   1.090   9.655 -0.4194  0.8681  0.6433
   24CHL1   C10 1741   2.560   1.186   9.811  0.7860  0.1341 -0.0294
   24CHL1   C19 1742   2.676   1.296   9.810 -0.5036  0.1219 -0.1682
   24CHL1  H19A 1743   2.719   1.304   9.912 -2.0382 -0.7954  0.5741
   24CHL1  H19B 1744   2.760   1.257   9.748 -0.1091  1.5376 -0.5506
   24CHL1  H19C 1745   2.638   1.396   9.780  0.5560  0.1494 -1.4747
   24CHL1    C1 1746   2.420   1.244   9.860 -0.5162  0.6149 -0.1616
   24CHL1   H1A 1747   2.394   1.337   9.806  0.5045  1.0733  0.1228
   24CHL1   H1B 1748   2.352   1.162   9.828  4.4057 -3.2052 -1.4802
   24CHL1    C2 1749   2.406   1.265  10.007  0.1395  0.4740 -0.4620
   24CHL1   H2A 1750   2.304   1.294  10.041  0.8103  1.2153  0.9600
   24CHL1   H2B 1751   2.475   1.344  10.042  1.4754 -0.7462 -0.2841
   24CHL1   C20 1752   2.701   1.094   9.102  0.3243 -0.0637 -0.7776
   24CHL1   H20 1753   2.812   1.097   9.113  0.6983 -1.3933 -3.6995
   24CHL1   C21 1754   2.658   1.243   9.087 -0.3448 -0.5063 -0.2209
   24CHL1  H21A 1755   2.690   1.314   9.166 -0.5502 -1.7480  0.9935
   24CHL1  H21B 1756   2.547   1.249   9.085 -0.4131 -1.8718 -1.1184
   24CHL1  H21C 1757   2.704   1.292   8.999  0.0552 -0.1727  0.1722
   24CHL1   C22 1758   2.685   1.026   8.965  0.0566  0.1740 -0.1207
   24CHL1  H22A 1759   2.686   0.916   8.981 -1.0394  0.5328  2.6351
   24CHL1  H22B 1760   2.581   1.043   8.929 -0.0997  1.0838  0.7427
   24CHL1   C23 1761   2.794   1.055   8.866 -0.9000 -0.2706  0.2293
   24CHL1  H23A 1762   2.787   1.161   8.832 -0.8469 -1.1239 -2.5574
   24CHL1  H23B 1763   2.893   1.025   8.906 -0.7022 -0.6278 -0.5082
   24CHL1   C24 1764   2.797   0.966   8.736 -0.4175 -0.5252  0.4113
   24CHL1  H24A 1765   2.785   0.859   8.764  1.1306 -0.8998 -0.2826
   24CHL1  H24B 1766   2.711   1.005   8.679  1.4081 -0.4517 -2.3706
   24CHL1   C25 1767   2.914   0.978   8.633  0.5173 -0.6303  0.6406
   24CHL1   H25 1768   3.012   0.944   8.673  2.3995  0.1386 -3.1466
   24CHL1   C26 1769   2.873   0.895   8.510  0.0469 -0.9777 -0.7944
   24CHL1  H26A 1770   2.783   0.934   8.458 -0.9587 -3.0027 -0.6372
   24CHL1  H26B 1771   2.955   0.900   8.436 -1.5287  0.9997 -2.4518
   24CHL1  H26C 1772   2.858   0.787   8.532  0.6382 -1.0829 -0.8996
   24CHL1   C27 1773   2.924   1.127   8.593  0.0590 -0.3565 -0.1982
   24CHL1  H27A 1774   2.944   1.205   8.670 -3.4649  1.5309 -1.0822
   24CHL1  H27B 1775   3.002   1.131   8.515 -1.1920 -1.2372 -1.5185
   24CHL1  H27C 1776   2.828   1.165   8.553  2.0029  2.6197 -2.1346
   25CHL1    C3 1777   3.803   3.086  10.264  0.0116  0.0265  0.5435
   25CHL1    H3 1778   3.695   3.061  10.256  0.3376 -0.5308 -2.3976
   25CHL1    O3 1779   3.854   3.065  10.392 -0.0416 -0.1742  0.3638
   25CHL1   H3' 1780   3.838   2.972  10.410 -1.0797 -0.2645 -0.9828
   25CHL1    C4 1781   3.875   2.992  10.174  0.3929 -0.2335  0.0971
   25CHL1   H4A 1782   3.984   3.003  10.193  0.3624 -1.1583  0.8545
   25CHL1   H4B 1783   3.855   2.885  10.198  1.8511 -0.7740 -1.0560
   25CHL1    C5 1784   3.855   3.016  10.031  0.0012 -0.9447  0.2906
   25CHL1    C6 1785   3.819   2.917   9.949 -0.0268  0.3085  0.1507
   25CHL1    H6 1786   3.803   2.817   9.992 -0.9898  0.4329  0.0843
   25CHL1    C7 1787   3.809   2.929   9.803  0.7912  0.3675  0.2831
   25CHL1   H7A 1788   3.861   2.847   9.749  1.1448 -0.6063  2.0748
   25CHL1   H7B 1789   3.702   2.913   9.776  1.5228 -1.2654 -1.7632
   25CHL1    C8 1790   3.849   3.071   9.740  0.0537 -0.5661  0.2646
   25CHL1    H8 1791   3.959   3.075   9.721 -0.0071  0.2893  0.0616
   25CHL1   C14 1792   3.779   3.101   9.610  0.1141  0.1378 -0.8412
   25CHL1   H14 1793   3.670   3.108   9.631  0.2925  0.0473  0.1234
   25CHL1   C15 1794   3.798   2.997   9.499  0.4853 -0.7234 -0.1470
   25CHL1  H15A 1795   3.907   2.986   9.484  0.7713  4.1488 -2.5629
   25CHL1  H15B 1796   3.732   2.908   9.514 -0.8652  0.0331 -1.5328
   25CHL1   C16 1797   3.748   3.081   9.378 -0.5504  0.3437 -0.4827
   25CHL1  H16A 1798   3.821   3.077   9.294  0.6793 -1.1518  0.6395
   25CHL1  H16B 1799   3.659   3.025   9.341 -0.9017  0.2338  0.5099
   25CHL1   C17 1800   3.725   3.227   9.419  0.2552 -0.3782 -0.4302
   25CHL1   H17 1801   3.618   3.232   9.449  0.3222  0.5328 -0.3362
   25CHL1   C13 1802   3.816   3.240   9.549  0.2373  0.0935  0.4790
   25CHL1   C18 1803   3.965   3.252   9.515 -1.0430 -0.6333 -0.2832
   25CHL1  H18A 1804   3.994   3.175   9.441  0.5897 -0.6752  0.3948
   25CHL1  H18B 1805   3.988   3.346   9.461 -1.0486 -1.4534 -1.7397
   25CHL1  H18C 1806   4.023   3.234   9.608  1.2180 -1.2093 -1.7747
   25CHL1   C12 1807   3.762   3.348   9.642 -0.9984  0.0412 -0.3171
   25CHL1  H12A 1808   3.795   3.445   9.599 -0.8557 -0.7929 -2.1063
   25CHL1  H12B 1809   3.652   3.338   9.653 -0.9255 -1.2477 -0.7465
   25CHL1   C11 1810   3.826   3.331   9.778 -0.9082  0.3482 -0.1280
   25CHL1  H11A 1811   3.935   3.352   9.774 -0.8059 -0.2004 -0.1656
   25CHL1  H11B 1812   3.787   3.401   9.856  0.0091 -0.0795  0.7277
   25CHL1    C9 1813   3.806   3.184   9.837  0.3180  0.3236  0.6545
   25CHL1    H9 1814   3.696   3.177   9.856  0.2292  0.0680  0.0822
   25CHL1   C10 1815   3.869   3.162   9.980  0.3357  0.1972  0.5841
   25CHL1   C19 1816   4.016   3.205   9.975  0.0491 -0.0971  0.5141
   25CHL1  H19A 1817   4.024   3.313   9.949 -0.9789 -0.1844 -0.2271
   25CHL1  H19B 1818   4.085   3.183  10.059 -1.9456 -1.6411  1.7937
   25CHL1  H19C 1819   4.058   3.145   9.892  0.0530  0.3280  0.2079
   25CHL1    C1 1820   3.785   3.257  10.078  0.0497  0.5025 -0.6059
   25CHL1   H1A 1821   3.823   3.360  10.063 -1.9887  1.7138  2.1448
   25CHL1   H1B 1822   3.676   3.253  10.053  0.2070 -2.8633 -0.9990
   25CHL1    C2 1823   3.819   3.228  10.223 -0.2324 -0.2461 -0.2345
   25CHL1   H2A 1824   3.758   3.298  10.284  0.8142  0.4064  0.0958
   25CHL1   H2B 1825   3.920   3.271  10.243  2.1644 -4.0542 -3.4283
   25CHL1   C20 1826   3.737   3.324   9.299 -0.0708 -0.8671 -0.6573
   25CHL1   H20 1827   3.842   3.326   9.262 -0.3711 -0.2631 -1.4843
   25CHL1   C21 1828   3.703   3.468   9.346  0.0113  0.9212 -0.5413
   25CHL1  H21A 1829   3.783   3.512   9.410 -1.7941  3.7124 -0.1211
   25CHL1  H21B 1830   3.601   3.470   9.391 -0.4964 -0.2689 -1.6300
   25CHL1  H21C 1831   3.700   3.540   9.261  1.9501  1.1752 -0.4055
   25CHL1   C22 1832   3.645   3.277   9.177  0.0266  0.3851  0.4055
   25CHL1  H22A 1833   3.681   3.182   9.131 -0.9721 -0.5444  1.5040
   25CHL1  H22B 1834   3.549   3.250   9.226  0.2212 -0.4185  0.3626
   25CHL1   C23 1835   3.624   3.384   9.068 -0.1468  0.2745 -0.0376
   25CHL1  H23A 1836   3.588   3.480   9.111  0.6994  0.5511  0.0626
   25CHL1  H23B 1837   3.723   3.401   9.022 -0.3131 -1.6354 -1.1917
   25CHL1   C24 1838   3.521   3.340   8.966 -0.1558 -0.2841  0.2054
   25CHL1  H24A 1839   3.554   3.241   8.930  1.3198 -0.4469  1.8953
   25CHL1  H24B 1840   3.433   3.318   9.030  2.1198 -0.5752  3.3714
   25CHL1   C25 1841   3.481   3.431   8.852  0.0650  0.2356  0.4062
   25CHL1   H25 1842   3.570   3.472   8.799  0.9994 -0.7803  1.1538
   25CHL1   C26 1843   3.397   3.348   8.758  0.1425  1.0433 -0.4327
   25CHL1  H26A 1844   3.449   3.252   8.737 -3.0621 -1.0866  0.9993
   25CHL1  H26B 1845   3.299   3.321   8.805 -0.3312  1.4537 -1.1729
   25CHL1  H26C 1846   3.365   3.400   8.665 -2.9700 -2.5168 -1.5297
   25CHL1   C27 1847   3.396   3.543   8.907 -0.2080 -0.3232  0.3162
   25CHL1  H27A 1848   3.359   3.606   8.823 -2.6911  0.7932  2.1876
   25CHL1  H27B 1849   3.304   3.500   8.952 -1.0901 -2.4232 -3.3050
   25CHL1  H27C 1850   3.441   3.615   8.979 -1.8031  1.6384 -0.6179
   26CHL1    C3 1851   5.457   5.967  10.180 -0.4564 -1.0289 -1.1031
   26CHL1    H3 1852   5.423   5.867  10.147 -0.6723 -0.3599 -2.9818
   26CHL1    O3 1853   5.451   5.980  10.325  0.2891  0.3843 -0.0613
   26CHL1   H3' 1854   5.489   6.064  10.350 -1.4741  0.6191  1.9138
   26CHL1    C4 1855   5.594   5.987  10.129  0.0959  0.2323 -0.1185
   26CHL1   H4A 1856   5.632   6.087  10.159  0.9009 -0.9384  2.8684
   26CHL1   H4B 1857   5.673   5.933  10.185 -0.2552  0.9974  1.1470
   26CHL1    C5 1858   5.602   5.976   9.976 -0.4237  0.7555  0.4746
   26CHL1    C6 1859   5.690   5.885   9.927 -0.1933 -0.8977 -0.1166
   26CHL1    H6 1860   5.766   5.836   9.989 -0.3628  1.6837  2.2104
   26CHL1    C7 1861   5.693   5.845   9.779  0.7431 -0.1313 -0.0209
   26CHL1   H7A 1862   5.800   5.853   9.753  0.5379  1.3056 -0.5072
   26CHL1   H7B 1863   5.666   5.739   9.762  3.6296 -0.7072 -1.3275
   26CHL1    C8 1864   5.609   5.935   9.687 -0.2466  0.0592 -0.0705
   26CHL1    H8 1865   5.672   6.026   9.670 -1.8103  1.2501  0.3590
   26CHL1   C14 1866   5.573   5.884   9.552 -0.5515 -0.5055  0.4821
   26CHL1   H14 1867   5.501   5.799   9.561 -2.0813  0.7626  0.4506
   26CHL1   C15 1868   5.689   5.828   9.468  0.0482 -0.7739  0.1301
   26CHL1  H15A 1869   5.788   5.878   9.478 -0.8396  1.2006 -0.5875
   26CHL1  H15B 1870   5.709   5.724   9.501 -1.3512 -1.4839 -1.1775
   26CHL1   C16 1871   5.664   5.862   9.317 -0.4375  0.1002  0.3168
   26CHL1  H16A 1872   5.730   5.949   9.302  0.7025 -1.0517 -1.5749
   26CHL1  H16B 1873   5.696   5.782   9.246  0.5339  2.5245 -2.0380
   26CHL1   C17 1874   5.522   5.918   9.315  0.5070 -0.0127 -0.1098
   26CHL1   H17 1875   5.453   5.831   9.312  1.6887 -0.9316 -1.7224
   26CHL1   C13 1876   5.511   5.987   9.460 -0.2142  0.0264  0.3201
   26CHL1   C18 1877   5.580   6.127   9.454 -0.2385 -0.0189 -0.4712
   26CHL1  H18A 1878   5.685   6.118   9.420  0.0386  1.3932 -0.0107
   26CHL1  H18B 1879   5.522   6.198   9.392  0.7766 -0.0334 -1.4466
   26CHL1  H18C 1880   5.577   6.165   9.559  0.9076 -3.5932  0.9527
   26CHL1   C12 1881   5.370   6.018   9.513 -0.3920  0.5991  0.8849
   26CHL1  H12A 1882   5.314   6.092   9.452  0.5759 -0.9595 -1.9839
   26CHL1  H12B 1883   5.304   5.928   9.510  0.5789 -0.0731 -0.7360
   26CHL1   C11 1884   5.374   6.062   9.659 -0.5677 -0.1320  0.2585
   26CHL1  H11A 1885   5.415   6.166   9.656  2.9491 -1.3605  2.5030
   26CHL1  H11B 1886   5.273   6.060   9.705 -1.4611  2.0697 -1.5151
   26CHL1    C9 1887   5.478   5.991   9.755  0.0240  0.1743 -0.2034
   26CHL1    H9 1888   5.423   5.896   9.771 -0.1182  0.1557 -0.7856
   26CHL1   C10 1889   5.492   6.049   9.897 -0.8002  0.4845 -0.3963
   26CHL1   C19 1890   5.535   6.198   9.895 -0.2662 -0.2956 -0.3372
   26CHL1  H19A 1891   5.634   6.206   9.845 -0.1413 -0.8496 -0.1944
   26CHL1  H19B 1892   5.456   6.255   9.842 -0.4391  0.1886  0.4302
   26CHL1  H19C 1893   5.540   6.236   9.999 -0.5047  3.8497 -1.7502
   26CHL1    C1 1894   5.357   6.040   9.963  0.8872 -0.2912 -0.5324
   26CHL1   H1A 1895   5.278   6.108   9.924  0.5795 -0.2194  0.2073
   26CHL1   H1B 1896   5.315   5.938   9.950  0.3789 -0.2624  0.8015
   26CHL1    C2 1897   5.347   6.054  10.121  0.1329 -0.2604 -0.1825
   26CHL1   H2A 1898   5.245   6.027  10.156  0.7806 -0.0157  1.9875
   26CHL1   H2B 1899   5.375   6.159  10.146 -2.3755  0.5152 -0.5505
   26CHL1   C20 1900   5.485   6.004   9.188  0.2053  0.1829 -0.4184
   26CHL1   H20 1901   5.528   6.104   9.211  1.4731 -0.3294 -0.4730
   26CHL1   C21 1902   5.330   6.011   9.168  0.4382 -0.4149  0.3975
   26CHL1  H21A 1903   5.309   6.075   9.080 -0.8004 -0.8255  0.3884
   26CHL1  H21B 1904   5.290   6.072   9.252  1.2030  0.0561  0.4245
   26CHL1  H21C 1905   5.284   5.912   9.150 -1.5716  0.7122 -0.8846
   26CHL1   C22 1906   5.552   5.948   9.056 -0.1269  0.3424 -0.3349
   26CHL1  H22A 1907   5.527   6.021   8.976 -0.1674  2.1033  1.2688
   26CHL1  H22B 1908   5.663   5.952   9.063 -0.3174  1.3767  2.5881
   26CHL1   C23 1909   5.505   5.808   9.005 -0.2371  0.5576  0.0157
   26CHL1  H23A 1910   5.539   5.735   9.081 -0.3945  1.9679  1.4702
   26CHL1  H23B 1911   5.395   5.798   8.997 -0.1809 -0.6666  0.7706
   26CHL1   C24 1912   5.559   5.786   8.862 -0.1048  0.2198  0.0614
   26CHL1  H24A 1913   5.527   5.863   8.789 -0.9807 -2.2029 -2.1905
   26CHL1  H24B 1914   5.668   5.795   8.878  0.3431 -2.6265 -1.1430
   26CHL1   C25 1915   5.558   5.639   8.820  0.1732  0.3633 -0.1687
   26CHL1   H25 1916   5.573   5.574   8.909 -3.5299 -0.6275 -0.1906
   26CHL1   C26 1917   5.427   5.602   8.758 -0.1483  0.2263  0.3451
   26CHL1  H26A 1918   5.407   5.653   8.661  2.1464  0.6361  0.0659
   26CHL1  H26B 1919   5.436   5.493   8.742 -1.5336 -0.4685  3.8100
   26CHL1  H26C 1920   5.328   5.618   8.806 -2.6940 -1.5089 -4.0549
   26CHL1   C27 1921   5.671   5.593   8.722 -0.8124  0.4188  0.9349
   26CHL1  H27A 1922   5.679   5.660   8.634  0.2110  0.0953  0.7821
   26CHL1  H27B 1923   5.766   5.592   8.779  0.0876  0.2220 -0.5466
   26CHL1  H27C 1924   5.652   5.495   8.672 -0.1513  0.7679 -0.0075
   27CHL1    C3 1925   4.681   3.169  10.360 -0.6017 -0.3122 -0.2653
   27CHL1    H3 1926   4.791   3.182  10.360 -0.5525 -0.7203 -0.8287
   27CHL1    O3 1927   4.650   3.112  10.487  0.5063 -0.1277  0.9466
   27CHL1   H3' 1928   4.694   3.028  10.497 -1.2140 -1.0684  0.9302
   27CHL1    C4 1929   4.609   3.299  10.336  0.5337  0.1649  0.3262
   27CHL1   H4A 1930   4.502   3.273  10.351 -0.0877  1.8895 -1.0151
   27CHL1   H4B 1931   4.642   3.364  10.421  1.1950 -1.5619  1.4176
   27CHL1    C5 1932   4.646   3.364  10.203 -0.1033  0.2450 -0.1889
   27CHL1    C6 1933   4.693   3.486  10.194 -0.5926  0.1511  0.2250
   27CHL1    H6 1934   4.721   3.536  10.287 -0.7787 -0.8315  0.8222
   27CHL1    C7 1935   4.733   3.555  10.066 -0.0561  0.1990 -0.6827
   27CHL1   H7A 1936   4.705   3.662  10.076 -0.2188  0.1155 -0.2530
   27CHL1   H7B 1937   4.840   3.546  10.040  0.2888  0.3025  0.6600
   27CHL1    C8 1938   4.655   3.489   9.940 -0.3165 -0.0497 -0.2940
   27CHL1    H8 1939   4.550   3.526   9.946 -0.1114  0.5692 -0.6234
   27CHL1   C14 1940   4.724   3.535   9.815  0.6577  0.4503  0.2239
   27CHL1   H14 1941   4.829   3.499   9.815  0.3305 -0.5567  1.4921
   27CHL1   C15 1942   4.747   3.680   9.802 -0.4949 -0.3870 -0.0241
   27CHL1  H15A 1943   4.659   3.737   9.839 -2.0314 -2.2930 -0.6665
   27CHL1  H15B 1944   4.826   3.733   9.861 -0.2288 -1.3433  0.4839
   27CHL1   C16 1945   4.776   3.699   9.656  0.1412 -0.5632  0.4017
   27CHL1  H16A 1946   4.698   3.772   9.627  0.0815 -1.5320 -1.9215
   27CHL1  H16B 1947   4.875   3.737   9.621 -0.0527  0.2813  0.7665
   27CHL1   C17 1948   4.749   3.565   9.581 -0.3418  0.0125 -0.8298
   27CHL1   H17 1949   4.850   3.520   9.576  0.4357  1.5578  0.6139
   27CHL1   C13 1950   4.665   3.484   9.684  0.3332  0.6697  0.7476
   27CHL1   C18 1951   4.515   3.539   9.670  0.1505 -0.1975  0.2451
   27CHL1  H18A 1952   4.470   3.506   9.575 -1.4376  3.6048 -0.4254
   27CHL1  H18B 1953   4.449   3.507   9.754 -0.5196  1.2362  0.2770
   27CHL1  H18C 1954   4.522   3.650   9.666 -0.2446 -0.1994 -0.4114
   27CHL1   C12 1955   4.669   3.331   9.691  0.3726  0.1005 -0.1621
   27CHL1  H12A 1956   4.612   3.280   9.610  0.8236 -0.1933 -0.2919
   27CHL1  H12B 1957   4.777   3.308   9.679  0.5982  0.5261  1.0116
   27CHL1   C11 1958   4.605   3.272   9.813  0.9484  0.2377 -0.2120
   27CHL1  H11A 1959   4.497   3.299   9.810  0.3204 -2.1409  0.0094
   27CHL1  H11B 1960   4.634   3.166   9.830  1.8320  0.2122 -1.7154
   27CHL1    C9 1961   4.660   3.334   9.947 -0.3652 -0.2711 -0.3639
   27CHL1    H9 1962   4.768   3.308   9.935 -0.7988 -1.3023 -2.2189
   27CHL1   C10 1963   4.610   3.273  10.082 -0.1611  0.3171  0.2845
   27CHL1   C19 1964   4.459   3.268  10.070 -0.2348  0.0977  0.7181
   27CHL1  H19A 1965   4.413   3.226  10.162 -1.6837 -1.4625 -0.6799
   27CHL1  H19B 1966   4.417   3.367  10.039  0.5847 -0.7471 -3.3382
   27CHL1  H19C 1967   4.442   3.191   9.992 -0.0134  1.1104 -0.3516
   27CHL1    C1 1968   4.673   3.132  10.116  0.2602  0.5603 -0.1191
   27CHL1   H1A 1969   4.629   3.072  10.033  1.9501  0.7235 -1.1603
   27CHL1   H1B 1970   4.783   3.136  10.104  0.4929 -1.3716  1.2656
   27CHL1    C2 1971   4.637   3.070  10.250  0.3125 -1.2608 -0.0549
   27CHL1   H2A 1972   4.674   2.969  10.276 -1.7477 -1.8261  0.7946
   27CHL1   H2B 1973   4.528   3.063  10.272  0.8634  0.8682  3.8500
   27CHL1   C20 1974   4.704   3.594   9.442 -0.0431 -0.4399 -0.7936
   27CHL1   H20 1975   4.601   3.635   9.446  0.3309  0.5738 -1.4022
   27CHL1   C21 1976   4.691   3.463   9.359 -0.1191  0.6626 -0.1170
   27CHL1  H21A 1977   4.794   3.426   9.339  0.1920  2.3214 -1.7138
   27CHL1  H21B 1978   4.652   3.487   9.258 -1.2596  1.0384  0.4000
   27CHL1  H21C 1979   4.629   3.377   9.393  0.2767  0.0476 -0.9319
   27CHL1   C22 1980   4.787   3.694   9.363  0.2098 -0.1559 -0.1386
   27CHL1  H22A 1981   4.833   3.776   9.422 -1.1684  1.2373 -0.9506
   27CHL1  H22B 1982   4.868   3.640   9.309  1.7522  2.3901 -0.4914
   27CHL1   C23 1983   4.700   3.766   9.263  0.0405 -0.2639  0.0314
   27CHL1  H23A 1984   4.647   3.686   9.209 -1.2526  0.8188 -0.3310
   27CHL1  H23B 1985   4.611   3.817   9.307  0.2656 -2.1049  2.8016
   27CHL1   C24 1986   4.777   3.864   9.164 -0.5341  1.0281 -0.3131
   27CHL1  H24A 1987   4.831   3.791   9.099 -1.2545 -0.8250  1.1217
   27CHL1  H24B 1988   4.697   3.912   9.104 -0.4021 -1.3637 -2.5046
   27CHL1   C25 1989   4.877   3.958   9.225  0.6447 -0.4018 -0.0952
   27CHL1   H25 1990   4.956   3.909   9.285  1.2530  0.5925 -0.0834
   27CHL1   C26 1991   4.949   4.032   9.108 -0.0410 -0.0689 -0.3792
   27CHL1  H26A 1992   4.875   4.092   9.051  0.0852  0.0330 -0.4334
   27CHL1  H26B 1993   5.028   4.099   9.149 -0.1521 -0.4259  0.4333
   27CHL1  H26C 1994   4.994   3.955   9.042  0.5875 -1.2033  1.3268
   27CHL1   C27 1995   4.799   4.052   9.319  0.2677 -0.4200  0.3243
   27CHL1  H27A 1996   4.868   4.118   9.375  0.1448 -0.0366  0.0226
   27CHL1  H27B 1997   4.726   4.112   9.261  1.3146  1.9351  1.4095
   27CHL1  H27C 1998   4.750   4.000   9.404 -0.3805  1.2282  0.9717
   28CHL1    C3 1999   4.333   1.024  10.065  0.5619 -0.6455 -0.3217
   28CHL1    H3 2000   4.421   1.092  10.077  2.0171 -1.8617 -3.5301
   28CHL1    O3 2001   4.314   0.936  10.179  0.2524  0.3524  0.4342
   28CHL1   H3' 2002   4.263   0.859  10.152  1.0261 -0.3634  0.9741
   28CHL1    C4 2003   4.211   1.126  10.054 -0.1745  0.6778 -0.3229
   28CHL1   H4A 2004   4.123   1.059  10.048 -1.7371  2.7203 -0.5983
   28CHL1   H4B 2005   4.195   1.183  10.148  1.6582  0.5772  0.0794
   28CHL1    C5 2006   4.214   1.213   9.928  0.1213 -0.3939  0.3473
   28CHL1    C6 2007   4.225   1.351   9.931  0.2197 -0.1673 -0.8842
   28CHL1    H6 2008   4.215   1.408  10.024  0.8633 -1.8774  0.2506
   28CHL1    C7 2009   4.233   1.440   9.804  0.7200 -0.4679  0.6272
   28CHL1   H7A 2010   4.165   1.528   9.818 -1.0607 -1.7047 -0.1215
   28CHL1   H7B 2011   4.337   1.476   9.790  0.6330 -1.1861 -1.9782
   28CHL1    C8 2012   4.175   1.356   9.683 -0.1996 -0.3864 -0.4875
   28CHL1    H8 2013   4.068   1.335   9.709  0.7023 -1.7661  2.3433
   28CHL1   C14 2014   4.204   1.437   9.555 -0.2938  0.6480 -0.3227
   28CHL1   H14 2015   4.315   1.444   9.550 -0.1557 -0.4233  1.0565
   28CHL1   C15 2016   4.149   1.586   9.551 -1.2269 -0.6161 -0.1412
   28CHL1  H15A 2017   4.043   1.582   9.583 -0.8205 -1.6158  1.1180
   28CHL1  H15B 2018   4.204   1.654   9.619 -0.5742  0.3509 -1.5944
   28CHL1   C16 2019   4.149   1.620   9.408  0.6415 -0.1251 -0.4681
   28CHL1  H16A 2020   4.045   1.649   9.382  0.5908  0.7675  0.7108
   28CHL1  H16B 2021   4.217   1.706   9.392  0.8230 -0.2938 -0.6036
   28CHL1   C17 2022   4.195   1.489   9.327  0.3033 -0.5521  0.5446
   28CHL1   H17 2023   4.305   1.492   9.315  0.5062 -0.6339  2.2673
   28CHL1   C13 2024   4.165   1.372   9.425  0.2138  0.3156 -0.1880
   28CHL1   C18 2025   4.010   1.347   9.421  0.3581  0.3008  0.3340
   28CHL1  H18A 2026   3.958   1.443   9.401 -2.4256 -0.9930  1.2267
   28CHL1  H18B 2027   3.990   1.279   9.336  1.1150  1.7818 -1.0733
   28CHL1  H18C 2028   3.961   1.296   9.506  0.6077 -1.4288 -0.5459
   28CHL1   C12 2029   4.240   1.241   9.413  0.1434 -0.4482 -0.3417
   28CHL1  H12A 2030   4.220   1.179   9.323  0.7060 -0.4128 -0.4892
   28CHL1  H12B 2031   4.349   1.262   9.418  0.2438 -1.3231  1.6077
   28CHL1   C11 2032   4.220   1.145   9.527 -1.0966 -0.0056  0.1432
   28CHL1  H11A 2033   4.112   1.121   9.526 -1.0739 -0.1323  0.4830
   28CHL1  H11B 2034   4.275   1.049   9.516 -1.8574 -0.6924  2.0830
   28CHL1    C9 2035   4.244   1.216   9.672 -0.2588 -0.2470  0.3914
   28CHL1    H9 2036   4.350   1.249   9.669 -0.7035  1.1247 -0.9512
   28CHL1   C10 2037   4.224   1.130   9.799  0.0157  0.5531 -0.4092
   28CHL1   C19 2038   4.092   1.054   9.781 -0.4289 -0.3959  0.3835
   28CHL1  H19A 2039   4.074   0.995   9.688 -0.6345 -0.8712  0.7178
   28CHL1  H19B 2040   4.077   0.973   9.855 -3.1788 -1.0286 -0.7857
   28CHL1  H19C 2041   4.007   1.125   9.792  1.4538  1.6414  2.1571
   28CHL1    C1 2042   4.349   1.032   9.804 -0.2103 -0.0354  0.1802
   28CHL1   H1A 2043   4.338   0.973   9.711 -0.5891  0.5893 -0.1763
   28CHL1   H1B 2044   4.447   1.085   9.805 -0.9329  1.5100 -3.7938
   28CHL1    C2 2045   4.340   0.945   9.937 -0.0559 -0.3107  0.7263
   28CHL1   H2A 2046   4.433   0.885   9.946  0.3575  0.0486 -0.9457
   28CHL1   H2B 2047   4.255   0.874   9.926 -1.2226  0.8174  2.3666
   28CHL1   C20 2048   4.145   1.483   9.185  0.2482  0.5054 -0.5111
   28CHL1   H20 2049   4.035   1.493   9.186  0.5273  3.9445 -0.7226
   28CHL1   C21 2050   4.200   1.364   9.112  0.3577 -0.4639  0.0378
   28CHL1  H21A 2051   4.309   1.362   9.134  0.6704  2.4249 -1.0398
   28CHL1  H21B 2052   4.185   1.376   9.003 -1.3316 -1.8604  0.0921
   28CHL1  H21C 2053   4.152   1.269   9.144 -0.3390 -1.4090 -3.6801
   28CHL1   C22 2054   4.173   1.610   9.099 -0.2734  0.8595  0.4016
   28CHL1  H22A 2055   4.135   1.591   8.996 -0.6061  1.5827  0.3811
   28CHL1  H22B 2056   4.108   1.693   9.134 -1.0005 -0.0944  1.3298
   28CHL1   C23 2057   4.320   1.649   9.083  0.4269  0.7451 -0.8085
   28CHL1  H23A 2058   4.371   1.675   9.178 -1.7104 -1.1612  0.9058
   28CHL1  H23B 2059   4.389   1.567   9.053  0.7439  0.0614  1.6565
   28CHL1   C24 2060   4.335   1.760   8.978 -0.2125 -0.1305  0.4161
   28CHL1  H24A 2061   4.443   1.786   8.976  0.0705 -1.1226  2.2448
   28CHL1  H24B 2062   4.299   1.731   8.877  0.1569  0.5183  0.0950
   28CHL1   C25 2063   4.254   1.888   9.008 -0.1348 -0.6436 -0.4817
   28CHL1   H25 2064   4.153   1.846   9.025 -0.0011 -0.6115  0.4093
   28CHL1   C26 2065   4.302   1.969   9.135  0.2107  0.3413  0.2381
   28CHL1  H26A 2066   4.410   1.990   9.116 -0.2336  1.8316 -0.7043
   28CHL1  H26B 2067   4.241   2.059   9.159 -0.4347  0.7180 -2.6003
   28CHL1  H26C 2068   4.289   1.891   9.213  0.1914  0.9103  0.7981
   28CHL1   C27 2069   4.243   1.982   8.884 -0.5267 -0.3270 -1.0087
   28CHL1  H27A 2070   4.162   2.057   8.895 -1.8228 -1.7656 -0.7179
   28CHL1  H27B 2071   4.340   2.037   8.886 -1.2430  0.9267 -0.4933
   28CHL1  H27C 2072   4.225   1.927   8.789 -1.7251 -0.9239 -0.4410
   29CHL1    C3 2073   5.865   6.048   6.569  0.0427  0.3200  0.7186
   29CHL1    H3 2074   5.759   6.016   6.573  0.1207 -0.2479 -1.2235
   29CHL1    O3 2075   5.900   6.018   6.434  0.1713  0.4911 -0.7198
   29CHL1   H3' 2076   5.992   6.046   6.437  0.2039  0.9212 -3.7539
   29CHL1    C4 2077   5.883   6.202   6.597  0.2694 -0.2139 -0.0491
   29CHL1   H4A 2078   5.978   6.231   6.548  0.1553  0.5203  0.1517
   29CHL1   H4B 2079   5.798   6.249   6.543 -0.7511 -2.5170 -0.5069
   29CHL1    C5 2080   5.878   6.225   6.750 -0.2694 -0.1761  0.3933
   29CHL1    C6 2081   5.803   6.316   6.801 -0.5473  0.1572 -0.3481
   29CHL1    H6 2082   5.745   6.377   6.730 -1.1294  0.9671  0.7962
   29CHL1    C7 2083   5.776   6.345   6.951  0.1748 -0.8486 -0.6502
   29CHL1   H7A 2084   5.772   6.455   6.963  1.1014 -0.4272 -3.8623
   29CHL1   H7B 2085   5.684   6.299   6.993  0.3728 -2.0420 -1.4856
   29CHL1    C8 2086   5.887   6.281   7.043  0.1410  0.2315  0.1594
   29CHL1    H8 2087   5.977   6.345   7.035  0.7312 -0.6283 -0.1850
   29CHL1   C14 2088   5.840   6.272   7.190 -0.2056 -0.1058 -0.0252
   29CHL1   H14 2089   5.750   6.208   7.198 -1.6385  2.0876  2.0715
   29CHL1   C15 2090   5.792   6.403   7.245  0.3082  0.5494  0.4329
   29CHL1  H15A 2091   5.867   6.479   7.214  0.0341  1.0047  0.8772
   29CHL1  H15B 2092   5.699   6.448   7.205  1.1446  0.5676 -1.5043
   29CHL1   C16 2093   5.798   6.381   7.398  0.1842  0.8532  0.1189
   29CHL1  H16A 2094   5.863   6.459   7.443  2.5234 -0.4828 -0.8634
   29CHL1  H16B 2095   5.689   6.385   7.423  0.4687  1.8326  1.2863
   29CHL1   C17 2096   5.862   6.240   7.418  0.1238 -0.2372 -0.1407
   29CHL1   H17 2097   5.779   6.166   7.420 -0.0840  0.0067  0.6027
   29CHL1   C13 2098   5.944   6.213   7.287  0.6157  0.3262 -0.0529
   29CHL1   C18 2099   6.074   6.302   7.295 -0.7861  0.1458 -0.0753
   29CHL1  H18A 2100   6.043   6.399   7.341  2.1837  0.6781  0.8945
   29CHL1  H18B 2101   6.145   6.252   7.364 -1.5136 -1.8399 -0.7430
   29CHL1  H18C 2102   6.123   6.304   7.196  0.8068 -1.4543  0.6600
   29CHL1   C12 2103   5.960   6.063   7.253 -0.3237 -0.1188  0.0306
   29CHL1  H12A 2104   6.043   6.017   7.311 -0.6007  0.2164  0.7034
   29CHL1  H12B 2105   5.864   6.012   7.274  0.0867 -1.1037 -0.4250
   29CHL1   C11 2106   5.998   6.048   7.107  0.0871  0.1892 -0.7004
   29CHL1  H11A 2107   6.097   6.098   7.101 -0.2392  0.9334 -0.0874
   29CHL1  H11B 2108   5.998   5.945   7.067  1.0617 -0.3819  0.7448
   29CHL1    C9 2109   5.906   6.136   7.008 -1.0675  0.4233  0.4146
   29CHL1    H9 2110   5.809   6.085   7.025 -1.2076  0.4400 -0.3527
   29CHL1   C10 2111   5.948   6.126   6.851  0.0520  0.3097 -0.5306
   29CHL1   C19 2112   6.098   6.149   6.844 -0.3032 -0.0753 -0.4312
   29CHL1  H19A 2113   6.119   6.247   6.890 -1.1783  0.8740 -2.0235
   29CHL1  H19B 2114   6.160   6.072   6.895 -1.6605 -0.2790  0.9495
   29CHL1  H19C 2115   6.146   6.157   6.744 -0.7482  0.6908 -0.5796
   29CHL1    C1 2116   5.920   5.985   6.803  0.1664 -0.1150 -0.3254
   29CHL1   H1A 2117   5.980   5.907   6.854  0.1104  1.0188  1.4768
   29CHL1   H1B 2118   5.809   5.977   6.810  0.1822 -0.1887 -0.1699
   29CHL1    C2 2119   5.959   5.967   6.657  0.3751 -0.5429  0.2581
   29CHL1   H2A 2120   5.945   5.861   6.628  0.8555  0.2636 -3.1647
   29CHL1   H2B 2121   6.063   6.004   6.643  0.4425 -0.3590  1.1773
   29CHL1   C20 2122   5.929   6.218   7.551  0.2917 -0.6926  0.2578
   29CHL1   H20 2123   6.031   6.258   7.564 -0.2922  1.4444 -1.3165
   29CHL1   C21 2124   5.951   6.064   7.576 -0.4140 -0.6443 -0.8292
   29CHL1  H21A 2125   5.858   6.017   7.537 -0.6276  0.3509 -1.5245
   29CHL1  H21B 2126   5.966   6.028   7.680  0.8613 -0.5912 -0.9860
   29CHL1  H21C 2127   6.039   6.038   7.514 -1.4659 -1.0443 -2.1724
   29CHL1   C22 2128   5.849   6.293   7.674  0.7746  0.7771 -0.1652
   29CHL1  H22A 2129   5.926   6.298   7.753  1.3448 -1.5437 -0.5311
   29CHL1  H22B 2130   5.826   6.396   7.640 -2.6462  0.0982 -0.0877
   29CHL1   C23 2131   5.718   6.222   7.719  0.1821  0.3867  0.7230
   29CHL1  H23A 2132   5.669   6.194   7.623  1.3352 -1.1390  0.5494
   29CHL1  H23B 2133   5.748   6.128   7.769  2.0117 -0.8570 -2.5333
   29CHL1   C24 2134   5.632   6.305   7.812 -0.2734  0.3937  0.0851
   29CHL1  H24A 2135   5.599   6.404   7.772  1.1718  0.8849  0.0939
   29CHL1  H24B 2136   5.540   6.243   7.822  0.0216 -0.3938 -1.7667
   29CHL1   C25 2137   5.682   6.322   7.957 -0.0446  0.1810 -0.3378
   29CHL1   H25 2138   5.788   6.353   7.947  0.1747 -0.2222  0.6748
   29CHL1   C26 2139   5.592   6.435   8.019 -0.2688  0.6822  0.0992
   29CHL1  H26A 2140   5.488   6.398   8.026  0.0420 -0.0325  1.0510
   29CHL1  H26B 2141   5.627   6.460   8.121 -0.3858 -0.5071  0.4296
   29CHL1  H26C 2142   5.586   6.535   7.970 -2.2644  1.1208  1.1941
   29CHL1   C27 2143   5.671   6.197   8.043 -0.1549 -0.1760 -0.5054
   29CHL1  H27A 2144   5.564   6.169   8.041 -0.1209 -0.2852 -0.9414
   29CHL1  H27B 2145   5.734   6.119   7.994  2.4000  2.2679 -1.2555
   29CHL1  H27C 2146   5.702   6.216   8.148  0.8588 -1.0058 -0.6376
   30CHL1    C3 2147   3.569   5.309   7.163 -0.3113  0.5846  1.0411
   30CHL1    H3 2148   3.650   5.308   7.240  0.4741  2.8133  0.3023
   30CHL1    O3 2149   3.603   5.264   7.029  0.8043 -0.4488 -0.5827
   30CHL1   H3' 2150   3.576   5.172   7.027  1.9500 -0.9249  2.7522
   30CHL1    C4 2151   3.446   5.219   7.196 -0.0781  0.5321 -0.3158
   30CHL1   H4A 2152   3.370   5.222   7.116 -1.0125 -0.8194  0.4968
   30CHL1   H4B 2153   3.493   5.118   7.191  1.5439  1.3013 -1.2024
   30CHL1    C5 2154   3.399   5.257   7.338  0.4394  0.1635  0.1831
   30CHL1    C6 2155   3.401   5.170   7.437 -0.3398  0.3038 -0.3295
   30CHL1    H6 2156   3.430   5.066   7.417 -2.0674  0.0762 -1.9254
   30CHL1    C7 2157   3.355   5.195   7.581  0.7563 -0.7003  0.1408
   30CHL1   H7A 2158   3.295   5.111   7.622  0.5144 -1.5456 -1.9012
   30CHL1   H7B 2159   3.449   5.203   7.639  0.5647  1.9406  0.1669
   30CHL1    C8 2160   3.271   5.328   7.594  0.1029 -0.2252  0.0521
   30CHL1    H8 2161   3.172   5.301   7.552  0.3342 -2.2165  0.7002
   30CHL1   C14 2162   3.265   5.374   7.743  0.3574  0.0818 -0.6200
   30CHL1   H14 2163   3.372   5.384   7.773  0.1669 -0.3487  0.2260
   30CHL1   C15 2164   3.202   5.278   7.848 -0.4823 -0.1151  0.3665
   30CHL1  H15A 2165   3.107   5.240   7.805  0.7717 -0.8386 -1.8333
   30CHL1  H15B 2166   3.267   5.196   7.886  0.4000 -0.4789 -1.8467
   30CHL1   C16 2167   3.159   5.367   7.968 -0.4511  0.5882  0.2897
   30CHL1  H16A 2168   3.051   5.369   7.993 -0.2168  0.6177  1.3201
   30CHL1  H16B 2169   3.206   5.325   8.061 -0.3891  1.7200  0.7778
   30CHL1   C17 2170   3.193   5.507   7.920  0.4707  0.2102 -0.3310
   30CHL1   H17 2171   3.296   5.541   7.944  0.0280  2.0474 -0.9383
   30CHL1   C13 2172   3.184   5.502   7.765 -0.5925 -0.3609 -0.6573
   30CHL1   C18 2173   3.037   5.491   7.724 -0.0516  0.8221 -0.3831
   30CHL1  H18A 2174   2.996   5.594   7.711  0.5815  1.2040  0.5740
   30CHL1  H18B 2175   3.031   5.442   7.625  2.5709 -0.5033  0.0912
   30CHL1  H18C 2176   2.983   5.426   7.797  0.0415 -0.1577 -1.1734
   30CHL1   C12 2177   3.257   5.617   7.682  0.0885 -0.2237 -0.2606
   30CHL1  H12A 2178   3.210   5.717   7.669 -2.0496 -1.1115  0.5080
   30CHL1  H12B 2179   3.359   5.615   7.727 -0.9489 -1.1553  2.1306
   30CHL1   C11 2180   3.262   5.573   7.541 -0.5409 -0.3003  0.2307
   30CHL1  H11A 2181   3.161   5.583   7.496  0.3056  1.5151 -1.3420
   30CHL1  H11B 2182   3.327   5.642   7.484  0.0530 -1.4015 -0.4549
   30CHL1    C9 2183   3.336   5.437   7.516 -0.1462  0.4157  0.3825
   30CHL1    H9 2184   3.439   5.439   7.559  0.3320  2.2916 -0.7685
   30CHL1   C10 2185   3.356   5.405   7.361  0.6551  0.3194 -0.5756
   30CHL1   C19 2186   3.223   5.419   7.295 -0.0224 -0.3715  0.5917
   30CHL1  H19A 2187   3.211   5.529   7.288  2.2988 -0.1223 -0.0485
   30CHL1  H19B 2188   3.208   5.371   7.196 -0.7127 -0.5967  0.8034
   30CHL1  H19C 2189   3.137   5.374   7.348  0.5959 -1.4950  0.6563
   30CHL1    C1 2190   3.455   5.502   7.299 -0.0623 -0.8605 -0.1074
   30CHL1   H1A 2191   3.418   5.605   7.284  1.4719 -0.2936  0.0014
   30CHL1   H1B 2192   3.530   5.509   7.380  0.9472  0.8334 -1.1745
   30CHL1    C2 2193   3.516   5.460   7.161 -0.7507 -0.2196 -0.5182
   30CHL1   H2A 2194   3.601   5.523   7.125  0.6527 -3.0657 -2.4496
   30CHL1   H2B 2195   3.444   5.449   7.078  0.3699  2.8296 -1.9730
   30CHL1   C20 2196   3.098   5.605   7.988 -0.2090 -0.3878  0.3740
   30CHL1   H20 2197   2.996   5.587   7.946  0.4857 -2.0505 -0.6457
   30CHL1   C21 2198   3.153   5.744   7.967 -0.2257  0.1852 -0.3994
   30CHL1  H21A 2199   3.103   5.821   8.030 -0.8119  0.6038 -1.3669
   30CHL1  H21B 2200   3.140   5.774   7.861 -1.0687 -0.7052 -0.5628
   30CHL1  H21C 2201   3.263   5.755   7.977 -0.1910 -0.2832 -0.2659
   30CHL1   C22 2202   3.067   5.581   8.140  0.6297  0.5041  0.3385
   30CHL1  H22A 2203   3.009   5.672   8.168  0.1504 -0.1854  1.6023
   30CHL1  H22B 2204   2.998   5.494   8.144  3.1739 -1.5598  0.7250
   30CHL1   C23 2205   3.177   5.542   8.239 -0.1190 -0.0681 -0.4658
   30CHL1  H23A 2206   3.125   5.533   8.337 -1.4448  0.9885 -1.0677
   30CHL1  H23B 2207   3.217   5.443   8.206  1.1669  0.5290 -0.7262
   30CHL1   C24 2208   3.292   5.647   8.266 -0.5499  0.0132 -0.9289
   30CHL1  H24A 2209   3.369   5.637   8.186 -0.8820 -1.3041 -1.0875
   30CHL1  H24B 2210   3.248   5.748   8.251 -1.5351 -0.4172 -0.9867
   30CHL1   C25 2211   3.354   5.633   8.405  0.0157  0.0299  0.0640
   30CHL1   H25 2212   3.273   5.633   8.481  0.1918  0.0745  0.2517
   30CHL1   C26 2213   3.427   5.503   8.428  0.1526  0.2006  0.0680
   30CHL1  H26A 2214   3.490   5.501   8.519  0.4035 -2.5253 -0.1065
   30CHL1  H26B 2215   3.356   5.417   8.439  0.5266 -0.2595 -1.0153
   30CHL1  H26C 2216   3.480   5.487   8.331  1.6447  0.3621  0.8392
   30CHL1   C27 2217   3.444   5.748   8.435 -0.4780  0.1096  0.2573
   30CHL1  H27A 2218   3.501   5.734   8.530 -0.7442 -1.3474  0.2169
   30CHL1  H27B 2219   3.523   5.748   8.356 -1.1102 -1.1945 -0.4021
   30CHL1  H27C 2220   3.402   5.848   8.413 -1.9258 -0.1270  1.8478
   31CHL1    C3 2221   3.373   0.361   6.734 -0.4058  0.3248  0.1294
   31CHL1    H3 2222   3.483   0.369   6.746 -0.3339 -1.3303  0.6693
   31CHL1    O3 2223   3.339   0.357   6.593 -0.2520  0.3035 -1.0099
   31CHL1   H3' 2224   3.244   0.362   6.586 -0.2271  2.1340 -0.3934
   31CHL1    C4 2225   3.335   0.227   6.809 -0.8504  0.3303 -0.3180
   31CHL1   H4A 2226   3.242   0.180   6.771 -0.2138  0.1679 -1.7033
   31CHL1   H4B 2227   3.406   0.154   6.766  0.0408  1.3398 -0.5704
   31CHL1    C5 2228   3.339   0.225   6.963 -0.8677  0.5391  0.3115
   31CHL1    C6 2229   3.408   0.125   7.029 -1.1546 -0.4781 -0.3606
   31CHL1    H6 2230   3.459   0.050   6.966 -0.9637  0.8996 -1.8713
   31CHL1    C7 2231   3.422   0.126   7.178  0.5668 -0.2347  0.0820
   31CHL1   H7A 2232   3.418   0.022   7.216 -0.7156 -0.0005  0.6086
   31CHL1   H7B 2233   3.525   0.164   7.198  0.0215  1.7237 -0.7460
   31CHL1    C8 2234   3.313   0.208   7.244  0.1958 -0.0908  0.3191
   31CHL1    H8 2235   3.216   0.154   7.236  0.8350 -0.7658 -4.0309
   31CHL1   C14 2236   3.359   0.232   7.389 -0.1394 -0.1532  0.0451
   31CHL1   H14 2237   3.458   0.282   7.393  1.0444 -2.5020  0.4072
   31CHL1   C15 2238   3.390   0.113   7.476 -0.0469 -0.3141  0.0861
   31CHL1  H15A 2239   3.318   0.028   7.473 -0.1615 -0.2203  0.2016
   31CHL1  H15B 2240   3.490   0.072   7.449 -0.4991 -1.2306 -0.2076
   31CHL1   C16 2241   3.377   0.167   7.621  0.1648 -0.1291 -0.8439
   31CHL1  H16A 2242   3.316   0.098   7.683  1.1335 -0.4645 -0.2560
   31CHL1  H16B 2243   3.474   0.163   7.674 -0.0278 -4.5366 -0.6691
   31CHL1   C17 2244   3.319   0.313   7.619 -0.1170  0.5129 -0.1397
   31CHL1   H17 2245   3.412   0.374   7.611 -1.0161  2.2011  1.8779
   31CHL1   C13 2246   3.269   0.315   7.475  0.9422  0.3377  0.1117
   31CHL1   C18 2247   3.125   0.246   7.477  0.3257 -0.3261 -0.3967
   31CHL1  H18A 2248   3.052   0.314   7.525 -2.1200 -2.4595 -1.0104
   31CHL1  H18B 2249   3.089   0.214   7.377 -1.6848 -0.7356  0.4414
   31CHL1  H18C 2250   3.132   0.156   7.542 -1.5413 -0.3649 -0.2329
   31CHL1   C12 2251   3.254   0.454   7.404 -0.0595 -0.4044  0.2752
   31CHL1  H12A 2252   3.175   0.517   7.452 -1.6366 -1.3689 -1.0076
   31CHL1  H12B 2253   3.357   0.494   7.410 -0.0319  0.1992 -3.2828
   31CHL1   C11 2254   3.217   0.445   7.261 -0.5122  0.3513  0.1855
   31CHL1  H11A 2255   3.119   0.394   7.272 -0.2742  0.0219  0.8101
   31CHL1  H11B 2256   3.203   0.548   7.223 -2.6756  0.4263  1.1018
   31CHL1    C9 2257   3.303   0.348   7.174 -0.3712  0.3943 -0.0972
   31CHL1    H9 2258   3.407   0.389   7.172  0.2008 -1.0640 -2.4676
   31CHL1   C10 2259   3.272   0.347   7.018 -0.0340  0.4974 -0.4446
   31CHL1   C19 2260   3.121   0.318   7.002  0.2441 -0.1005  0.5062
   31CHL1  H19A 2261   3.100   0.308   6.894 -0.7264  1.9984  0.4813
   31CHL1  H19B 2262   3.084   0.230   7.059 -1.4891  0.2841 -0.0098
   31CHL1  H19C 2263   3.058   0.405   7.032 -0.7856 -0.8734  0.6072
   31CHL1    C1 2264   3.303   0.478   6.947  0.2974  0.8825 -0.1272
   31CHL1   H1A 2265   3.224   0.547   6.983 -0.4284  0.2899 -0.5934
   31CHL1   H1B 2266   3.405   0.518   6.969  0.8893 -0.4039 -0.4674
   31CHL1    C2 2267   3.292   0.476   6.796 -0.2701 -0.2601  0.1506
   31CHL1   H2A 2268   3.339   0.570   6.760  1.3961 -1.0647  0.1985
   31CHL1   H2B 2269   3.184   0.478   6.771  0.0439  3.7897 -1.2532
   31CHL1   C20 2270   3.232   0.348   7.738  0.1082 -0.3853  0.1963
   31CHL1   H20 2271   3.137   0.291   7.743  0.0062 -0.5749 -2.9764
   31CHL1   C21 2272   3.194   0.496   7.736  0.3460  0.0345  0.2837
   31CHL1  H21A 2273   3.160   0.521   7.839  1.9886 -1.6764  1.2795
   31CHL1  H21B 2274   3.112   0.511   7.663  0.4695  1.5759  0.4457
   31CHL1  H21C 2275   3.278   0.565   7.713  0.9881 -0.0004  2.3802
   31CHL1   C22 2276   3.295   0.317   7.879 -1.2673 -0.4477 -0.6476
   31CHL1  H22A 2277   3.223   0.345   7.959 -2.2795 -0.9307 -1.3788
   31CHL1  H22B 2278   3.317   0.210   7.895 -0.1471 -0.3525 -1.4647
   31CHL1   C23 2279   3.430   0.387   7.909 -0.2256  0.2988  0.2549
   31CHL1  H23A 2280   3.514   0.367   7.839 -0.0959  1.6585  0.0084
   31CHL1  H23B 2281   3.420   0.496   7.892  2.6582  0.7453  0.9980
   31CHL1   C24 2282   3.487   0.360   8.054  0.6106 -0.0016  0.2466
   31CHL1  H24A 2283   3.403   0.377   8.125 -0.8012 -1.3592 -1.0644
   31CHL1  H24B 2284   3.522   0.255   8.062 -1.2421 -0.6150  0.5231
   31CHL1   C25 2285   3.613   0.440   8.093 -0.0278  0.8951  0.3040
   31CHL1   H25 2286   3.587   0.547   8.079  1.6409  1.3934  0.9272
   31CHL1   C26 2287   3.650   0.411   8.246  0.1480  0.2525 -0.4192
   31CHL1  H26A 2288   3.724   0.482   8.287 -0.7371  0.6273  0.5496
   31CHL1  H26B 2289   3.557   0.426   8.304  0.7699  1.7477  0.2118
   31CHL1  H26C 2290   3.678   0.305   8.266 -1.9492 -0.1288  0.6202
   31CHL1   C27 2291   3.735   0.403   8.006  0.3356 -0.5600  0.1737
   31CHL1  H27A 2292   3.716   0.419   7.898  1.1945 -1.8792 -0.1753
   31CHL1  H27B 2293   3.754   0.294   8.010  0.0581 -0.5736  1.6768
   31CHL1  H27C 2294   3.829   0.444   8.048  0.4300  1.0167 -1.5141
   32CHL1    C3 2295   4.226   5.406   7.051 -0.6130  0.9361  0.6644
   32CHL1    H3 2296   4.293   5.366   7.130  1.4510  1.5142 -0.7535
   32CHL1    O3 2297   4.254   5.347   6.924  0.3647 -0.5050 -0.1931
   32CHL1   H3' 2298   4.344   5.376   6.906  0.9041 -1.2767  1.1873
   32CHL1    C4 2299   4.080   5.371   7.077  0.0234 -0.2212  0.1927
   32CHL1   H4A 2300   4.016   5.411   6.997  2.0236 -2.4440 -2.6311
   32CHL1   H4B 2301   4.067   5.262   7.059  1.7213 -0.1655 -1.5659
   32CHL1    C5 2302   4.030   5.426   7.208  0.3151 -0.0419 -0.0281
   32CHL1    C6 2303   3.995   5.338   7.310 -0.3384 -1.0738 -0.5417
   32CHL1    H6 2304   3.987   5.229   7.296 -1.6565 -0.7966 -1.9324
   32CHL1    C7 2305   3.939   5.382   7.443 -0.0330  0.3099  0.3799
   32CHL1   H7A 2306   3.856   5.311   7.465  0.7150 -1.7641 -3.0554
   32CHL1   H7B 2307   4.013   5.361   7.524 -0.5793 -0.3616  0.7146
   32CHL1    C8 2308   3.899   5.535   7.433 -0.1676  0.1140 -0.3964
   32CHL1    H8 2309   3.802   5.540   7.380 -1.0333  1.6557  1.2960
   32CHL1   C14 2310   3.871   5.588   7.578 -0.4008 -0.4566  0.3637
   32CHL1   H14 2311   3.968   5.578   7.631  0.1961  2.4994 -0.0814
   32CHL1   C15 2312   3.776   5.502   7.659 -0.6684 -0.0412 -0.2795
   32CHL1  H15A 2313   3.691   5.461   7.600  0.2128 -1.2892 -0.7048
   32CHL1  H15B 2314   3.824   5.413   7.705 -2.1720 -1.2373 -0.9765
   32CHL1   C16 2315   3.729   5.599   7.769  0.9454  0.4607 -0.4279
   32CHL1  H16A 2316   3.621   5.622   7.767  1.0197  1.1545  1.8982
   32CHL1  H16B 2317   3.755   5.555   7.868  0.9179  0.3921 -0.4507
   32CHL1   C17 2318   3.804   5.730   7.738 -0.6811 -0.3389 -0.1194
   32CHL1   H17 2319   3.905   5.717   7.783 -0.4321  0.4625 -0.4368
   32CHL1   C13 2320   3.824   5.733   7.589 -0.5245  0.5642  1.0009
   32CHL1   C18 2321   3.684   5.745   7.522 -0.5939 -0.5441 -0.3879
   32CHL1  H18A 2322   3.689   5.725   7.413 -1.6966  1.5768 -0.8657
   32CHL1  H18B 2323   3.608   5.673   7.560 -0.4782 -0.6891 -0.4300
   32CHL1  H18C 2324   3.640   5.845   7.541 -1.6062 -0.8991 -0.8523
   32CHL1   C12 2325   3.934   5.820   7.523 -0.1615 -0.3379 -0.5208
   32CHL1  H12A 2326   3.904   5.927   7.523 -1.6914 -0.7570 -0.8472
   32CHL1  H12B 2327   4.029   5.813   7.581 -1.2356  0.0017  1.3418
   32CHL1   C11 2328   3.959   5.776   7.372  0.8945 -0.0694 -0.2748
   32CHL1  H11A 2329   3.864   5.778   7.315  1.4396  0.9099 -1.1713
   32CHL1  H11B 2330   4.043   5.843   7.343  2.1353 -0.2885  2.6258
   32CHL1    C9 2331   4.006   5.627   7.374  0.4816  0.3328 -0.1512
   32CHL1    H9 2332   4.104   5.623   7.428  0.6941  1.3058 -0.4591
   32CHL1   C10 2333   4.038   5.578   7.230 -0.3100  0.8899  0.1985
   32CHL1   C19 2334   3.943   5.636   7.124 -0.4752 -0.3041 -0.2922
   32CHL1  H19A 2335   3.837   5.604   7.133 -0.0204 -2.1613 -1.2507
   32CHL1  H19B 2336   3.943   5.746   7.134  2.0091 -0.3483  0.7661
   32CHL1  H19C 2337   3.968   5.622   7.017  2.0700  1.7471 -0.0245
   32CHL1    C1 2338   4.181   5.614   7.194  0.2119  0.6922 -0.6662
   32CHL1   H1A 2339   4.173   5.724   7.178 -1.6884  0.6995  0.3233
   32CHL1   H1B 2340   4.250   5.591   7.278  0.3052  1.2328 -0.5952
   32CHL1    C2 2341   4.248   5.555   7.061  0.3384  0.3300 -0.1346
   32CHL1   H2A 2342   4.356   5.577   7.045  0.4335  0.5812  0.8237
   32CHL1   H2B 2343   4.191   5.607   6.981 -0.9060 -1.6178 -0.5420
   32CHL1   C20 2344   3.734   5.849   7.799 -0.4390 -0.0311 -0.5012
   32CHL1   H20 2345   3.636   5.852   7.747  0.6040  0.4621 -2.4957
   32CHL1   C21 2346   3.809   5.986   7.773  0.1484  0.2370 -0.2205
   32CHL1  H21A 2347   3.781   6.057   7.854 -0.9118  0.0660 -0.4304
   32CHL1  H21B 2348   3.773   6.018   7.673 -0.8742 -1.7089 -0.5094
   32CHL1  H21C 2349   3.920   5.980   7.770  0.3513  1.6866  2.9143
   32CHL1   C22 2350   3.718   5.843   7.954 -0.3780  0.2268  0.9677
   32CHL1  H22A 2351   3.693   5.946   7.987 -1.3109  1.0479 -2.1692
   32CHL1  H22B 2352   3.630   5.783   7.984 -0.1088 -0.3928  0.5363
   32CHL1   C23 2353   3.829   5.793   8.046 -0.1841  0.8008 -0.1429
   32CHL1  H23A 2354   3.854   5.687   8.026 -0.4633  0.0767  3.0752
   32CHL1  H23B 2355   3.924   5.849   8.032  0.1089  0.0488 -1.1760
   32CHL1   C24 2356   3.788   5.811   8.196  0.5221  0.0676  0.3488
   32CHL1  H24A 2357   3.741   5.909   8.217 -1.7611 -0.1319 -3.2408
   32CHL1  H24B 2358   3.711   5.734   8.218  0.0186  0.4143 -0.1643
   32CHL1   C25 2359   3.909   5.800   8.298  0.1522 -0.0811 -0.8264
   32CHL1   H25 2360   3.963   5.704   8.280 -0.8434 -1.0754  1.2516
   32CHL1   C26 2361   4.014   5.917   8.282 -0.7366  0.1529 -0.0746
   32CHL1  H26A 2362   4.028   5.969   8.185 -0.7605 -0.0560 -0.1905
   32CHL1  H26B 2363   3.978   6.003   8.342 -3.0570 -1.4523  0.9149
   32CHL1  H26C 2364   4.111   5.881   8.323 -1.6978 -0.4820  1.7074
   32CHL1   C27 2365   3.861   5.794   8.437 -0.3522 -0.2648 -0.6604
   32CHL1  H27A 2366   3.816   5.894   8.450  0.8264 -0.1011  2.3638
   32CHL1  H27B 2367   3.785   5.715   8.456 -0.4940 -0.4001 -1.7350
   32CHL1  H27C 2368   3.945   5.771   8.505 -1.3753 -1.3227  0.2703
   33CHL1    C3 2369   4.947   4.876   6.854 -0.2356  0.2262 -0.1381
   33CHL1    H3 2370   4.964   4.769   6.879 -1.1635  0.3362  1.0293
   33CHL1    O3 2371   4.945   4.909   6.713 -0.2517 -0.4391 -0.4614
   33CHL1   H3' 2372   4.930   5.003   6.706  1.7330 -0.1967 -1.7852
   33CHL1    C4 2373   4.814   4.915   6.922 -0.6311  0.0185 -0.4534
   33CHL1   H4A 2374   4.792   5.020   6.891 -1.4342 -0.0258 -0.0345
   33CHL1   H4B 2375   4.735   4.858   6.870 -1.7856  2.0506 -0.9875
   33CHL1    C5 2376   4.812   4.902   7.075 -0.4646 -0.2021 -0.8285
   33CHL1    C6 2377   4.733   4.820   7.145  1.0262 -0.0117 -0.4555
   33CHL1    H6 2378   4.660   4.754   7.095  0.1554 -0.9588  2.0197
   33CHL1    C7 2379   4.730   4.807   7.294 -0.3977 -0.1311  0.2964
   33CHL1   H7A 2380   4.624   4.805   7.325 -0.9215  1.4222 -1.3312
   33CHL1   H7B 2381   4.779   4.718   7.338  0.9321 -0.1971 -1.2642
   33CHL1    C8 2382   4.807   4.922   7.365  0.3546  0.7708  0.5893
   33CHL1    H8 2383   4.755   5.021   7.362 -1.8016 -0.2938  1.3675
   33CHL1   C14 2384   4.830   4.890   7.512 -0.3058 -0.0093 -0.4046
   33CHL1   H14 2385   4.881   4.791   7.509 -0.3412 -0.0020 -1.1558
   33CHL1   C15 2386   4.710   4.854   7.589  0.7962  0.7665  0.1805
   33CHL1  H15A 2387   4.628   4.929   7.580  0.3737  0.6341  2.5808
   33CHL1  H15B 2388   4.666   4.757   7.558  0.6587  0.8099  0.2391
   33CHL1   C16 2389   4.775   4.846   7.734 -0.1008  0.3460  0.5419
   33CHL1  H16A 2390   4.703   4.901   7.798 -0.0291  0.5705  0.4296
   33CHL1  H16B 2391   4.785   4.738   7.761 -1.3892  0.2798  0.7765
   33CHL1   C17 2392   4.918   4.917   7.736 -0.1493  0.0308 -0.4889
   33CHL1   H17 2393   4.994   4.838   7.729  0.6894  0.6741  1.2433
   33CHL1   C13 2394   4.920   4.985   7.595  0.0974 -0.5083  0.1516
   33CHL1   C18 2395   4.860   5.128   7.607 -0.0376 -0.6122  0.7639
   33CHL1  H18A 2396   4.838   5.171   7.508 -0.1865 -3.0318 -0.2915
   33CHL1  H18B 2397   4.770   5.126   7.672 -0.6273 -1.8600 -0.0828
   33CHL1  H18C 2398   4.919   5.199   7.670 -0.8575  0.1028  0.7333
   33CHL1   C12 2399   5.057   4.985   7.520  0.0580  0.2784  0.1107
   33CHL1  H12A 2400   5.122   5.064   7.564 -1.5256  1.9078 -0.4046
   33CHL1  H12B 2401   5.100   4.884   7.537 -0.0859 -0.0424 -1.3998
   33CHL1   C11 2402   5.036   5.037   7.369 -0.0407  0.2260  1.1354
   33CHL1  H11A 2403   4.997   5.141   7.375  0.8363  0.6732 -0.7407
   33CHL1  H11B 2404   5.141   5.041   7.334  0.1922 -0.5439  1.7166
   33CHL1    C9 2405   4.943   4.940   7.288  0.4230 -0.5014 -0.4319
   33CHL1    H9 2406   4.995   4.842   7.297 -2.4862 -2.1415 -1.0800
   33CHL1   C10 2407   4.922   4.979   7.144 -0.2974  0.6634 -0.5415
   33CHL1   C19 2408   4.885   5.131   7.135  0.3554  0.0190  0.3417
   33CHL1  H19A 2409   4.861   5.163   7.031 -1.1134  0.1013  0.6887
   33CHL1  H19B 2410   4.816   5.174   7.211 -0.3038  1.4393 -1.0354
   33CHL1  H19C 2411   4.980   5.186   7.152 -0.3089  0.9056  1.3231
   33CHL1    C1 2412   5.053   4.941   7.064 -0.3153 -0.3875  0.4591
   33CHL1   H1A 2413   5.131   5.003   7.113 -1.5887  1.0267  0.7346
   33CHL1   H1B 2414   5.079   4.837   7.091  0.4744 -0.6305 -1.1972
   33CHL1    C2 2415   5.053   4.964   6.914 -0.4841  0.1036  0.6222
   33CHL1   H2A 2416   5.155   4.945   6.874 -0.9035  1.4306 -1.1112
   33CHL1   H2B 2417   5.032   5.071   6.893  1.4567  0.1492 -1.2587
   33CHL1   C20 2418   4.956   4.999   7.858 -0.1999 -0.7324 -0.4249
   33CHL1   H20 2419   4.880   5.079   7.870 -0.0621 -0.6283 -0.2296
   33CHL1   C21 2420   5.103   5.066   7.846 -0.1003  0.3745 -0.0760
   33CHL1  H21A 2421   5.169   5.003   7.783 -0.8207 -0.9665  0.4974
   33CHL1  H21B 2422   5.146   5.074   7.948 -0.5597  0.6822  0.0967
   33CHL1  H21C 2423   5.085   5.167   7.803 -2.7268  0.7950  1.8386
   33CHL1   C22 2424   4.947   4.902   7.982  0.0205 -0.4801 -0.1491
   33CHL1  H22A 2425   4.856   4.839   7.973 -0.1935 -0.3517  1.0487
   33CHL1  H22B 2426   5.037   4.838   7.992 -0.6865 -1.2303  1.4902
   33CHL1   C23 2427   4.928   4.967   8.122  0.4847 -0.4320  0.3508
   33CHL1  H23A 2428   4.998   5.048   8.153  0.9769 -0.7937  0.1958
   33CHL1  H23B 2429   4.832   5.023   8.119  0.7890  0.0020 -2.0032
   33CHL1   C24 2430   4.920   4.857   8.232  0.0203 -0.3483 -0.0359
   33CHL1  H24A 2431   4.838   4.785   8.212  0.8693 -1.7086  1.1934
   33CHL1  H24B 2432   5.015   4.802   8.212 -1.4254 -3.3348  1.0060
   33CHL1   C25 2433   4.948   4.892   8.383 -1.1750  0.5763 -0.1698
   33CHL1   H25 2434   5.048   4.941   8.386 -0.8293 -0.1241 -0.0556
   33CHL1   C26 2435   4.848   4.991   8.434 -0.5929  0.3680  1.1810
   33CHL1  H26A 2436   4.832   5.075   8.363 -0.8403 -0.6633  0.0118
   33CHL1  H26B 2437   4.750   4.939   8.431  0.2822 -1.3319  1.4294
   33CHL1  H26C 2438   4.881   5.027   8.534  1.0286 -2.4945  1.7444
   33CHL1   C27 2439   4.952   4.763   8.469  0.3675 -0.2774 -0.1720
   33CHL1  H27A 2440   4.851   4.717   8.466 -0.4627  1.2372  2.4449
   33CHL1  H27B 2441   5.041   4.700   8.448  0.2352  0.0155 -1.6757
   33CHL1  H27C 2442   4.963   4.800   8.573  0.3710 -1.7223  0.3429
   34CHL1    C3 2443   6.417   3.937   7.142  0.2680 -0.0536 -0.5122
   34CHL1    H3 2444   6.466   3.843   7.174  0.6606  0.2187 -0.3182
   34CHL1    O3 2445   6.406   3.940   7.005  0.0789 -0.4667  0.3474
   34CHL1   H3' 2446   6.490   3.961   6.965  0.1970 -0.9925  0.3207
   34CHL1    C4 2447   6.285   3.949   7.219  0.7858 -0.2663 -0.0568
   34CHL1   H4A 2448   6.242   4.050   7.207 -0.6548 -0.8976 -0.3069
   34CHL1   H4B 2449   6.218   3.872   7.174 -2.9399  2.3264  0.8006
   34CHL1    C5 2450   6.308   3.927   7.367 -0.8667 -0.0953 -0.0886
   34CHL1    C6 2451   6.247   3.834   7.436 -0.0991 -1.2813 -0.8022
   34CHL1    H6 2452   6.184   3.766   7.378  0.1729 -0.6925 -1.7962
   34CHL1    C7 2453   6.258   3.824   7.587 -0.0962  0.4794 -0.6417
   34CHL1   H7A 2454   6.152   3.834   7.619 -0.4792  0.0708 -1.7374
   34CHL1   H7B 2455   6.294   3.725   7.620  0.0491  1.5471  2.4937
   34CHL1    C8 2456   6.338   3.944   7.648  0.1010  0.5947  0.0671
   34CHL1    H8 2457   6.269   4.026   7.677  0.4778  1.5795 -1.7677
   34CHL1   C14 2458   6.382   3.894   7.789 -0.1159 -0.0123  0.9406
   34CHL1   H14 2459   6.453   3.814   7.762 -0.8742 -0.6640  0.8580
   34CHL1   C15 2460   6.288   3.823   7.882 -0.0356 -0.0365 -0.7292
   34CHL1  H15A 2461   6.199   3.887   7.899 -0.2294 -0.9437  1.8336
   34CHL1  H15B 2462   6.246   3.727   7.845 -0.1357 -0.1997 -0.1992
   34CHL1   C16 2463   6.363   3.819   8.017  0.7559 -0.6450 -0.3086
   34CHL1  H16A 2464   6.301   3.871   8.093  1.0879  0.3386 -0.7020
   34CHL1  H16B 2465   6.380   3.715   8.051 -0.1722 -1.0211 -0.9925
   34CHL1   C17 2466   6.493   3.900   7.997 -0.0284  0.1734 -0.0221
   34CHL1   H17 2467   6.574   3.831   7.965  0.8980  0.6289  1.3235
   34CHL1   C13 2468   6.466   3.988   7.872 -0.2089  1.0462  0.0792
   34CHL1   C18 2469   6.382   4.115   7.906  0.5137  0.2772 -0.2153
   34CHL1  H18A 2470   6.280   4.090   7.943  0.9221  0.8912  1.3414
   34CHL1  H18B 2471   6.435   4.171   7.986 -1.6004  2.0720 -0.0390
   34CHL1  H18C 2472   6.381   4.197   7.831 -0.7024  1.5337  1.1568
   34CHL1   C12 2473   6.593   4.015   7.779  0.2797  0.3869 -0.4083
   34CHL1  H12A 2474   6.654   4.092   7.831 -0.7664  1.6205 -0.9875
   34CHL1  H12B 2475   6.661   3.927   7.767  0.7648  0.7666 -0.4711
   34CHL1   C11 2476   6.554   4.071   7.642  0.3868  0.1759  0.2092
   34CHL1  H11A 2477   6.511   4.171   7.666  1.1830  0.4845  0.3352
   34CHL1  H11B 2478   6.641   4.076   7.573  2.8852  0.4165  3.2931
   34CHL1    C9 2479   6.455   3.981   7.559  0.2174 -0.0970 -0.1934
   34CHL1    H9 2480   6.515   3.889   7.547  2.5719  1.1092  1.9862
   34CHL1   C10 2481   6.409   4.034   7.426  0.8383 -0.2599  0.5239
   34CHL1   C19 2482   6.342   4.175   7.432  0.1316 -0.5692  0.2894
   34CHL1  H19A 2483   6.246   4.171   7.487 -1.0022 -0.0705 -1.5986
   34CHL1  H19B 2484   6.401   4.251   7.488 -0.8272 -0.6253  1.3858
   34CHL1  H19C 2485   6.311   4.213   7.332  1.6342 -2.3921 -0.8998
   34CHL1    C1 2486   6.535   4.049   7.333  0.1368  0.0776 -0.0883
   34CHL1   H1A 2487   6.596   4.134   7.370 -1.2156  1.4931 -1.0805
   34CHL1   H1B 2488   6.596   3.956   7.343  0.1284 -0.1583 -1.9900
   34CHL1    C2 2489   6.504   4.057   7.185  0.1654 -0.5361  0.4303
   34CHL1   H2A 2490   6.606   4.041   7.145 -0.2842 -0.0829 -0.9481
   34CHL1   H2B 2491   6.462   4.159   7.169 -0.3008 -0.6903  0.6474
   34CHL1   C20 2492   6.543   3.960   8.131 -0.3327  0.6507  0.4745
   34CHL1   H20 2493   6.475   4.044   8.153  0.8034  1.2319  1.8284
   34CHL1   C21 2494   6.681   4.028   8.108  0.3483  0.1553 -0.3597
   34CHL1  H21A 2495   6.711   4.081   8.201 -1.0290 -0.6776  0.5706
   34CHL1  H21B 2496   6.664   4.099   8.024 -0.6278 -1.1377 -1.2693
   34CHL1  H21C 2497   6.764   3.957   8.088 -0.2673 -1.2828  1.9937
   34CHL1   C22 2498   6.544   3.867   8.253  0.2747 -0.2022 -0.3926
   34CHL1  H22A 2499   6.439   3.866   8.288  0.5627 -0.0207  0.4968
   34CHL1  H22B 2500   6.579   3.763   8.232 -1.4581 -0.2500 -3.2753
   34CHL1   C23 2501   6.616   3.921   8.378  0.1661 -0.3360 -0.0980
   34CHL1  H23A 2502   6.725   3.915   8.362  0.0232 -1.2271 -0.7873
   34CHL1  H23B 2503   6.580   4.025   8.390 -2.5168 -1.2831  0.4389
   34CHL1   C24 2504   6.582   3.848   8.509 -0.0732  0.2305 -0.4896
   34CHL1  H24A 2505   6.474   3.824   8.503 -0.0354 -0.0444 -0.0761
   34CHL1  H24B 2506   6.637   3.751   8.510  1.8155  1.2673  1.0360
   34CHL1   C25 2507   6.603   3.924   8.644 -0.1211  0.1391 -0.3002
   34CHL1   H25 2508   6.524   4.002   8.649  0.7176  1.1672 -2.1785
   34CHL1   C26 2509   6.567   3.830   8.759  0.0554 -0.2805 -0.1980
   34CHL1  H26A 2510   6.568   3.890   8.853 -2.0565  2.9970 -2.1453
   34CHL1  H26B 2511   6.463   3.792   8.750 -0.3020  1.0561 -1.9887
   34CHL1  H26C 2512   6.637   3.744   8.765 -0.7030 -0.9762 -1.0971
   34CHL1   C27 2513   6.737   3.992   8.659  0.0897 -0.3516 -0.4048
   34CHL1  H27A 2514   6.815   3.914   8.647  2.4453  1.6893  1.0757
   34CHL1  H27B 2515   6.753   4.083   8.597 -2.7271  0.3412 -0.1590
   34CHL1  H27C 2516   6.749   4.029   8.763 -0.4928  0.3243 -0.5788
   35CHL1    C3 2517   2.402   5.170   7.297 -0.1506 -0.4620  0.3342
   35CHL1    H3 2518   2.414   5.060   7.308  3.4143 -0.0610  0.9040
   35CHL1    O3 2519   2.353   5.197   7.168 -0.4294 -0.1855  0.0561
   35CHL1   H3' 2520   2.280   5.135   7.166 -0.4108 -0.1694 -1.8751
   35CHL1    C4 2521   2.299   5.231   7.396  0.1931  0.7948  0.2577
   35CHL1   H4A 2522   2.299   5.340   7.373  0.2815  0.7795  0.1816
   35CHL1   H4B 2523   2.201   5.179   7.383  0.1048  0.9314  0.3762
   35CHL1    C5 2524   2.362   5.203   7.538  0.4686 -0.2126 -0.7158
   35CHL1    C6 2525   2.281   5.137   7.629  0.1477 -0.3592 -0.1279
   35CHL1    H6 2526   2.177   5.117   7.599  0.9506 -2.3992 -1.6039
   35CHL1    C7 2527   2.313   5.116   7.775 -0.3462 -0.4774 -0.3964
   35CHL1   H7A 2528   2.219   5.140   7.829  0.1920  0.6819  0.0476
   35CHL1   H7B 2529   2.335   5.009   7.792 -1.1058 -0.6323 -0.4041
   35CHL1    C8 2530   2.436   5.204   7.811 -0.4954 -0.1838 -0.2162
   35CHL1    H8 2531   2.402   5.308   7.827  2.7845  0.9910 -0.4563
   35CHL1   C14 2532   2.487   5.142   7.943 -0.1060  0.2539  0.5794
   35CHL1   H14 2533   2.520   5.040   7.916  1.3401  1.2692 -1.6104
   35CHL1   C15 2534   2.384   5.131   8.063  0.4250 -0.6698 -0.2619
   35CHL1  H15A 2535   2.308   5.212   8.065  0.3024 -0.7611 -0.9288
   35CHL1  H15B 2536   2.325   5.037   8.058  0.2679 -0.6092  0.4766
   35CHL1   C16 2537   2.472   5.108   8.185  0.0880 -0.3271  0.1370
   35CHL1  H16A 2538   2.451   5.182   8.265  1.1536 -0.9371  0.9975
   35CHL1  H16B 2539   2.467   5.003   8.220  0.3631 -0.5885 -0.5874
   35CHL1   C17 2540   2.619   5.144   8.144 -0.0886 -0.4417 -0.6741
   35CHL1   H17 2541   2.662   5.048   8.111 -1.7901 -0.9547 -1.4336
   35CHL1   C13 2542   2.604   5.220   8.003 -0.4729  0.7241  0.6085
   35CHL1   C18 2543   2.568   5.367   8.021  0.7576 -0.0711  0.1080
   35CHL1  H18A 2544   2.477   5.387   8.082  0.8408  0.5155  0.0505
   35CHL1  H18B 2545   2.653   5.428   8.060  0.5214  1.1091 -1.1798
   35CHL1  H18C 2546   2.542   5.411   7.923  0.0467 -0.2147  0.2294
   35CHL1   C12 2547   2.720   5.201   7.902  0.3132 -0.1963 -0.3093
   35CHL1  H12A 2548   2.807   5.262   7.932 -0.1114  0.9063 -1.2631
   35CHL1  H12B 2549   2.758   5.097   7.910  1.5985  0.0883 -2.3566
   35CHL1   C11 2550   2.686   5.240   7.757  0.2461 -0.0299 -0.1825
   35CHL1  H11A 2551   2.694   5.350   7.748 -1.8833  0.1483 -0.1115
   35CHL1  H11B 2552   2.761   5.208   7.681 -2.3425 -4.1254 -1.1972
   35CHL1    C9 2553   2.546   5.198   7.708 -0.2822 -0.0878 -0.3093
   35CHL1    H9 2554   2.563   5.089   7.698 -0.9060 -0.2535  0.3203
   35CHL1   C10 2555   2.503   5.249   7.571  0.2214 -0.4175 -0.4507
   35CHL1   C19 2556   2.504   5.404   7.571  0.3120 -0.7280  0.1321
   35CHL1  H19A 2557   2.477   5.434   7.468  1.7081 -0.4058 -0.1589
   35CHL1  H19B 2558   2.433   5.448   7.644 -0.7307 -1.2125 -0.5815
   35CHL1  H19C 2559   2.606   5.448   7.581 -0.7089  2.3894 -2.4284
   35CHL1    C1 2560   2.597   5.201   7.457  0.1122 -0.0311  0.3174
   35CHL1   H1A 2561   2.698   5.245   7.471  0.2809 -0.3370  0.0778
   35CHL1   H1B 2562   2.608   5.091   7.470  0.6853 -0.0062  0.0539
   35CHL1    C2 2563   2.542   5.228   7.313 -0.1241 -1.2453 -0.2912
   35CHL1   H2A 2564   2.607   5.187   7.233  3.0316  0.0728  1.5015
   35CHL1   H2B 2565   2.545   5.335   7.287  0.3075 -0.4893  2.6699
   35CHL1   C20 2566   2.704   5.219   8.249  0.3492 -0.5219 -0.4826
   35CHL1   H20 2567   2.653   5.316   8.268 -0.2645 -1.1863  1.3672
   35CHL1   C21 2568   2.839   5.247   8.189 -0.1551  0.2550  1.3178
   35CHL1  H21A 2569   2.849   5.335   8.121 -2.0364 -1.3616 -1.1741
   35CHL1  H21B 2570   2.874   5.161   8.127  0.5665  1.2583  0.2961
   35CHL1  H21C 2571   2.921   5.256   8.263  1.1863  0.0477 -0.0908
   35CHL1   C22 2572   2.714   5.142   8.379  0.3550 -0.2854 -0.6049
   35CHL1  H22A 2573   2.770   5.210   8.447  1.4530 -1.5430 -0.2290
   35CHL1  H22B 2574   2.616   5.134   8.432 -0.2671  3.2801 -1.1511
   35CHL1   C23 2575   2.793   5.011   8.377  0.2357 -1.0865 -0.3791
   35CHL1  H23A 2576   2.755   4.963   8.284 -0.8626 -1.9180  0.4763
   35CHL1  H23B 2577   2.903   5.024   8.366  0.2955  0.0123  1.3477
   35CHL1   C24 2578   2.752   4.924   8.495 -0.1452  0.1447 -0.0481
   35CHL1  H24A 2579   2.793   4.978   8.583  1.9821  0.6676 -1.3286
   35CHL1  H24B 2580   2.641   4.916   8.490 -0.0401 -0.4749 -1.9227
   35CHL1   C25 2581   2.815   4.779   8.479  0.1875  1.1616 -0.5276
   35CHL1   H25 2582   2.804   4.727   8.576  0.6766  0.8648 -0.6252
   35CHL1   C26 2583   2.749   4.703   8.362 -0.3077  0.3539 -0.2102
   35CHL1  H26A 2584   2.786   4.598   8.360 -1.9348 -0.3304  2.6091
   35CHL1  H26B 2585   2.639   4.702   8.377 -0.2499 -2.5338  0.3148
   35CHL1  H26C 2586   2.769   4.753   8.265  0.6111 -1.2967 -0.8804
   35CHL1   C27 2587   2.968   4.774   8.465  0.0486  0.5827 -0.6388
   35CHL1  H27A 2588   3.019   4.844   8.535  0.7071  1.1956 -1.7152
   35CHL1  H27B 2589   2.979   4.804   8.358  0.5557  0.3514 -0.6520
   35CHL1  H27C 2590   3.001   4.668   8.472  1.1057  0.6310 -3.9505
   36CHL1    C3 2591   2.949   4.481   7.035 -0.9492  1.0109 -0.1604
   36CHL1    H3 2592   3.002   4.383   7.033 -2.0560  0.3731  0.7912
   36CHL1    O3 2593   2.954   4.515   6.897  0.3391 -0.3119 -0.1060
   36CHL1   H3' 2594   2.933   4.609   6.893  0.9234 -0.1641  0.2801
   36CHL1    C4 2595   2.811   4.479   7.104 -0.2315  0.2755  0.2588
   36CHL1   H4A 2596   2.779   4.585   7.115 -0.9700  0.2780 -1.6734
   36CHL1   H4B 2597   2.741   4.429   7.034 -0.7692  0.3679  0.7232
   36CHL1    C5 2598   2.803   4.419   7.248 -0.2201 -0.4181 -0.1634
   36CHL1    C6 2599   2.732   4.309   7.277 -0.6280 -0.0325 -0.4533
   36CHL1    H6 2600   2.664   4.270   7.200 -0.4964 -0.6876 -0.2451
   36CHL1    C7 2601   2.740   4.248   7.416 -0.4908  0.1946 -0.1192
   36CHL1   H7A 2602   2.641   4.212   7.452  0.8831 -2.1124  1.5467
   36CHL1   H7B 2603   2.797   4.152   7.417 -0.2632  0.3235  1.5401
   36CHL1    C8 2604   2.813   4.345   7.520 -0.1872  0.1606 -0.8387
   36CHL1    H8 2605   2.732   4.417   7.545  0.2697 -0.0611  1.3522
   36CHL1   C14 2606   2.842   4.251   7.642  0.5513  0.5317 -0.3635
   36CHL1   H14 2607   2.916   4.179   7.602  0.0355 -2.0018  3.0152
   36CHL1   C15 2608   2.732   4.163   7.700  0.0432 -0.1075  0.3782
   36CHL1  H15A 2609   2.636   4.217   7.711 -0.9450 -1.4281 -1.4359
   36CHL1  H15B 2610   2.717   4.068   7.643  2.9003  0.0307 -0.6990
   36CHL1   C16 2611   2.774   4.137   7.842 -0.1062 -0.2945  1.0297
   36CHL1  H16A 2612   2.693   4.165   7.912 -0.3773  0.0745  0.5704
   36CHL1  H16B 2613   2.795   4.029   7.860  0.5923 -0.3972 -0.3634
   36CHL1   C17 2614   2.916   4.208   7.856 -0.3274 -0.1954 -0.0273
   36CHL1   H17 2615   2.987   4.136   7.811  0.2524 -0.2708  1.0214
   36CHL1   C13 2616   2.909   4.327   7.756  0.5747  0.1463  0.1199
   36CHL1   C18 2617   2.817   4.432   7.818  0.0966 -1.0383 -1.1096
   36CHL1  H18A 2618   2.735   4.404   7.887  0.3285  2.5424  0.7652
   36CHL1  H18B 2619   2.878   4.497   7.884  0.3165 -1.7590 -0.6000
   36CHL1  H18C 2620   2.783   4.495   7.733  0.1101 -0.2280 -0.5237
   36CHL1   C12 2621   3.039   4.393   7.703 -0.1385 -0.0527 -0.2862
   36CHL1  H12A 2622   3.083   4.456   7.784 -1.5971 -0.4560  0.8533
   36CHL1  H12B 2623   3.104   4.307   7.676 -1.6461 -1.0916 -0.6515
   36CHL1   C11 2624   3.016   4.490   7.576  0.2695  0.3832 -0.0286
   36CHL1  H11A 2625   2.949   4.566   7.622 -1.1350 -0.3780 -0.7832
   36CHL1  H11B 2626   3.110   4.531   7.533 -0.4812  1.8241 -0.3520
   36CHL1    C9 2627   2.936   4.411   7.464 -0.2217 -0.1010  0.9058
   36CHL1    H9 2628   2.999   4.323   7.440 -1.0144 -0.7511  1.1849
   36CHL1   C10 2629   2.911   4.486   7.336  0.3404  0.5423 -0.4390
   36CHL1   C19 2630   2.863   4.624   7.379 -0.3764 -0.1468  0.0965
   36CHL1  H19A 2631   2.775   4.627   7.447 -0.5680 -0.4941 -0.1358
   36CHL1  H19B 2632   2.942   4.681   7.434  1.8147 -0.8382 -2.2283
   36CHL1  H19C 2633   2.837   4.680   7.287  0.5162  2.1089  1.1741
   36CHL1    C1 2634   3.047   4.512   7.259 -0.7984 -0.1788  0.4754
   36CHL1   H1A 2635   3.108   4.575   7.327 -1.4915  0.4628  0.5048
   36CHL1   H1B 2636   3.093   4.411   7.264 -2.8926 -1.1396  0.8026
   36CHL1    C2 2637   3.040   4.569   7.124 -0.4142  0.5280  0.3568
   36CHL1   H2A 2638   3.138   4.572   7.072 -0.0711  0.5320  1.0091
   36CHL1   H2B 2639   3.003   4.674   7.129  2.6023  1.6199  0.9195
   36CHL1   C20 2640   2.970   4.247   7.994 -0.2545  0.0445 -0.3498
   36CHL1   H20 2641   2.946   4.351   8.025 -0.8808  0.4050 -1.9796
   36CHL1   C21 2642   3.127   4.234   7.998  0.0793 -0.1460  0.3825
   36CHL1  H21A 2643   3.168   4.294   7.914 -1.1236 -0.5439 -0.5099
   36CHL1  H21B 2644   3.152   4.127   7.982  1.1911 -0.2116  2.3999
   36CHL1  H21C 2645   3.166   4.266   8.097 -2.3284 -3.9854  2.7101
   36CHL1   C22 2646   2.913   4.157   8.111  0.0039  0.6526  0.7677
   36CHL1  H22A 2647   2.803   4.149   8.100  0.3062 -1.8903 -0.9932
   36CHL1  H22B 2648   2.947   4.054   8.084 -0.9774  0.0991  1.5777
   36CHL1   C23 2649   2.954   4.198   8.252 -0.1473  0.1392 -0.7075
   36CHL1  H23A 2650   3.053   4.152   8.269 -1.1486 -2.5381 -1.9141
   36CHL1  H23B 2651   2.953   4.309   8.244 -1.1972  0.1075 -1.1647
   36CHL1   C24 2652   2.850   4.147   8.351 -0.2369 -0.0492 -0.5166
   36CHL1  H24A 2653   2.752   4.193   8.325 -1.5974 -1.4707  1.9478
   36CHL1  H24B 2654   2.839   4.040   8.322  1.0025 -0.9600  2.1912
   36CHL1   C25 2655   2.877   4.159   8.506 -0.5700 -0.2091 -0.2992
   36CHL1   H25 2656   2.801   4.106   8.568  1.2590 -0.3204  1.8863
   36CHL1   C26 2657   3.002   4.086   8.542 -0.7167 -0.0966 -0.2458
   36CHL1  H26A 2658   3.089   4.136   8.493 -1.0418  0.2294 -0.4957
   36CHL1  H26B 2659   3.020   4.093   8.651  1.9912  0.3879 -0.6680
   36CHL1  H26C 2660   3.009   3.981   8.507 -0.5395  1.0495 -3.8931
   36CHL1   C27 2661   2.882   4.307   8.536 -0.5154 -0.6075  0.0174
   36CHL1  H27A 2662   2.791   4.360   8.500  1.8935  3.6332 -0.2415
   36CHL1  H27B 2663   2.893   4.334   8.644  0.1458  0.4521 -0.3076
   36CHL1  H27C 2664   2.968   4.352   8.482 -1.5654 -0.1612 -1.2961
   37CHL1    C3 2665   6.341   0.357   6.758  0.3149  0.4582  0.6123
   37CHL1    H3 2666   6.449   0.368   6.735  0.2606 -1.8482 -0.9259
   37CHL1    O3 2667   6.269   0.362   6.635  0.1382  0.0310 -0.0144
   37CHL1   H3' 2668   6.176   0.351   6.655 -0.5034 -0.6423 -3.1119
   37CHL1    C4 2669   6.307   0.220   6.829  0.3844  0.1298 -0.3285
   37CHL1   H4A 2670   6.199   0.219   6.854  0.7894 -1.6196  1.4459
   37CHL1   H4B 2671   6.328   0.140   6.755  3.7763 -1.2938  2.0284
   37CHL1    C5 2672   6.396   0.222   6.950  0.5597 -0.2607  0.0852
   37CHL1    C6 2673   6.498   0.140   6.962 -0.0759  0.1115  0.2639
   37CHL1    H6 2674   6.529   0.068   6.885 -1.1716 -0.1016  0.0145
   37CHL1    C7 2675   6.579   0.126   7.087 -0.0886  0.0860 -0.3952
   37CHL1   H7A 2676   6.595   0.020   7.115  2.6813  0.3424 -0.8982
   37CHL1   H7B 2677   6.676   0.178   7.076 -0.6142  1.5370  1.5887
   37CHL1    C8 2678   6.511   0.188   7.212  0.0255 -0.2636 -0.5550
   37CHL1    H8 2679   6.422   0.128   7.240 -0.8574  1.5421  0.6360
   37CHL1   C14 2680   6.609   0.202   7.332 -0.2192  0.6533  0.1697
   37CHL1   H14 2681   6.691   0.271   7.302  1.0361  0.4757  3.0058
   37CHL1   C15 2682   6.673   0.069   7.384 -0.6759 -0.0529 -0.2218
   37CHL1  H15A 2683   6.593  -0.008   7.391 -0.4617 -0.3503 -1.0531
   37CHL1  H15B 2684   6.756   0.033   7.320 -1.0492  0.9224 -1.2545
   37CHL1   C16 2685   6.723   0.098   7.522 -0.1785  0.2643 -0.4146
   37CHL1  H16A 2686   6.682   0.020   7.589 -0.1956  2.4867  2.2418
   37CHL1  H16B 2687   6.832   0.103   7.542  0.2462 -1.3135 -2.1755
   37CHL1   C17 2688   6.663   0.240   7.558  0.1060  0.4117 -0.5094
   37CHL1   H17 2689   6.742   0.314   7.533 -1.6488  3.1806  1.7327
   37CHL1   C13 2690   6.549   0.258   7.458 -0.4016  0.2067  0.6728
   37CHL1   C18 2691   6.430   0.176   7.499 -0.0027 -0.0821  0.1711
   37CHL1  H18A 2692   6.357   0.179   7.415  0.5682  0.7893 -0.2980
   37CHL1  H18B 2693   6.456   0.073   7.532  1.3252  0.0212 -0.5076
   37CHL1  H18C 2694   6.382   0.222   7.588 -1.8582  1.8945 -1.8000
   37CHL1   C12 2695   6.506   0.400   7.426 -0.5126 -0.5797 -0.2682
   37CHL1  H12A 2696   6.450   0.432   7.517 -0.6026 -1.3836 -0.0282
   37CHL1  H12B 2697   6.594   0.467   7.415 -1.5489  0.5613 -1.8328
   37CHL1   C11 2698   6.410   0.406   7.304 -0.3540 -0.2930  0.5753
   37CHL1  H11A 2699   6.309   0.375   7.338 -0.9546 -1.0205 -1.7754
   37CHL1  H11B 2700   6.384   0.512   7.281 -1.0630 -1.1189 -2.7423
   37CHL1    C9 2701   6.461   0.327   7.179 -0.8074 -0.4031 -0.0761
   37CHL1    H9 2702   6.558   0.376   7.157 -1.1042  1.0457  1.6690
   37CHL1   C10 2703   6.361   0.331   7.059 -0.1941  0.2766  0.8253
   37CHL1   C19 2704   6.222   0.290   7.105 -0.0978 -0.1853  0.1415
   37CHL1  H19A 2705   6.195   0.360   7.186  0.9601  0.7471 -0.2977
   37CHL1  H19B 2706   6.146   0.301   7.025  0.2569 -2.3413 -0.5410
   37CHL1  H19C 2707   6.219   0.187   7.146 -0.0661 -0.2609 -0.0440
   37CHL1    C1 2708   6.353   0.472   6.988 -0.2294  1.2654 -0.1105
   37CHL1   H1A 2709   6.293   0.528   7.062 -0.3393 -0.5997  1.2550
   37CHL1   H1B 2710   6.456   0.514   6.984  1.2009 -1.7753  2.5268
   37CHL1    C2 2711   6.290   0.472   6.851  0.6233 -0.3472 -0.0020
   37CHL1   H2A 2712   6.310   0.566   6.796 -1.9445 -0.1192 -0.6214
   37CHL1   H2B 2713   6.182   0.448   6.861  0.8564 -1.4907 -0.0728
   37CHL1   C20 2714   6.644   0.257   7.711 -0.4140  0.4287 -0.1593
   37CHL1   H20 2715   6.561   0.188   7.738 -1.3091  2.3971  2.3213
   37CHL1   C21 2716   6.598   0.397   7.753  0.0492 -0.1544  0.8766
   37CHL1  H21A 2717   6.577   0.389   7.862 -1.1749 -0.7423  0.6108
   37CHL1  H21B 2718   6.498   0.433   7.719  0.5387  0.2716 -0.1315
   37CHL1  H21C 2719   6.669   0.475   7.720 -1.4292  0.6929 -0.3960
   37CHL1   C22 2720   6.773   0.236   7.794  0.0222  0.0719 -0.2940
   37CHL1  H22A 2721   6.826   0.144   7.763  2.7200  1.3204  0.4916
   37CHL1  H22B 2722   6.841   0.323   7.787 -0.9696  1.0652  1.9213
   37CHL1   C23 2723   6.753   0.216   7.947  0.0921 -0.7043 -0.0562
   37CHL1  H23A 2724   6.704   0.307   7.987 -0.6242 -0.4583 -1.4636
   37CHL1  H23B 2725   6.679   0.135   7.968 -1.5762  0.3405 -1.7579
   37CHL1   C24 2726   6.886   0.194   8.025 -0.4354  0.4196 -0.4310
   37CHL1  H24A 2727   6.934   0.104   7.981 -1.7436 -1.3854  1.7211
   37CHL1  H24B 2728   6.956   0.279   8.008  2.3139 -1.0775  2.5931
   37CHL1   C25 2729   6.862   0.175   8.175 -0.2085 -0.0576 -0.4137
   37CHL1   H25 2730   6.811   0.271   8.197  0.5687  0.4604 -0.8339
   37CHL1   C26 2731   6.776   0.051   8.205  0.7162 -0.1954  0.2104
   37CHL1  H26A 2732   6.823  -0.036   8.154 -0.1141 -0.6214  0.1475
   37CHL1  H26B 2733   6.777   0.021   8.312  0.5168 -1.6737 -0.1846
   37CHL1  H26C 2734   6.675   0.060   8.158  0.8079 -0.8479 -0.1212
   37CHL1   C27 2735   6.994   0.177   8.251  0.1806  0.6269 -0.3794
   37CHL1  H27A 2736   6.985   0.163   8.360  0.7112 -0.1441 -0.4341
   37CHL1  H27B 2737   7.063   0.102   8.208 -1.3990 -2.4944  2.2720
   37CHL1  H27C 2738   7.042   0.276   8.243 -0.6097  1.0523  0.0134
   38CHL1    C3 2739   3.103   0.938   6.721 -0.1727 -0.2067  0.0952
   38CHL1    H3 2740   3.160   1.032   6.705  1.2200 -1.3787 -1.9128
   38CHL1    O3 2741   3.045   0.899   6.597 -0.0174 -0.0393 -0.6692
   38CHL1   H3' 2742   2.991   0.825   6.625 -1.2939  0.9797 -0.3968
   38CHL1    C4 2743   3.184   0.819   6.785  0.1012  0.1461  0.4629
   38CHL1   H4A 2744   3.121   0.730   6.802  3.1049 -1.9740  0.9057
   38CHL1   H4B 2745   3.259   0.801   6.705  0.6409  2.8912  0.2997
   38CHL1    C5 2746   3.242   0.868   6.914 -1.3505  0.0186 -0.2220
   38CHL1    C6 2747   3.374   0.871   6.942 -0.1476  0.5027  0.4678
   38CHL1    H6 2748   3.439   0.832   6.863 -2.1882 -0.0492 -0.9816
   38CHL1    C7 2749   3.432   0.887   7.082  0.5379 -0.7509 -0.2032
   38CHL1   H7A 2750   3.515   0.816   7.101 -1.0675 -2.4417  0.7553
   38CHL1   H7B 2751   3.472   0.990   7.087 -1.0107 -0.0342 -1.9589
   38CHL1    C8 2752   3.325   0.885   7.196 -0.1829 -0.0033 -0.9751
   38CHL1    H8 2753   3.296   0.780   7.215 -1.8288 -0.0400 -3.3793
   38CHL1   C14 2754   3.389   0.947   7.323 -0.0431  0.2166  0.0081
   38CHL1   H14 2755   3.410   1.050   7.288 -0.8694 -0.5379 -2.8201
   38CHL1   C15 2756   3.529   0.905   7.377  0.9323 -0.0399 -0.4741
   38CHL1  H15A 2757   3.540   0.795   7.368  0.3376 -0.0172 -1.6006
   38CHL1  H15B 2758   3.606   0.950   7.312  1.6096 -1.6177 -0.7764
   38CHL1   C16 2759   3.532   0.937   7.526  0.1581 -0.2273 -0.4496
   38CHL1  H16A 2760   3.551   0.844   7.585 -0.4076 -0.0587 -0.0007
   38CHL1  H16B 2761   3.614   1.008   7.548 -0.2935 -0.5098  2.4315
   38CHL1   C17 2762   3.396   1.012   7.555 -0.2799  0.0329 -0.3517
   38CHL1   H17 2763   3.415   1.110   7.506  0.2470  0.4375  0.6445
   38CHL1   C13 2764   3.298   0.962   7.443 -0.1148  0.2219  0.2475
   38CHL1   C18 2765   3.251   0.823   7.494 -0.2760 -0.5735  0.4162
   38CHL1  H18A 2766   3.165   0.833   7.563 -0.5319  0.7882 -0.0819
   38CHL1  H18B 2767   3.217   0.767   7.404 -0.3982  0.5736 -0.2647
   38CHL1  H18C 2768   3.325   0.752   7.538 -1.8135 -2.3760  0.1919
   38CHL1   C12 2769   3.181   1.054   7.399  0.0697 -0.9820 -0.1476
   38CHL1  H12A 2770   3.116   1.069   7.488  0.4982 -0.3095  0.0571
   38CHL1  H12B 2771   3.220   1.153   7.367 -3.0225  0.7322  1.0662
   38CHL1   C11 2772   3.107   0.992   7.272 -0.6137 -0.0996  0.6869
   38CHL1  H11A 2773   3.057   0.898   7.303 -0.9579 -0.1944 -0.1445
   38CHL1  H11B 2774   3.040   1.075   7.242  0.8315  1.3070  1.2365
   38CHL1    C9 2775   3.200   0.967   7.151 -0.2568  0.8400 -0.1443
   38CHL1    H9 2776   3.248   1.063   7.124  0.0912  0.9751  0.9581
   38CHL1   C10 2777   3.144   0.908   7.022  0.0944 -0.3951 -0.1412
   38CHL1   C19 2778   3.075   0.771   7.065  0.1339 -0.0299  0.5065
   38CHL1  H19A 2779   3.018   0.784   7.159  0.2765  0.3284  0.5404
   38CHL1  H19B 2780   3.000   0.736   6.990  1.1765 -1.0765 -0.0760
   38CHL1  H19C 2781   3.154   0.695   7.086 -0.7287 -1.3796 -0.9590
   38CHL1    C1 2782   3.039   1.008   6.968  0.2927 -0.2002 -0.2048
   38CHL1   H1A 2783   2.960   1.017   7.045  0.3203 -0.6216 -0.1244
   38CHL1   H1B 2784   3.088   1.107   6.953 -0.1650  0.1462  0.5623
   38CHL1    C2 2785   2.990   0.966   6.825  0.0326 -0.8051 -0.6566
   38CHL1   H2A 2786   2.936   1.052   6.781  0.2863  0.5661  1.6557
   38CHL1   H2B 2787   2.921   0.879   6.828 -0.2036 -0.6005 -0.2554
   38CHL1   C20 2788   3.348   1.024   7.695  0.3309 -0.5737  0.3782
   38CHL1   H20 2789   3.238   1.028   7.686  0.2807 -0.2056  1.0881
   38CHL1   C21 2790   3.403   1.162   7.748 -0.3100 -0.4333  0.2367
   38CHL1  H21A 2791   3.513   1.150   7.754  0.1002  2.7415 -0.1400
   38CHL1  H21B 2792   3.363   1.186   7.849  2.2524 -2.3476  1.7848
   38CHL1  H21C 2793   3.391   1.242   7.672  2.0451 -1.1756 -0.9644
   38CHL1   C22 2794   3.385   0.915   7.798  0.4284 -0.8404 -0.4275
   38CHL1  H22A 2795   3.367   0.825   7.735 -0.1665 -0.4142 -0.8764
   38CHL1  H22B 2796   3.496   0.912   7.806  0.5767  0.3921 -1.8358
   38CHL1   C23 2797   3.291   0.910   7.920 -0.2259 -0.5976  0.0092
   38CHL1  H23A 2798   3.323   0.986   7.994  2.1974 -1.1917 -0.3922
   38CHL1  H23B 2799   3.185   0.924   7.888 -0.4338 -1.0265  0.5001
   38CHL1   C24 2800   3.310   0.782   8.004 -0.2303 -0.1866  0.4183
   38CHL1  H24A 2801   3.275   0.685   7.963  0.2038 -1.0115  1.9664
   38CHL1  H24B 2802   3.420   0.775   8.021  0.0748 -0.4097 -1.4904
   38CHL1   C25 2803   3.246   0.784   8.141  0.8609  0.1380 -0.5480
   38CHL1   H25 2804   3.280   0.880   8.186 -1.4076  0.9992 -0.5729
   38CHL1   C26 2805   3.095   0.774   8.138  0.0308  0.0113  0.1014
   38CHL1  H26A 2806   3.046   0.757   8.236 -0.5436 -0.8122 -0.3216
   38CHL1  H26B 2807   3.047   0.859   8.084  2.6865  1.0246 -0.7626
   38CHL1  H26C 2808   3.067   0.694   8.067  0.5521  0.6024 -0.7793
   38CHL1   C27 2809   3.288   0.670   8.234  0.1109  0.0675  0.0523
   38CHL1  H27A 2810   3.396   0.651   8.218 -0.2457 -0.1777 -2.2368
   38CHL1  H27B 2811   3.267   0.690   8.341  1.4730  0.0556  0.3280
   38CHL1  H27C 2812   3.242   0.577   8.195 -0.4303  0.0346  0.7556
   39CHL1    C3 2813   2.789   6.650   7.003  0.7264 -0.4183  0.5757
   39CHL1    H3 2814   2.752   6.733   7.067  1.1277  0.3656 -0.2092
   39CHL1    O3 2815   2.783   6.683   6.866  0.2649  0.7033  0.0803
   39CHL1   H3' 2816   2.781   6.599   6.819  1.6546  0.3194  0.6713
   39CHL1    C4 2817   2.936   6.634   7.053  0.2683 -0.3603 -0.1062
   39CHL1   H4A 2818   2.978   6.554   6.988  0.3131  0.2615 -0.8433
   39CHL1   H4B 2819   2.996   6.722   7.022  1.4337 -1.0193  0.2359
   39CHL1    C5 2820   2.941   6.605   7.200 -0.0732  0.1443  0.2887
   39CHL1    C6 2821   3.014   6.684   7.280  0.4197 -0.8776  0.2600
   39CHL1    H6 2822   3.079   6.766   7.245 -0.0765  0.2582  1.9142
   39CHL1    C7 2823   3.022   6.670   7.434 -0.1137  0.0751  0.1771
   39CHL1   H7A 2824   3.130   6.675   7.457  0.8751  2.3223 -4.3641
   39CHL1   H7B 2825   2.967   6.752   7.486  0.0679  1.0405 -1.1230
   39CHL1    C8 2826   2.967   6.527   7.471  0.2091 -0.4994  0.6390
   39CHL1    H8 2827   3.044   6.452   7.445  1.6405  2.1712 -3.5319
   39CHL1   C14 2828   2.943   6.526   7.618 -0.0433 -0.0418 -0.1786
   39CHL1   H14 2829   2.850   6.584   7.631  0.1603  0.0421  0.9474
   39CHL1   C15 2830   3.052   6.580   7.712  0.1388  0.5590  0.2801
   39CHL1  H15A 2831   3.153   6.539   7.687 -0.1755 -0.1911  0.2340
   39CHL1  H15B 2832   3.067   6.689   7.722  2.3592  0.3353 -0.2289
   39CHL1   C16 2833   3.012   6.526   7.851 -0.1729 -0.7736 -0.5962
   39CHL1  H16A 2834   3.102   6.492   7.906 -0.4930 -0.0500  0.3864
   39CHL1  H16B 2835   2.965   6.602   7.918  0.2232 -0.9121 -0.1575
   39CHL1   C17 2836   2.905   6.417   7.825 -0.0555  0.1000 -0.1270
   39CHL1   H17 2837   2.805   6.462   7.841  0.7082  0.7964  3.0099
   39CHL1   C13 2838   2.915   6.390   7.672  0.8357 -0.4025  0.7557
   39CHL1   C18 2839   3.023   6.282   7.644 -0.3817  0.0739  0.3326
   39CHL1  H18A 2840   3.027   6.265   7.534  1.0823 -1.7195  0.6349
   39CHL1  H18B 2841   3.127   6.304   7.675 -1.5241  1.0243  3.6953
   39CHL1  H18C 2842   2.986   6.184   7.680  1.8527 -0.4995  1.1545
   39CHL1   C12 2843   2.784   6.340   7.610  0.4503  0.0258 -0.5172
   39CHL1  H12A 2844   2.772   6.234   7.638  3.6182  0.3003  2.1602
   39CHL1  H12B 2845   2.699   6.389   7.662  1.0603  0.8139 -0.2481
   39CHL1   C11 2846   2.773   6.359   7.459 -0.1873 -0.0602  0.0287
   39CHL1  H11A 2847   2.839   6.276   7.427 -1.0279  0.2684 -2.6755
   39CHL1  H11B 2848   2.666   6.346   7.431  0.8890 -1.6236 -3.6770
   39CHL1    C9 2849   2.835   6.490   7.403 -0.0924 -0.4572  0.0987
   39CHL1    H9 2850   2.772   6.576   7.434  0.8437 -0.0276  0.8353
   39CHL1   C10 2851   2.840   6.493   7.245 -0.6123 -0.3221  0.3088
   39CHL1   C19 2852   2.893   6.360   7.189  0.4072 -0.2693 -0.8678
   39CHL1  H19A 2853   3.000   6.355   7.218 -0.3076  0.1744  1.9964
   39CHL1  H19B 2854   2.843   6.266   7.220  1.0774 -0.6422 -0.9121
   39CHL1  H19C 2855   2.889   6.363   7.078  0.0778  0.2973 -0.8411
   39CHL1    C1 2856   2.694   6.514   7.185 -0.2958 -0.2508 -0.2785
   39CHL1   H1A 2857   2.629   6.426   7.205 -2.2695  1.6235  1.6955
   39CHL1   H1B 2858   2.645   6.604   7.227 -1.1031 -0.6655 -0.3128
   39CHL1    C2 2859   2.694   6.533   7.029  0.0763 -0.6656 -0.7245
   39CHL1   H2A 2860   2.590   6.558   6.999  0.3709 -0.2529 -1.4186
   39CHL1   H2B 2861   2.733   6.437   6.988 -0.2492 -1.3946  0.6432
   39CHL1   C20 2862   2.918   6.299   7.925  0.0174  0.5137  0.0732
   39CHL1   H20 2863   3.016   6.247   7.919 -0.6163 -1.0400  2.3219
   39CHL1   C21 2864   2.804   6.194   7.905 -0.3402  0.4057  0.0225
   39CHL1  H21A 2865   2.704   6.238   7.887 -0.2093  0.9735  0.6574
   39CHL1  H21B 2866   2.797   6.138   8.001  0.3718  0.2462 -0.0155
   39CHL1  H21C 2867   2.827   6.127   7.820 -0.1126  0.3314  0.1424
   39CHL1   C22 2868   2.916   6.347   8.076  0.2475  0.4739  0.6934
   39CHL1  H22A 2869   2.922   6.458   8.089 -1.9181  0.5651  1.1875
   39CHL1  H22B 2870   2.818   6.312   8.117 -0.0015  0.1920 -0.1427
   39CHL1   C23 2871   3.023   6.285   8.165  0.2431 -0.4820  0.2318
   39CHL1  H23A 2872   3.009   6.175   8.155 -0.3813 -0.4779  0.9878
   39CHL1  H23B 2873   3.122   6.307   8.120  0.1605  0.3716  0.4549
   39CHL1   C24 2874   3.025   6.310   8.314  0.2948 -0.5115 -0.8317
   39CHL1  H24A 2875   3.048   6.418   8.330  2.8303 -1.2880  1.0264
   39CHL1  H24B 2876   2.926   6.277   8.352 -0.8889  3.7078  0.0084
   39CHL1   C25 2877   3.133   6.227   8.382  0.0990 -0.8799 -0.6099
   39CHL1   H25 2878   3.223   6.223   8.318  0.4080  0.9373 -0.3240
   39CHL1   C26 2879   3.180   6.304   8.505  0.1416 -0.1814 -0.1402
   39CHL1  H26A 2880   3.261   6.248   8.556 -1.3406 -1.3648  0.9976
   39CHL1  H26B 2881   3.196   6.409   8.473 -1.6298  0.5138  1.1684
   39CHL1  H26C 2882   3.097   6.299   8.579  0.8554 -2.6112  0.5297
   39CHL1   C27 2883   3.095   6.086   8.409  0.5800  0.2403  0.1740
   39CHL1  H27A 2884   3.194   6.038   8.425 -0.7494 -3.2058 -1.4252
   39CHL1  H27B 2885   3.032   6.077   8.500 -0.3855  0.3440 -0.4770
   39CHL1  H27C 2886   3.056   6.054   8.310  2.6293 -1.8445 -0.0065
   40CHL1    C3 2887   5.180   5.395   6.810  0.4052  0.3777  0.0640
   40CHL1    H3 2888   5.072   5.374   6.827  0.8115 -2.6720 -0.8180
   40CHL1    O3 2889   5.196   5.408   6.671 -0.0442  0.4974  0.4839
   40CHL1   H3' 2890   5.258   5.480   6.659  0.7747 -0.2990 -0.0984
   40CHL1    C4 2891   5.244   5.511   6.882 -0.1376 -0.2809  0.5821
   40CHL1   H4A 2892   5.347   5.527   6.845 -0.0521 -0.0008  0.9471
   40CHL1   H4B 2893   5.180   5.601   6.868 -0.5890 -0.8122 -0.8978
   40CHL1    C5 2894   5.257   5.492   7.033  0.1635 -0.6765  0.8050
   40CHL1    C6 2895   5.194   5.577   7.115 -0.2719 -0.5414  0.4233
   40CHL1    H6 2896   5.127   5.655   7.075 -1.9240 -2.5777 -0.8733
   40CHL1    C7 2897   5.211   5.568   7.267  0.3442 -0.3775  0.1094
   40CHL1   H7A 2898   5.252   5.664   7.306  1.1428 -0.9257  0.6487
   40CHL1   H7B 2899   5.118   5.545   7.324  0.6919  0.2711  0.9524
   40CHL1    C8 2900   5.321   5.456   7.309 -0.7840 -0.2795  0.1694
   40CHL1    H8 2901   5.417   5.507   7.289  0.5573 -2.7195  0.1754
   40CHL1   C14 2902   5.312   5.422   7.463 -0.2906 -0.5769  0.1814
   40CHL1   H14 2903   5.208   5.383   7.473 -1.4577  1.7708 -2.1115
   40CHL1   C15 2904   5.328   5.552   7.549 -0.2332 -0.1157  0.0702
   40CHL1  H15A 2905   5.391   5.633   7.507 -0.7740  0.1535 -0.2294
   40CHL1  H15B 2906   5.229   5.602   7.561  0.3144  0.9532  0.1409
   40CHL1   C16 2907   5.376   5.499   7.687 -0.5789  0.1117  0.3478
   40CHL1  H16A 2908   5.474   5.543   7.713 -1.6458  1.9076  1.3950
   40CHL1  H16B 2909   5.303   5.522   7.768 -0.8548  2.0560 -0.4388
   40CHL1   C17 2910   5.388   5.347   7.668 -0.6067  0.4759 -0.0788
   40CHL1   H17 2911   5.292   5.291   7.681 -0.3224 -0.4241 -1.6812
   40CHL1   C13 2912   5.416   5.322   7.518  0.1864  0.7896  0.6275
   40CHL1   C18 2913   5.565   5.363   7.489 -0.0251 -0.3680  0.4313
   40CHL1  H18A 2914   5.570   5.376   7.379  0.7758 -0.7760  0.4214
   40CHL1  H18B 2915   5.581   5.459   7.542  0.5363  0.4566 -1.2137
   40CHL1  H18C 2916   5.637   5.291   7.531  0.9213  0.8559  0.9296
   40CHL1   C12 2917   5.368   5.189   7.447 -0.0468  0.0773 -0.7436
   40CHL1  H12A 2918   5.440   5.111   7.477 -0.5382  0.1909  0.7451
   40CHL1  H12B 2919   5.267   5.169   7.488  0.2090  1.9320  0.8375
   40CHL1   C11 2920   5.369   5.203   7.288 -0.0553  0.0855  0.6146
   40CHL1  H11A 2921   5.474   5.208   7.250 -0.8444 -2.3110 -2.0582
   40CHL1  H11B 2922   5.330   5.112   7.237  1.2723  0.3650 -0.9363
   40CHL1    C9 2923   5.299   5.330   7.229 -0.0017 -0.7704  0.1806
   40CHL1    H9 2924   5.189   5.317   7.238 -0.7490  1.8407 -3.5363
   40CHL1   C10 2925   5.326   5.361   7.076  0.5203  0.0384 -0.6889
   40CHL1   C19 2926   5.470   5.372   7.043 -0.1394 -0.1210  0.5049
   40CHL1  H19A 2927   5.500   5.407   6.942 -0.1083 -0.2681  0.4645
   40CHL1  H19B 2928   5.523   5.439   7.114 -1.1994  0.5777  0.6639
   40CHL1  H19C 2929   5.514   5.272   7.061  0.2768 -0.1032 -0.3956
   40CHL1    C1 2930   5.267   5.238   6.997 -0.4030 -1.2403  0.4207
   40CHL1   H1A 2931   5.341   5.157   7.010  0.6952 -0.4794 -0.9221
   40CHL1   H1B 2932   5.166   5.211   7.035 -1.1425  0.4258 -0.2918
   40CHL1    C2 2933   5.260   5.268   6.845 -0.2188 -0.0033  0.4793
   40CHL1   H2A 2934   5.204   5.192   6.786 -0.3342 -0.1608  0.7952
   40CHL1   H2B 2935   5.363   5.283   6.806 -0.7502  1.3079 -0.4848
   40CHL1   C20 2936   5.486   5.295   7.771  0.2130 -0.3011  0.3783
   40CHL1   H20 2937   5.586   5.334   7.743 -0.0771  1.0652  1.1788
   40CHL1   C21 2938   5.490   5.144   7.769  0.5868  0.4968  0.0383
   40CHL1  H21A 2939   5.522   5.102   7.671  1.3468 -0.1556  0.5601
   40CHL1  H21B 2940   5.392   5.099   7.796  0.3726 -0.6574 -2.4804
   40CHL1  H21C 2941   5.564   5.108   7.843  0.6113  0.0320 -0.2081
   40CHL1   C22 2942   5.470   5.348   7.910  0.3893  0.7246 -0.6702
   40CHL1  H22A 2943   5.540   5.299   7.981 -0.1276 -0.9124 -1.2587
   40CHL1  H22B 2944   5.489   5.458   7.910  0.5938  0.6931 -0.1035
   40CHL1   C23 2945   5.333   5.328   7.979  0.9886 -0.0129 -0.3143
   40CHL1  H23A 2946   5.266   5.383   7.909 -0.6670 -2.3809 -0.6652
   40CHL1  H23B 2947   5.314   5.219   7.994  2.7808 -0.9855 -4.4715
   40CHL1   C24 2948   5.305   5.404   8.110  0.3658 -0.1625  0.5462
   40CHL1  H24A 2949   5.384   5.374   8.182 -0.5496 -1.6652  0.9528
   40CHL1  H24B 2950   5.307   5.513   8.092 -0.5628 -0.4998 -1.7183
   40CHL1   C25 2951   5.176   5.361   8.167 -0.4397 -0.1948  0.6860
   40CHL1   H25 2952   5.174   5.255   8.198  1.0839 -1.3657 -2.9628
   40CHL1   C26 2953   5.146   5.450   8.281  0.0922 -0.5168 -0.4264
   40CHL1  H26A 2954   5.227   5.456   8.357  0.9236 -0.4947 -1.3098
   40CHL1  H26B 2955   5.118   5.550   8.240 -0.0421  0.0773  1.0842
   40CHL1  H26C 2956   5.053   5.419   8.333 -0.3375  0.1033 -0.8105
   40CHL1   C27 2957   5.061   5.379   8.076 -0.7662  0.0317  0.6929
   40CHL1  H27A 2958   5.061   5.301   7.997 -0.2576  0.2140  0.5080
   40CHL1  H27B 2959   4.956   5.370   8.111 -1.5706 -0.0182 -1.5940
   40CHL1  H27C 2960   5.082   5.472   8.019  1.0761 -0.8944 -0.2105
   41CHL1    C3 2961   5.944   5.628   7.025 -0.2434  0.6339  0.2530
   41CHL1    H3 2962   5.896   5.728   7.038 -0.2131  0.5519  1.0213
   41CHL1    O3 2963   5.948   5.587   6.891 -0.3265 -0.0830 -0.2399
   41CHL1   H3' 2964   5.993   5.502   6.898 -0.7482 -0.3206 -0.3770
   41CHL1    C4 2965   6.094   5.635   7.082  0.9269 -0.0584  0.3291
   41CHL1   H4A 2966   6.150   5.542   7.059  2.5625  0.2357  2.8965
   41CHL1   H4B 2967   6.141   5.719   7.026 -1.4211  0.7410 -0.4817
   41CHL1    C5 2968   6.100   5.651   7.228 -0.8737 -0.8319  0.5370
   41CHL1    C6 2969   6.173   5.752   7.276 -0.0417  0.7145  0.5278
   41CHL1    H6 2970   6.240   5.802   7.205  0.8382  0.6734  1.3231
   41CHL1    C7 2971   6.182   5.770   7.428  0.2714  0.1067  0.8643
   41CHL1   H7A 2972   6.285   5.796   7.461  0.8993 -1.5179  0.2710
   41CHL1   H7B 2973   6.128   5.864   7.451 -1.6486 -0.3726 -1.4158
   41CHL1    C8 2974   6.120   5.662   7.522  0.7098  0.1678  0.7110
   41CHL1    H8 2975   6.198   5.584   7.539 -0.3076 -0.6604  1.6567
   41CHL1   C14 2976   6.087   5.726   7.661 -0.7164  0.2420  0.1177
   41CHL1   H14 2977   6.017   5.809   7.639 -1.1969  0.4909  2.5499
   41CHL1   C15 2978   6.195   5.802   7.735  0.4074 -0.6009  0.1874
   41CHL1  H15A 2979   6.278   5.729   7.738  0.3351 -0.6250  2.4566
   41CHL1  H15B 2980   6.231   5.896   7.689 -0.0185 -0.2578  0.5488
   41CHL1   C16 2981   6.140   5.825   7.875  0.0791  0.6650 -0.0229
   41CHL1  H16A 2982   6.210   5.799   7.957 -0.8781  0.3746  0.7069
   41CHL1  H16B 2983   6.111   5.929   7.902 -0.6394  0.2114  0.9940
   41CHL1   C17 2984   6.009   5.730   7.884  0.2680  0.1344  0.6586
   41CHL1   H17 2985   5.930   5.806   7.862  1.9091  1.2970 -1.3838
   41CHL1   C13 2986   6.023   5.630   7.759 -0.2409 -0.7229  0.7782
   41CHL1   C18 2987   6.124   5.516   7.792 -0.3192  0.3698 -0.1039
   41CHL1  H18A 2988   6.159   5.467   7.698  0.0159  0.0656  0.1803
   41CHL1  H18B 2989   6.207   5.578   7.832 -0.0402  0.6212 -1.0457
   41CHL1  H18C 2990   6.099   5.442   7.871  0.2307  0.2240 -0.0604
   41CHL1   C12 2991   5.891   5.579   7.696 -0.0026  0.0899  0.2925
   41CHL1  H12A 2992   5.853   5.493   7.755 -1.3934  0.3861 -0.1459
   41CHL1  H12B 2993   5.823   5.667   7.696  0.6928  0.6367 -0.2922
   41CHL1   C11 2994   5.911   5.519   7.557 -0.2604 -0.2132  0.1792
   41CHL1  H11A 2995   5.977   5.432   7.574 -1.8883 -0.8095  3.8207
   41CHL1  H11B 2996   5.813   5.489   7.512 -0.2317 -1.0092  0.6382
   41CHL1    C9 2997   5.991   5.616   7.457  0.0565 -0.1302 -0.8320
   41CHL1    H9 2998   5.937   5.713   7.453  1.4959  0.6568 -1.7691
   41CHL1   C10 2999   6.000   5.563   7.313 -0.4268 -0.1905  0.8346
   41CHL1   C19 3000   6.054   5.416   7.330 -0.7678  1.0716  0.4478
   41CHL1  H19A 3001   6.092   5.374   7.234 -0.9711  3.4292 -0.7019
   41CHL1  H19B 3002   6.136   5.414   7.405  0.6317 -0.6567 -1.0764
   41CHL1  H19C 3003   5.971   5.346   7.352 -0.1869  1.4973  4.3058
   41CHL1    C1 3004   5.857   5.569   7.247 -0.3274  0.0041 -0.2686
   41CHL1   H1A 3005   5.777   5.511   7.297 -1.8712  2.4020  0.1157
   41CHL1   H1B 3006   5.827   5.675   7.257 -0.1038 -0.0215  0.7959
   41CHL1    C2 3007   5.865   5.529   7.103  1.3771 -0.2697 -0.7643
   41CHL1   H2A 3008   5.763   5.530   7.059  1.0369  3.0879 -0.0092
   41CHL1   H2B 3009   5.910   5.428   7.094  1.1452 -0.3516 -1.0027
   41CHL1   C20 3010   5.974   5.671   8.018 -0.7880 -0.2589 -0.4091
   41CHL1   H20 3011   6.023   5.571   8.027 -0.2413 -0.0339 -0.8427
   41CHL1   C21 3012   5.823   5.641   8.024  0.2128  0.0846 -0.0253
   41CHL1  H21A 3013   5.785   5.568   7.949 -1.5375 -0.0789  1.0116
   41CHL1  H21B 3014   5.769   5.735   7.999 -0.0936 -0.3950 -1.2092
   41CHL1  H21C 3015   5.796   5.603   8.124  0.3493 -3.5369 -1.3152
   41CHL1   C22 3016   5.999   5.761   8.136 -0.2610 -0.2750 -0.6927
   41CHL1  H22A 3017   6.101   5.805   8.146  0.2094 -1.5335  0.0741
   41CHL1  H22B 3018   5.923   5.842   8.131  0.1832  0.1306 -0.9951
   41CHL1   C23 3019   5.992   5.694   8.272 -0.1549  0.1794  0.8731
   41CHL1  H23A 3020   5.886   5.684   8.305  0.2349 -0.5868  1.9062
   41CHL1  H23B 3021   6.036   5.592   8.272 -1.1816 -0.2879 -0.7633
   41CHL1   C24 3022   6.075   5.766   8.383  0.0368 -0.6246 -0.7814
   41CHL1  H24A 3023   6.184   5.764   8.366  0.3372  0.8564  0.8159
   41CHL1  H24B 3024   6.031   5.868   8.390  2.6655  0.5362 -0.4738
   41CHL1   C25 3025   6.066   5.718   8.531  0.0255 -0.0344 -0.2719
   41CHL1   H25 3026   5.958   5.728   8.555  0.0710  1.7858 -0.7794
   41CHL1   C26 3027   6.106   5.568   8.539 -0.0451  0.2493  0.8425
   41CHL1  H26A 3028   6.071   5.522   8.634 -1.6993 -0.5371 -0.1221
   41CHL1  H26B 3029   6.066   5.494   8.466 -1.1045 -1.0460  2.6591
   41CHL1  H26C 3030   6.216   5.561   8.526 -0.3297  1.5191 -2.6780
   41CHL1   C27 3031   6.159   5.802   8.622 -0.5322 -0.4856  0.3186
   41CHL1  H27A 3032   6.265   5.795   8.590 -0.4803 -0.6874  0.5342
   41CHL1  H27B 3033   6.137   5.911   8.612 -1.2489 -0.4631  1.9435
   41CHL1  H27C 3034   6.144   5.769   8.727 -0.8553  1.1309  0.8066
   42CHL1    C3 3035   0.686   2.829   7.027  0.3594  0.2823 -0.1633
   42CHL1    H3 3036   0.596   2.887   7.057  0.5210 -0.3549  1.6264
   42CHL1    O3 3037   0.690   2.824   6.890  0.4186 -0.0341  0.7734
   42CHL1   H3' 3038   0.653   2.739   6.866  0.6011  0.3976 -1.1830
   42CHL1    C4 3039   0.807   2.898   7.083  0.7613  0.1826  0.7782
   42CHL1   H4A 3040   0.901   2.847   7.053  0.6335  2.1354 -3.2223
   42CHL1   H4B 3041   0.806   2.999   7.038  0.1788  0.0959  0.5906
   42CHL1    C5 3042   0.788   2.906   7.237  0.2825  0.8929 -0.7168
   42CHL1    C6 3043   0.792   3.025   7.297  0.3353  0.4340 -0.1265
   42CHL1    H6 3044   0.806   3.121   7.246  0.6521 -1.1584 -3.1360
   42CHL1    C7 3045   0.783   3.041   7.442 -0.1961  0.2270 -0.2037
   42CHL1   H7A 3046   0.879   3.089   7.470 -0.6752  0.6693  0.7285
   42CHL1   H7B 3047   0.699   3.106   7.478 -0.1901 -0.2203  0.6480
   42CHL1    C8 3048   0.791   2.905   7.520 -0.0373 -0.1515 -0.5591
   42CHL1    H8 3049   0.897   2.876   7.530  0.2595  0.6858 -1.2227
   42CHL1   C14 3050   0.731   2.930   7.659  0.2263 -0.3865 -0.5668
   42CHL1   H14 3051   0.625   2.960   7.643 -0.1439 -0.2795  1.8276
   42CHL1   C15 3052   0.799   3.035   7.747 -0.1867 -0.4404 -0.9657
   42CHL1  H15A 3053   0.909   3.036   7.733 -0.1379  0.8974 -0.5914
   42CHL1  H15B 3054   0.782   3.141   7.716  0.8697  0.1138  0.3141
   42CHL1   C16 3055   0.748   3.005   7.890 -0.6647 -0.0599 -0.5770
   42CHL1  H16A 3056   0.841   3.000   7.951 -0.1128  0.1611 -1.3926
   42CHL1  H16B 3057   0.682   3.091   7.916  0.5794  0.3899  1.1506
   42CHL1   C17 3058   0.686   2.866   7.892  0.1248  0.3066 -0.5355
   42CHL1   H17 3059   0.577   2.879   7.905  0.1186 -1.3024  1.3581
   42CHL1   C13 3060   0.723   2.804   7.752 -0.8924 -0.4293  0.5948
   42CHL1   C18 3061   0.871   2.755   7.775 -0.1363  0.3098  0.4725
   42CHL1  H18A 3062   0.874   2.650   7.813  1.1259 -0.6757 -2.2828
   42CHL1  H18B 3063   0.915   2.748   7.674  1.0392  0.5621  0.9604
   42CHL1  H18C 3064   0.926   2.828   7.839  0.9237  1.4245 -1.6668
   42CHL1   C12 3065   0.634   2.700   7.689  0.3080 -0.5445 -0.3449
   42CHL1  H12A 3066   0.624   2.602   7.740  2.0009 -1.3506 -1.5461
   42CHL1  H12B 3067   0.528   2.733   7.685  0.5692  0.1220 -2.0234
   42CHL1   C11 3068   0.690   2.675   7.548 -0.1313 -0.0099 -0.1658
   42CHL1  H11A 3069   0.781   2.612   7.562 -0.6963 -0.4289  1.8233
   42CHL1  H11B 3070   0.615   2.607   7.501  0.9035 -1.2975  0.0206
   42CHL1    C9 3071   0.706   2.801   7.458  0.0354  0.3065  0.2842
   42CHL1    H9 3072   0.607   2.847   7.441  0.6404  1.6295  0.2842
   42CHL1   C10 3073   0.753   2.774   7.313 -0.2962 -0.2074  0.0444
   42CHL1   C19 3074   0.889   2.700   7.310 -0.0473 -0.4153  0.5085
   42CHL1  H19A 3075   0.953   2.721   7.398  0.8524 -0.9460 -0.0173
   42CHL1  H19B 3076   0.872   2.591   7.318 -0.7405 -0.3641 -0.2104
   42CHL1  H19C 3077   0.943   2.723   7.215  0.0841 -1.2688  0.3768
   42CHL1    C1 3078   0.648   2.693   7.230  1.5869  0.7892  0.6782
   42CHL1   H1A 3079   0.639   2.592   7.277  1.2866  0.1437 -0.7563
   42CHL1   H1B 3080   0.547   2.735   7.253  0.2910 -0.7582 -1.9933
   42CHL1    C2 3081   0.666   2.686   7.078  1.0148  0.5677  0.2085
   42CHL1   H2A 3082   0.575   2.643   7.031  1.8436 -1.9877  0.8821
   42CHL1   H2B 3083   0.746   2.619   7.039 -1.0150 -1.3347 -0.7645
   42CHL1   C20 3084   0.718   2.793   8.025  0.0803  0.2801  0.2347
   42CHL1   H20 3085   0.824   2.760   8.027 -0.7193 -2.5232 -0.5977
   42CHL1   C21 3086   0.629   2.668   8.032 -0.2704  0.0353  0.7563
   42CHL1  H21A 3087   0.670   2.593   7.960 -1.2808 -1.6869  1.9228
   42CHL1  H21B 3088   0.524   2.679   7.998 -0.1078 -3.3926 -1.0693
   42CHL1  H21C 3089   0.635   2.630   8.137  0.6065 -0.5559  0.4987
   42CHL1   C22 3090   0.686   2.882   8.146  0.0641  0.3809 -0.4007
   42CHL1  H22A 3091   0.737   2.981   8.145  3.5141 -1.3208  0.1974
   42CHL1  H22B 3092   0.576   2.897   8.153 -0.0104 -1.2762  3.4320
   42CHL1   C23 3093   0.741   2.815   8.276 -0.2179 -0.4267 -0.0709
   42CHL1  H23A 3094   0.681   2.726   8.302 -0.5580  0.1497  1.1798
   42CHL1  H23B 3095   0.849   2.787   8.273 -0.0532 -0.2058  2.2675
   42CHL1   C24 3096   0.737   2.909   8.408 -0.4445  0.0663 -0.9840
   42CHL1  H24A 3097   0.762   2.851   8.499 -0.0314 -0.4909 -1.4476
   42CHL1  H24B 3098   0.820   2.981   8.391  0.6782 -0.7445  0.9289
   42CHL1   C25 3099   0.604   2.990   8.429  0.7803 -0.0748  0.1606
   42CHL1   H25 3100   0.568   3.035   8.334 -0.7957  1.3792  1.4191
   42CHL1   C26 3101   0.486   2.892   8.480 -0.0051  1.0014  0.3262
   42CHL1  H26A 3102   0.391   2.949   8.484 -1.0504 -0.6527 -0.3664
   42CHL1  H26B 3103   0.477   2.800   8.418  0.3922  0.8635  0.4721
   42CHL1  H26C 3104   0.518   2.864   8.583  0.2391 -1.5287 -0.3972
   42CHL1   C27 3105   0.617   3.107   8.524  0.0231 -0.4446  0.6141
   42CHL1  H27A 3106   0.696   3.178   8.494 -0.2154  1.3185  3.9069
   42CHL1  H27B 3107   0.645   3.070   8.625 -1.1745 -1.2042  0.6833
   42CHL1  H27C 3108   0.522   3.163   8.539  0.5092  0.1845  1.3569
   43CHL1    C3 3109   0.444   0.102   6.880 -0.7227 -0.0499  0.0195
   43CHL1    H3 3110   0.532   0.169   6.888 -0.4521 -0.3283 -0.5949
   43CHL1    O3 3111   0.428   0.066   6.747  0.0146 -0.3877  0.1198
   43CHL1   H3' 3112   0.340   0.028   6.737 -0.0342  0.0024 -1.0061
   43CHL1    C4 3113   0.465  -0.030   6.962  0.0632  0.2450 -0.3738
   43CHL1   H4A 3114   0.377  -0.098   6.958  1.3846 -1.7107  2.0254
   43CHL1   H4B 3115   0.543  -0.098   6.923  0.8082  0.3517  0.8979
   43CHL1    C5 3116   0.491  -0.004   7.109 -0.6882 -0.7866  0.8374
   43CHL1    C6 3117   0.599  -0.046   7.170 -0.1753 -0.1179 -0.0269
   43CHL1    H6 3118   0.672  -0.113   7.122  0.9333  0.2967  1.0455
   43CHL1    C7 3119   0.643  -0.018   7.309  0.1091  0.1903  0.5519
   43CHL1   H7A 3120   0.693  -0.102   7.361 -0.9786 -0.9174 -0.1540
   43CHL1   H7B 3121   0.710   0.069   7.296 -0.7549  0.7225 -0.4515
   43CHL1    C8 3122   0.525   0.049   7.384 -0.7725  0.0112 -0.4474
   43CHL1    H8 3123   0.464  -0.038   7.416  0.0063  0.5381  2.6789
   43CHL1   C14 3124   0.585   0.133   7.500 -0.3280 -0.0355 -0.6305
   43CHL1   H14 3125   0.645   0.209   7.444  1.0011 -0.5478  0.0688
   43CHL1   C15 3126   0.684   0.057   7.594  1.2121  0.1817 -0.6636
   43CHL1  H15A 3127   0.642  -0.038   7.633  1.2695  0.4454  0.0496
   43CHL1  H15B 3128   0.779   0.039   7.540  0.5804 -2.7174 -0.9007
   43CHL1   C16 3129   0.684   0.147   7.721  0.2619  0.4435 -0.1551
   43CHL1  H16A 3130   0.653   0.083   7.806  2.4600  0.5819  0.7782
   43CHL1  H16B 3131   0.786   0.183   7.747  0.6220 -1.8864  1.9114
   43CHL1   C17 3132   0.569   0.255   7.710  0.2676 -0.4045  0.4053
   43CHL1   H17 3133   0.607   0.348   7.663 -0.1364  0.4719  1.7529
   43CHL1   C13 3134   0.482   0.195   7.593 -0.2233 -0.0976  0.5148
   43CHL1   C18 3135   0.393   0.088   7.661 -0.4291  0.2931 -0.0755
   43CHL1  H18A 3136   0.341   0.029   7.583 -0.5538 -0.4558  0.5652
   43CHL1  H18B 3137   0.454   0.021   7.726 -0.9377  0.0147  0.1096
   43CHL1  H18C 3138   0.301   0.116   7.717 -1.5084  0.6222 -1.9894
   43CHL1   C12 3139   0.410   0.298   7.507  0.3890  0.0113  0.2296
   43CHL1  H12A 3140   0.328   0.340   7.568  0.4307 -0.6491  0.7490
   43CHL1  H12B 3141   0.475   0.380   7.472  2.0248 -0.8933  1.1076
   43CHL1   C11 3142   0.336   0.233   7.388  0.2542  0.1761  0.1065
   43CHL1  H11A 3143   0.252   0.173   7.429 -0.3715  2.2271  1.9487
   43CHL1  H11B 3144   0.294   0.311   7.321 -0.8391 -1.7168 -1.4385
   43CHL1    C9 3145   0.447   0.150   7.306 -0.1459  0.2350  0.2558
   43CHL1    H9 3146   0.525   0.222   7.270 -0.4209 -0.0004 -0.8298
   43CHL1   C10 3147   0.385   0.097   7.171 -0.5050 -0.0969 -0.1824
   43CHL1   C19 3148   0.261   0.028   7.209 -0.2543  0.1840 -0.2397
   43CHL1  H19A 3149   0.228  -0.047   7.134 -0.8758 -2.4005  2.4711
   43CHL1  H19B 3150   0.277  -0.019   7.309 -0.6621 -1.9159 -1.1418
   43CHL1  H19C 3151   0.176   0.099   7.222  0.6597  1.1485  0.6343
   43CHL1    C1 3152   0.342   0.219   7.083 -0.4724 -0.2442  0.0729
   43CHL1   H1A 3153   0.252   0.272   7.119 -0.6014 -0.4040 -0.0132
   43CHL1   H1B 3154   0.425   0.291   7.100 -0.2613 -0.9004  1.9735
   43CHL1    C2 3155   0.323   0.184   6.930 -0.2823 -0.0572 -0.0843
   43CHL1   H2A 3156   0.315   0.271   6.862  0.0228 -0.8506 -1.1524
   43CHL1   H2B 3157   0.230   0.126   6.912  0.4359 -2.1682  2.5579
   43CHL1   C20 3158   0.505   0.280   7.847 -0.5799 -1.0486  0.5418
   43CHL1   H20 3159   0.471   0.178   7.875  0.2578 -0.9133  2.1028
   43CHL1   C21 3160   0.394   0.386   7.843  0.5961  0.3331  0.4228
   43CHL1  H21A 3161   0.358   0.417   7.943 -2.3081  1.6968 -0.9722
   43CHL1  H21B 3162   0.306   0.337   7.796  1.7340  0.4389 -1.9217
   43CHL1  H21C 3163   0.407   0.476   7.779  0.1870  0.7329  0.9046
   43CHL1   C22 3164   0.610   0.328   7.951  0.1769  0.1248  0.2547
   43CHL1  H22A 3165   0.714   0.295   7.927  0.8251  0.8805  1.9508
   43CHL1  H22B 3166   0.626   0.438   7.945  0.9436 -0.0710 -1.7481
   43CHL1   C23 3167   0.554   0.298   8.091  0.4896  0.0802  1.0909
   43CHL1  H23A 3168   0.459   0.350   8.118  0.3413  0.2490  0.2429
   43CHL1  H23B 3169   0.521   0.192   8.083 -1.2567  0.6782  0.1109
   43CHL1   C24 3170   0.655   0.323   8.205 -0.0363 -0.0395 -0.4444
   43CHL1  H24A 3171   0.741   0.254   8.197 -0.5540 -0.9216  1.5382
   43CHL1  H24B 3172   0.698   0.423   8.179  0.0061  0.6022  1.9699
   43CHL1   C25 3173   0.594   0.338   8.343  0.0568  0.9846  0.4108
   43CHL1   H25 3174   0.508   0.408   8.337  1.0203  2.2109  0.8673
   43CHL1   C26 3175   0.554   0.200   8.400 -0.2461  0.4321  0.3290
   43CHL1  H26A 3176   0.639   0.130   8.386  0.9610  1.6684  1.4044
   43CHL1  H26B 3177   0.531   0.219   8.507 -2.3513 -0.5006  0.0894
   43CHL1  H26C 3178   0.473   0.151   8.341  2.5699  0.3340 -3.5974
   43CHL1   C27 3179   0.697   0.406   8.434  0.8611  0.2702 -0.0536
   43CHL1  H27A 3180   0.646   0.441   8.526  1.2728  2.0033 -0.4613
   43CHL1  H27B 3181   0.780   0.338   8.460  0.4870  0.7138  2.4643
   43CHL1  H27C 3182   0.726   0.500   8.383  1.0842  0.9626  1.3282
   44CHL1    C3 3183   0.238   5.599   6.748  0.7384 -0.2807  0.6971
   44CHL1    H3 3184   0.297   5.693   6.749 -0.2996  0.4367 -1.8934
   44CHL1    O3 3185   0.181   5.574   6.615  0.1804 -0.3517 -0.2004
   44CHL1   H3' 3186   0.126   5.497   6.632 -0.2643  0.3616  1.7032
   44CHL1    C4 3187   0.337   5.487   6.792  0.6584  0.4877  0.0893
   44CHL1   H4A 3188   0.294   5.392   6.754 -1.8587  2.3286 -1.8525
   44CHL1   H4B 3189   0.428   5.490   6.729  0.0475  0.6015 -0.7988
   44CHL1    C5 3190   0.373   5.473   6.941 -0.3406 -0.1389  0.1040
   44CHL1    C6 3191   0.505   5.462   6.986 -0.3959 -0.0260  0.2711
   44CHL1    H6 3192   0.587   5.465   6.913  0.5055  1.2947  1.3082
   44CHL1    C7 3193   0.544   5.450   7.128  0.1566  0.0852 -0.1364
   44CHL1   H7A 3194   0.598   5.356   7.151  1.8946  1.2914  0.8442
   44CHL1   H7B 3195   0.617   5.528   7.156  2.9077 -1.9608 -1.3847
   44CHL1    C8 3196   0.421   5.443   7.220 -0.1030  0.2949  0.2488
   44CHL1    H8 3197   0.389   5.337   7.216  0.0492  0.2818 -0.6255
   44CHL1   C14 3198   0.472   5.460   7.363  0.0109 -0.0018  0.7420
   44CHL1   H14 3199   0.513   5.563   7.370 -1.1649  0.6352 -1.2377
   44CHL1   C15 3200   0.578   5.365   7.419  0.2996 -0.3841  0.1135
   44CHL1  H15A 3201   0.580   5.259   7.386 -1.2769 -0.6027  0.6525
   44CHL1  H15B 3202   0.678   5.405   7.392 -1.7391  3.2858 -2.4691
   44CHL1   C16 3203   0.568   5.374   7.576  0.2940  0.0856  0.5446
   44CHL1  H16A 3204   0.573   5.274   7.623  1.9057 -0.7514 -1.3121
   44CHL1  H16B 3205   0.663   5.421   7.608  0.8982  0.0855 -1.1695
   44CHL1   C17 3206   0.440   5.452   7.598  0.7522  0.3404  0.4385
   44CHL1   H17 3207   0.473   5.557   7.606 -0.9506  0.9699 -0.6255
   44CHL1   C13 3208   0.358   5.442   7.468  0.2266  0.2286  0.3176
   44CHL1   C18 3209   0.300   5.292   7.467 -0.0944  0.4675  0.6882
   44CHL1  H18A 3210   0.379   5.214   7.460 -0.0703  0.5786 -0.4327
   44CHL1  H18B 3211   0.224   5.279   7.546 -2.3668  3.0158 -0.9898
   44CHL1  H18C 3212   0.241   5.273   7.375  0.8395  1.0183 -0.0422
   44CHL1   C12 3213   0.248   5.538   7.438 -0.1250 -0.2207  0.0535
   44CHL1  H12A 3214   0.159   5.515   7.501  0.4931  0.8395  1.3397
   44CHL1  H12B 3215   0.270   5.647   7.446  0.9449 -0.4608  0.3577
   44CHL1   C11 3216   0.192   5.526   7.292  0.2940  0.1812  0.4790
   44CHL1  H11A 3217   0.144   5.426   7.283  1.3057 -0.4196  1.5139
   44CHL1  H11B 3218   0.115   5.605   7.281 -0.8872 -0.8824  0.9946
   44CHL1    C9 3219   0.302   5.532   7.186  0.0205  0.0472  0.0403
   44CHL1    H9 3220   0.349   5.633   7.190 -1.7089  0.8772 -0.0925
   44CHL1   C10 3221   0.259   5.498   7.036 -0.2903  0.5119 -0.4918
   44CHL1   C19 3222   0.176   5.361   7.031 -0.3747 -0.4123 -0.0769
   44CHL1  H19A 3223   0.174   5.302   6.937 -0.8668  0.5727 -0.6940
   44CHL1  H19B 3224   0.200   5.285   7.108 -3.2574 -0.5688  0.7505
   44CHL1  H19C 3225   0.072   5.395   7.053 -0.4085 -0.8641  0.4797
   44CHL1    C1 3226   0.177   5.617   6.988 -0.4618 -0.2184 -0.6524
   44CHL1   H1A 3227   0.088   5.628   7.053  0.5064 -1.1267  0.8448
   44CHL1   H1B 3228   0.234   5.711   7.004  1.3152 -0.7903 -3.2395
   44CHL1    C2 3229   0.118   5.600   6.847  0.3755  0.6819  0.1966
   44CHL1   H2A 3230   0.050   5.678   6.806  0.1070 -0.0847 -0.8435
   44CHL1   H2B 3231   0.053   5.511   6.831  0.6294  0.5863 -0.3260
   44CHL1   C20 3232   0.381   5.427   7.735 -0.4149 -0.1899  0.3370
   44CHL1   H20 3233   0.354   5.320   7.746  0.6074 -0.1793  3.3172
   44CHL1   C21 3234   0.252   5.508   7.763 -0.1606 -0.5992  0.6087
   44CHL1  H21A 3235   0.165   5.474   7.703  1.0983  0.1175 -1.6708
   44CHL1  H21B 3236   0.267   5.614   7.735 -0.0741 -1.4330 -2.6050
   44CHL1  H21C 3237   0.224   5.513   7.871 -0.1624  0.4777  0.5640
   44CHL1   C22 3238   0.486   5.436   7.846  0.2190 -0.1897 -0.6374
   44CHL1  H22A 3239   0.566   5.363   7.824  2.4568  2.6554 -2.2358
   44CHL1  H22B 3240   0.537   5.535   7.839  2.4666 -1.2330  0.6302
   44CHL1   C23 3241   0.450   5.391   7.989  0.0281  0.1681 -0.3439
   44CHL1  H23A 3242   0.361   5.451   8.015 -1.4015 -1.5534 -1.1356
   44CHL1  H23B 3243   0.416   5.286   7.977  1.6692 -0.2268 -1.8111
   44CHL1   C24 3244   0.558   5.413   8.090  0.1030  0.0125 -0.3613
   44CHL1  H24A 3245   0.652   5.358   8.069 -0.2772 -0.7818 -0.0032
   44CHL1  H24B 3246   0.578   5.521   8.099 -0.3570  0.2090 -1.4740
   44CHL1   C25 3247   0.525   5.387   8.238  0.2123  0.0092 -0.2472
   44CHL1   H25 3248   0.421   5.420   8.260  0.5500 -0.0049  1.4166
   44CHL1   C26 3249   0.522   5.240   8.248  0.0173 -0.6942 -0.2761
   44CHL1  H26A 3250   0.447   5.192   8.182  0.6348 -0.5748 -1.0724
   44CHL1  H26B 3251   0.624   5.196   8.235 -1.1109 -3.3882 -0.4560
   44CHL1  H26C 3252   0.492   5.212   8.351  0.3097  0.7654  0.2113
   44CHL1   C27 3253   0.635   5.444   8.332  0.4314  0.0182  0.6171
   44CHL1  H27A 3254   0.633   5.388   8.427 -3.7094 -1.5055 -0.2498
   44CHL1  H27B 3255   0.739   5.431   8.294  0.2972  2.6366 -0.8328
   44CHL1  H27C 3256   0.613   5.551   8.354 -1.7447 -0.4716  0.9402
   45CHL1    C3 3257   1.222   3.716   6.648  0.4051  0.0686 -0.0258
   45CHL1    H3 3258   1.130   3.722   6.709  0.8688  2.0034  0.5076
   45CHL1    O3 3259   1.199   3.747   6.512 -0.0325 -0.5702  0.4550
   45CHL1   H3' 3260   1.274   3.704   6.471  0.7027 -0.1920  1.3799
   45CHL1    C4 3261   1.318   3.812   6.715  0.4254  0.0056  0.2995
   45CHL1   H4A 3262   1.404   3.806   6.645  0.3214  2.5556 -0.0794
   45CHL1   H4B 3263   1.274   3.914   6.709 -1.0320 -0.7560 -4.3623
   45CHL1    C5 3264   1.364   3.772   6.854  0.2896 -0.2875 -0.1937
   45CHL1    C6 3265   1.360   3.858   6.955 -0.1217  0.3521 -0.3174
   45CHL1    H6 3266   1.339   3.964   6.935 -2.4545 -0.0245  0.0253
   45CHL1    C7 3267   1.410   3.838   7.103 -0.9976  0.3371 -0.2065
   45CHL1   H7A 3268   1.487   3.915   7.127 -0.3616 -0.9003  1.8615
   45CHL1   H7B 3269   1.323   3.851   7.170 -1.3310  4.6667 -1.3220
   45CHL1    C8 3270   1.459   3.685   7.129  0.2622  0.6439  0.7025
   45CHL1    H8 3271   1.566   3.679   7.098  0.0528 -2.4569  0.4131
   45CHL1   C14 3272   1.444   3.638   7.268  0.0844 -1.1263  0.4698
   45CHL1   H14 3273   1.340   3.646   7.304  0.3588 -0.3622  1.1023
   45CHL1   C15 3274   1.531   3.719   7.368  0.1050 -0.0719 -0.3105
   45CHL1  H15A 3275   1.630   3.738   7.322 -0.0337  0.6399 -0.3157
   45CHL1  H15B 3276   1.482   3.818   7.380  0.5137  0.5885 -3.4884
   45CHL1   C16 3277   1.526   3.627   7.492 -0.3050 -0.1197  0.2646
   45CHL1  H16A 3278   1.632   3.629   7.525 -0.2431  0.1317  0.0529
   45CHL1  H16B 3279   1.458   3.671   7.568 -1.4877 -0.1681 -0.7372
   45CHL1   C17 3280   1.475   3.484   7.444  0.4185  0.5467 -0.0809
   45CHL1   H17 3281   1.365   3.472   7.455  0.7676 -0.3939  2.7553
   45CHL1   C13 3282   1.500   3.492   7.289  0.1101 -0.2126  0.0362
   45CHL1   C18 3283   1.648   3.471   7.248 -0.7052  0.2885  0.5990
   45CHL1  H18A 3284   1.680   3.365   7.240  1.8481  1.1297 -0.6112
   45CHL1  H18B 3285   1.661   3.511   7.146  2.0605 -1.4630  0.2181
   45CHL1  H18C 3286   1.722   3.515   7.319 -0.6363  2.8208 -1.0008
   45CHL1   C12 3287   1.409   3.400   7.207  0.9072  0.1674  0.9495
   45CHL1  H12A 3288   1.434   3.292   7.215 -0.7649 -0.5610 -2.6302
   45CHL1  H12B 3289   1.306   3.419   7.245  1.4646 -0.0866  2.6381
   45CHL1   C11 3290   1.418   3.435   7.057 -0.3967 -0.1342 -0.2909
   45CHL1  H11A 3291   1.516   3.403   7.016 -0.5174  0.1675 -0.8076
   45CHL1  H11B 3292   1.342   3.375   7.002  0.2404 -0.4870 -0.7819
   45CHL1    C9 3293   1.390   3.590   7.030  0.4570 -0.4815 -0.3306
   45CHL1    H9 3294   1.284   3.597   7.062  0.9294 -1.8095  1.6126
   45CHL1   C10 3295   1.396   3.625   6.876  0.7717 -0.0211 -0.1717
   45CHL1   C19 3296   1.550   3.605   6.835 -0.3365  0.3749 -0.4010
   45CHL1  H19A 3297   1.604   3.673   6.904 -2.0320  0.7038  0.6439
   45CHL1  H19B 3298   1.573   3.497   6.847 -0.0935  0.4513 -0.1863
   45CHL1  H19C 3299   1.575   3.642   6.734  0.9055 -1.3851 -0.7664
   45CHL1    C1 3300   1.299   3.527   6.804  0.0768  0.2717  0.1030
   45CHL1   H1A 3301   1.332   3.421   6.798 -1.4337 -0.2333  0.5089
   45CHL1   H1B 3302   1.202   3.523   6.858  0.6922 -0.0944  1.1976
   45CHL1    C2 3303   1.269   3.568   6.657  0.3027 -0.2910  0.3739
   45CHL1   H2A 3304   1.197   3.494   6.616 -0.4902  0.2142  0.8660
   45CHL1   H2B 3305   1.358   3.561   6.591 -0.1599 -2.6833 -0.0516
   45CHL1   C20 3306   1.549   3.382   7.521  0.9107 -1.1790 -0.2176
   45CHL1   H20 3307   1.659   3.389   7.507  0.8562  0.6443  0.0642
   45CHL1   C21 3308   1.489   3.251   7.488  0.0434  0.6639  0.2009
   45CHL1  H21A 3309   1.506   3.176   7.568 -0.9107  0.2228 -0.0113
   45CHL1  H21B 3310   1.518   3.216   7.386 -0.8087 -2.0727  0.8696
   45CHL1  H21C 3311   1.379   3.259   7.487  0.0539  1.1602  1.6461
   45CHL1   C22 3312   1.533   3.398   7.681 -0.5690 -0.3461  0.3491
   45CHL1  H22A 3313   1.579   3.306   7.723 -0.2127 -1.3248 -2.0619
   45CHL1  H22B 3314   1.592   3.486   7.712  1.2666 -1.7196  0.8679
   45CHL1   C23 3315   1.391   3.422   7.745 -0.2230 -0.5198 -0.5432
   45CHL1  H23A 3316   1.365   3.530   7.735 -1.2077 -0.6823  0.1913
   45CHL1  H23B 3317   1.319   3.358   7.690 -1.4182  0.7792 -0.5108
   45CHL1   C24 3318   1.395   3.394   7.897 -0.3663 -1.2058 -0.1464
   45CHL1  H24A 3319   1.291   3.399   7.938 -0.5335  1.4597 -0.8066
   45CHL1  H24B 3320   1.447   3.300   7.922  0.7255 -0.7489 -0.6922
   45CHL1   C25 3321   1.479   3.495   7.975 -0.0415  0.0030  0.4025
   45CHL1   H25 3322   1.577   3.507   7.922 -0.3717  2.6480  0.2968
   45CHL1   C26 3323   1.419   3.638   7.977 -0.2919  0.0849  0.2384
   45CHL1  H26A 3324   1.486   3.711   8.027  0.6686  0.9415 -2.2142
   45CHL1  H26B 3325   1.391   3.674   7.876 -2.8034 -0.8103  0.5751
   45CHL1  H26C 3326   1.327   3.645   8.040  0.9611 -0.8207  2.2378
   45CHL1   C27 3327   1.498   3.455   8.122  0.2929 -0.4410 -0.4479
   45CHL1  H27A 3328   1.557   3.538   8.166  2.4294 -1.6286 -1.0171
   45CHL1  H27B 3329   1.395   3.442   8.161  0.9190 -1.5500  0.8341
   45CHL1  H27C 3330   1.552   3.359   8.137  3.1757  1.2227  0.0709
   46CHL1    C3 3331   1.305   4.949   6.987 -0.8079 -0.5361  0.7319
   46CHL1    H3 3332   1.280   5.054   7.015 -1.2520 -0.9314  1.8751
   46CHL1    O3 3333   1.282   4.936   6.846 -0.0685  0.6666  0.0128
   46CHL1   H3' 3334   1.289   4.841   6.833  2.6766  0.0783  4.7840
   46CHL1    C4 3335   1.454   4.923   7.021  0.4756 -0.3721 -0.0896
   46CHL1   H4A 3336   1.493   4.829   6.975 -0.3406 -0.5807 -0.3722
   46CHL1   H4B 3337   1.510   4.996   6.959 -0.8178  1.6290  1.0365
   46CHL1    C5 3338   1.477   4.930   7.171  0.3313  0.0362 -0.0762
   46CHL1    C6 3339   1.575   5.014   7.201 -1.3006  0.4807 -0.2613
   46CHL1    H6 3340   1.632   5.068   7.124 -1.8105  1.7279  0.2242
   46CHL1    C7 3341   1.615   5.047   7.339  0.0133  0.0268  0.1866
   46CHL1   H7A 3342   1.725   5.042   7.350  0.0554 -4.6072 -1.1278
   46CHL1   H7B 3343   1.596   5.155   7.356 -2.2933  0.1030 -2.5074
   46CHL1    C8 3344   1.548   4.956   7.447  0.0006 -0.1737 -0.4079
   46CHL1    H8 3345   1.602   4.860   7.460 -0.2086 -0.4740 -1.6783
   46CHL1   C14 3346   1.555   5.024   7.578  0.1878 -0.4261 -0.8183
   46CHL1   H14 3347   1.501   5.120   7.562  1.2028  0.1645 -0.7217
   46CHL1   C15 3348   1.701   5.060   7.622  0.1410 -0.0526  0.9246
   46CHL1  H15A 3349   1.774   4.983   7.592 -1.1929 -1.1524  0.4755
   46CHL1  H15B 3350   1.720   5.164   7.588 -1.0162 -0.2422 -0.3385
   46CHL1   C16 3351   1.692   5.065   7.772  0.0920 -0.4376 -0.6421
   46CHL1  H16A 3352   1.754   4.988   7.822 -0.2257 -0.7027 -0.6510
   46CHL1  H16B 3353   1.715   5.168   7.809 -0.3749 -0.1653 -1.1030
   46CHL1   C17 3354   1.542   5.037   7.811 -0.3831 -0.4562  0.4510
   46CHL1   H17 3355   1.498   5.139   7.799  1.2040  0.0973 -1.0010
   46CHL1   C13 3356   1.490   4.948   7.694  0.0508  0.8384 -0.0730
   46CHL1   C18 3357   1.563   4.808   7.713  0.6037 -0.5539 -0.1403
   46CHL1  H18A 3358   1.669   4.805   7.745  0.5788  0.9163  0.1438
   46CHL1  H18B 3359   1.505   4.747   7.785  0.8988  0.3827  0.9049
   46CHL1  H18C 3360   1.552   4.738   7.627 -0.4291  0.6437 -0.9996
   46CHL1   C12 3361   1.339   4.925   7.662  0.0018  0.6346 -0.8108
   46CHL1  H12A 3362   1.292   4.855   7.734 -0.6223  0.3356 -1.4993
   46CHL1  H12B 3363   1.283   5.022   7.657 -0.3455  0.3970 -1.6316
   46CHL1   C11 3364   1.324   4.856   7.527  0.1317  0.1795 -0.8503
   46CHL1  H11A 3365   1.366   4.753   7.530  0.8017  0.4856  0.4625
   46CHL1  H11B 3366   1.216   4.837   7.504  0.1222  0.8390 -1.3491
   46CHL1    C9 3367   1.395   4.930   7.413  0.4062  0.6207 -0.2149
   46CHL1    H9 3368   1.345   5.029   7.409 -3.0814 -1.1400 -2.2923
   46CHL1   C10 3369   1.377   4.867   7.276  0.0286  0.0748 -0.3698
   46CHL1   C19 3370   1.427   4.721   7.271  0.2249  0.6315  0.5585
   46CHL1  H19A 3371   1.358   4.650   7.321 -0.5029  0.5499 -0.5482
   46CHL1  H19B 3372   1.451   4.672   7.174  1.5510  0.5391  0.9171
   46CHL1  H19C 3373   1.516   4.720   7.338 -0.7058  1.3043  1.8092
   46CHL1    C1 3374   1.234   4.877   7.225  0.1094 -0.1630  0.7807
   46CHL1   H1A 3375   1.173   4.805   7.285 -1.4990  0.1704 -0.4377
   46CHL1   H1B 3376   1.202   4.980   7.248  2.3934  0.7888 -0.1305
   46CHL1    C2 3377   1.220   4.856   7.072 -0.2950  0.2264 -0.9508
   46CHL1   H2A 3378   1.110   4.860   7.053 -0.3895 -0.3212 -0.5304
   46CHL1   H2B 3379   1.254   4.754   7.045 -0.3596 -0.4606  1.4639
   46CHL1   C20 3380   1.508   4.995   7.959 -0.6506 -0.2764 -0.2290
   46CHL1   H20 3381   1.535   4.889   7.979  1.2483 -0.0894 -1.6121
   46CHL1   C21 3382   1.356   5.021   7.996 -0.4080  0.5178  0.5274
   46CHL1  H21A 3383   1.287   4.976   7.922  0.0409 -0.4791  0.7066
   46CHL1  H21B 3384   1.340   5.130   7.986  0.7010  0.5189 -1.5030
   46CHL1  H21C 3385   1.329   4.984   8.097 -0.1135 -1.9436 -0.2570
   46CHL1   C22 3386   1.587   5.071   8.071 -0.0574  0.2929  0.2328
   46CHL1  H22A 3387   1.692   5.071   8.036 -0.4651  2.8993 -1.1289
   46CHL1  H22B 3388   1.570   5.180   8.082  0.0978  0.6605 -2.8238
   46CHL1   C23 3389   1.574   5.026   8.218  0.4043 -0.0576  0.3521
   46CHL1  H23A 3390   1.467   5.024   8.248  0.0796  0.7293 -0.7510
   46CHL1  H23B 3391   1.612   4.922   8.227  0.0209 -0.1299  1.1540
   46CHL1   C24 3392   1.641   5.126   8.314  0.4327  0.0305  0.8935
   46CHL1  H24A 3393   1.751   5.126   8.294  0.4626 -0.1732  1.0599
   46CHL1  H24B 3394   1.593   5.225   8.300 -1.8363 -1.0279  0.9767
   46CHL1   C25 3395   1.616   5.103   8.464  0.0982  0.4377  0.1245
   46CHL1   H25 3396   1.643   4.999   8.490  0.6930  0.3668 -0.7292
   46CHL1   C26 3397   1.698   5.198   8.543  0.0931 -0.4583 -0.1101
   46CHL1  H26A 3398   1.727   5.163   8.644  1.4940  0.7732 -0.0559
   46CHL1  H26B 3399   1.789   5.225   8.485 -0.7978 -0.5554 -1.5699
   46CHL1  H26C 3400   1.648   5.294   8.567  2.1726  0.7726 -0.5257
   46CHL1   C27 3401   1.463   5.131   8.492 -0.0470 -0.2223  0.1392
   46CHL1  H27A 3402   1.445   5.240   8.477  0.5141 -0.0824  0.4351
   46CHL1  H27B 3403   1.398   5.057   8.441 -0.4165  0.2711 -0.1082
   46CHL1  H27C 3404   1.449   5.120   8.602  1.4646 -0.0019  0.3745
   47CHL1    C3 3405   0.634   4.992   6.842 -0.4823 -0.8292  0.1916
   47CHL1    H3 3406   0.715   5.063   6.871 -0.3006 -1.1717  0.5316
   47CHL1    O3 3407   0.617   4.986   6.702  0.3419  0.1418  0.1535
   47CHL1   H3' 3408   0.638   5.076   6.674  1.7758 -0.6331 -1.3353
   47CHL1    C4 3409   0.666   4.853   6.888  0.6750 -0.3030  0.1081
   47CHL1   H4A 3410   0.582   4.791   6.850 -2.8802  4.2150  0.1136
   47CHL1   H4B 3411   0.762   4.819   6.845  1.1236 -0.8048  1.4637
   47CHL1    C5 3412   0.669   4.843   7.040 -0.0472  0.0028  0.9534
   47CHL1    C6 3413   0.777   4.793   7.102 -0.3938  0.0661 -0.7923
   47CHL1    H6 3414   0.855   4.736   7.049  0.5761 -0.1534  0.8560
   47CHL1    C7 3415   0.782   4.776   7.249 -0.1847 -0.3730 -0.0909
   47CHL1   H7A 3416   0.803   4.668   7.269 -0.8573 -0.6071 -0.6176
   47CHL1   H7B 3417   0.873   4.829   7.286  0.1741  0.3021 -1.8562
   47CHL1    C8 3418   0.652   4.801   7.326 -0.8921 -0.9077  0.0868
   47CHL1    H8 3419   0.597   4.706   7.310 -2.7879  0.4570 -1.7088
   47CHL1   C14 3420   0.680   4.826   7.473  0.1173  0.2172 -0.0725
   47CHL1   H14 3421   0.728   4.926   7.473 -0.2420  0.4164 -2.2859
   47CHL1   C15 3422   0.768   4.733   7.540 -0.4170  0.2532 -0.8373
   47CHL1  H15A 3423   0.735   4.629   7.522  1.0272  0.0943 -2.6519
   47CHL1  H15B 3424   0.876   4.733   7.515  0.7783  1.7274  3.6961
   47CHL1   C16 3425   0.751   4.781   7.689  0.0391 -0.3718 -0.1619
   47CHL1  H16A 3426   0.764   4.696   7.760 -4.1053 -1.1037 -0.1690
   47CHL1  H16B 3427   0.833   4.853   7.710 -1.8292  1.5554  0.6651
   47CHL1   C17 3428   0.620   4.865   7.693 -0.1832 -0.1695 -0.1828
   47CHL1   H17 3429   0.652   4.972   7.686 -0.9587 -0.0231 -1.6985
   47CHL1   C13 3430   0.552   4.846   7.547 -0.8716 -0.5546 -0.4118
   47CHL1   C18 3431   0.478   4.719   7.543 -0.0132  0.5391 -0.2258
   47CHL1  H18A 3432   0.442   4.701   7.440 -2.0145  4.7774 -0.3874
   47CHL1  H18B 3433   0.528   4.631   7.588 -1.6577 -0.9648 -1.2751
   47CHL1  H18C 3434   0.380   4.738   7.593 -0.7492  0.0051 -1.4366
   47CHL1   C12 3435   0.480   4.968   7.496 -0.6866 -0.7267  0.1431
   47CHL1  H12A 3436   0.378   4.973   7.541 -0.2275  1.2600  1.0139
   47CHL1  H12B 3437   0.538   5.061   7.518  0.1437 -0.9214 -1.1820
   47CHL1   C11 3438   0.451   4.951   7.342  0.1241  0.4907  0.0729
   47CHL1  H11A 3439   0.384   4.862   7.341  0.6946  0.0151  1.5610
   47CHL1  H11B 3440   0.405   5.048   7.317 -1.1902  0.0262  0.6229
   47CHL1    C9 3441   0.578   4.913   7.266  0.3628 -0.7632 -0.0499
   47CHL1    H9 3442   0.637   5.006   7.277 -0.7848 -0.0941  0.4777
   47CHL1   C10 3443   0.551   4.892   7.115  0.4131  0.0050 -0.5962
   47CHL1   C19 3444   0.436   4.788   7.086  0.5543  0.1357  0.2691
   47CHL1  H19A 3445   0.345   4.833   7.132  0.3699 -1.0836  1.1184
   47CHL1  H19B 3446   0.419   4.783   6.976  2.7824 -0.4327 -0.0744
   47CHL1  H19C 3447   0.453   4.684   7.121 -0.9071 -0.1556  0.1790
   47CHL1    C1 3448   0.506   5.031   7.050 -0.3128 -0.3865  0.1240
   47CHL1   H1A 3449   0.400   5.047   7.079 -0.3760  0.1896 -0.4243
   47CHL1   H1B 3450   0.571   5.110   7.094 -0.8359 -0.2624  0.6801
   47CHL1    C2 3451   0.503   5.042   6.898 -0.2821 -0.3650 -0.3969
   47CHL1   H2A 3452   0.475   5.142   6.860  1.7162 -0.6998 -2.8891
   47CHL1   H2B 3453   0.427   4.969   6.863 -0.4997 -0.4105  0.1567
   47CHL1   C20 3454   0.538   4.854   7.821  0.7374  0.7492 -0.0937
   47CHL1   H20 3455   0.435   4.891   7.801  0.4251  1.5335  2.7758
   47CHL1   C21 3456   0.605   4.947   7.930  0.0663 -0.1380  0.2967
   47CHL1  H21A 3457   0.714   4.926   7.935  0.1144 -0.1043 -0.6311
   47CHL1  H21B 3458   0.559   4.932   8.030  0.4134 -2.7034  0.1081
   47CHL1  H21C 3459   0.584   5.050   7.894 -1.2523 -0.9602 -1.3334
   47CHL1   C22 3460   0.507   4.713   7.869  1.3697 -0.2918  0.2269
   47CHL1  H22A 3461   0.439   4.664   7.796  0.9524 -0.8030  0.9491
   47CHL1  H22B 3462   0.600   4.652   7.862  0.4949 -1.5724 -0.2820
   47CHL1   C23 3463   0.438   4.707   8.007 -0.0272  0.4037  0.3715
   47CHL1  H23A 3464   0.415   4.601   8.029  1.6155 -0.6806 -2.8135
   47CHL1  H23B 3465   0.506   4.740   8.088 -0.3224  1.3736  0.2304
   47CHL1   C24 3466   0.306   4.781   8.009 -0.5949  0.8919  0.1456
   47CHL1  H24A 3467   0.315   4.890   7.989  0.2416  0.6346 -1.0284
   47CHL1  H24B 3468   0.239   4.743   7.929 -1.1621 -0.3990  1.2162
   47CHL1   C25 3469   0.233   4.773   8.147  0.5522 -0.0688  0.4635
   47CHL1   H25 3470   0.142   4.833   8.125  0.2794 -1.3069 -2.0775
   47CHL1   C26 3471   0.166   4.636   8.179 -1.0269 -0.6271  0.6531
   47CHL1  H26A 3472   0.242   4.563   8.215  0.5455  0.3224 -0.6447
   47CHL1  H26B 3473   0.095   4.653   8.263  1.0415  0.2766  2.2645
   47CHL1  H26C 3474   0.128   4.592   8.085 -3.5037  2.4355  0.1373
   47CHL1   C27 3475   0.305   4.826   8.266 -0.0898  0.6609  0.2496
   47CHL1  H27A 3476   0.235   4.830   8.352 -0.8130 -1.3712 -0.2151
   47CHL1  H27B 3477   0.406   4.785   8.286  0.1298  1.6984  1.3462
   47CHL1  H27C 3478   0.332   4.932   8.247  1.6389  0.0576 -0.7948
   48CHL1    C3 3479   4.311   0.370   6.428  0.2215  0.4727  0.0072
   48CHL1    H3 3480   4.267   0.269   6.435 -0.7919  0.9891  1.6514
   48CHL1    O3 3481   4.325   0.411   6.292  0.9212  0.0155 -0.0510
   48CHL1   H3' 3482   4.380   0.348   6.244 -0.8164 -0.6793 -1.2050
   48CHL1    C4 3483   4.224   0.469   6.494  0.3759 -0.4160 -0.2303
   48CHL1   H4A 3484   4.249   0.571   6.460 -0.3076 -0.6617 -1.4974
   48CHL1   H4B 3485   4.120   0.456   6.458 -0.1199  0.0007  1.0460
   48CHL1    C5 3486   4.221   0.461   6.647 -0.0414  0.7705  0.5295
   48CHL1    C6 3487   4.109   0.435   6.713  0.5362 -0.5189 -0.1477
   48CHL1    H6 3488   4.020   0.423   6.649 -0.5876  2.4422  0.7935
   48CHL1    C7 3489   4.100   0.403   6.861  0.3718  0.1001 -0.3747
   48CHL1   H7A 3490   4.009   0.448   6.905 -0.3049  1.5174 -3.1357
   48CHL1   H7B 3491   4.093   0.292   6.860 -1.0996  0.1915 -0.1959
   48CHL1    C8 3492   4.234   0.449   6.942  0.2938  0.5649 -0.4942
   48CHL1    H8 3493   4.231   0.560   6.947  1.2385  0.6157 -1.0478
   48CHL1   C14 3494   4.224   0.396   7.080  0.3711  0.6215 -0.3166
   48CHL1   H14 3495   4.223   0.285   7.073  0.6945  0.4247  2.2073
   48CHL1   C15 3496   4.090   0.422   7.155 -0.2995 -0.3162 -0.0527
   48CHL1  H15A 3497   4.046   0.523   7.141 -1.5828 -0.7822  0.5457
   48CHL1  H15B 3498   4.014   0.348   7.123  0.0090 -0.6631  0.0181
   48CHL1   C16 3499   4.133   0.397   7.302  0.7936  0.3596 -0.7434
   48CHL1  H16A 3500   4.111   0.491   7.358  2.3213 -0.1923  0.8214
   48CHL1  H16B 3501   4.081   0.315   7.356 -0.1701  0.7220 -1.0977
   48CHL1   C17 3502   4.286   0.372   7.299 -0.7155  0.9361 -0.7887
   48CHL1   H17 3503   4.306   0.263   7.288  0.4278  0.8163  2.0287
   48CHL1   C13 3504   4.341   0.435   7.174  0.1514  0.4809  0.2976
   48CHL1   C18 3505   4.351   0.584   7.194  0.5388 -0.2101 -0.1635
   48CHL1  H18A 3506   4.423   0.609   7.275  0.4065  1.1156 -0.4364
   48CHL1  H18B 3507   4.384   0.632   7.099 -1.1915  1.2148 -0.0655
   48CHL1  H18C 3508   4.255   0.630   7.223 -0.3150 -1.5581 -0.8214
   48CHL1   C12 3509   4.468   0.385   7.106  0.1205  0.0093 -0.4312
   48CHL1  H12A 3510   4.555   0.420   7.166  1.9083 -1.5669 -2.0083
   48CHL1  H12B 3511   4.467   0.274   7.105 -4.8336 -0.0597 -0.8125
   48CHL1   C11 3512   4.486   0.428   6.955  0.1870 -0.8137 -0.7309
   48CHL1  H11A 3513   4.515   0.535   6.962  1.8105 -1.3169  0.6465
   48CHL1  H11B 3514   4.574   0.369   6.922  0.5050 -0.4551 -0.5265
   48CHL1    C9 3515   4.357   0.404   6.871 -0.5314 -0.1915 -0.6529
   48CHL1    H9 3516   4.348   0.294   6.866  2.4359 -0.4934 -0.3100
   48CHL1   C10 3517   4.359   0.452   6.722  0.5314  0.2819 -0.3312
   48CHL1   C19 3518   4.441   0.583   6.717 -0.4853  0.4191 -0.1925
   48CHL1  H19A 3519   4.407   0.655   6.795 -1.7074 -0.6308  0.2785
   48CHL1  H19B 3520   4.550   0.572   6.731 -0.3559  1.8778  0.0706
   48CHL1  H19C 3521   4.431   0.632   6.618  1.5656  2.7348  0.6916
   48CHL1    C1 3522   4.434   0.339   6.643 -0.4957  0.2369  0.0503
   48CHL1   H1A 3523   4.538   0.336   6.683 -1.0911  1.8307  1.7794
   48CHL1   H1B 3524   4.387   0.238   6.641  1.3346 -0.6050 -2.6862
   48CHL1    C2 3525   4.450   0.371   6.495 -0.8947  0.3826  0.1551
   48CHL1   H2A 3526   4.524   0.303   6.448 -2.9114 -1.3059 -0.6975
   48CHL1   H2B 3527   4.500   0.469   6.480  0.8135 -0.3768  0.8541
   48CHL1   C20 3528   4.354   0.396   7.436  0.5654 -0.1399  0.7582
   48CHL1   H20 3529   4.369   0.506   7.445  0.7578 -0.0908 -0.1063
   48CHL1   C21 3530   4.486   0.320   7.448 -0.2981 -0.4821 -0.3090
   48CHL1  H21A 3531   4.532   0.330   7.549  1.4403 -1.1013 -1.0090
   48CHL1  H21B 3532   4.554   0.362   7.371 -0.0867 -0.6992 -0.2420
   48CHL1  H21C 3533   4.477   0.216   7.409 -1.4550  0.9550 -4.1034
   48CHL1   C22 3534   4.268   0.344   7.553 -0.3485 -0.4907  0.0378
   48CHL1  H22A 3535   4.159   0.360   7.541 -0.5068 -1.6763 -0.1847
   48CHL1  H22B 3536   4.264   0.233   7.548 -0.3480 -0.5039  0.3810
   48CHL1   C23 3537   4.308   0.378   7.698 -0.0789 -0.3158  0.3986
   48CHL1  H23A 3538   4.405   0.324   7.712 -0.6694 -1.2573  0.8933
   48CHL1  H23B 3539   4.331   0.485   7.716  2.1832 -0.4674 -1.2614
   48CHL1   C24 3540   4.211   0.317   7.796 -0.7448 -0.0093 -0.8308
   48CHL1  H24A 3541   4.104   0.348   7.789 -1.2931 -2.2560 -3.1437
   48CHL1  H24B 3542   4.216   0.206   7.796 -0.1724  0.0186 -0.9380
   48CHL1   C25 3543   4.252   0.347   7.941 -0.1374 -0.6546 -0.7450
   48CHL1   H25 3544   4.258   0.455   7.963 -0.6757 -0.8547  0.4098
   48CHL1   C26 3545   4.147   0.291   8.039 -0.2455  0.5130 -0.3353
   48CHL1  H26A 3546   4.042   0.310   8.008 -1.0607  1.2558  2.6646
   48CHL1  H26B 3547   4.160   0.182   8.053  0.8370  0.8104  1.1192
   48CHL1  H26C 3548   4.166   0.330   8.141 -0.2909 -1.4479  0.4220
   48CHL1   C27 3549   4.397   0.310   7.979 -0.1290 -0.0916  0.4095
   48CHL1  H27A 3550   4.414   0.202   7.960  0.4985  0.1556 -0.4439
   48CHL1  H27B 3551   4.465   0.373   7.918  0.8749 -1.4617  0.0911
   48CHL1  H27C 3552   4.421   0.336   8.084  2.0670 -1.1208  0.1716
   49CHL1    C3 3553   3.227   1.422   6.693 -0.7516 -0.5505 -0.2750
   49CHL1    H3 3554   3.333   1.452   6.679 -0.6690 -0.9276 -0.4693
   49CHL1    O3 3555   3.179   1.370   6.576 -0.0791  0.1497 -0.7089
   49CHL1   H3' 3556   3.225   1.427   6.513  0.2060  2.2721  1.3540
   49CHL1    C4 3557   3.219   1.313   6.805 -0.2432 -0.1397  0.2888
   49CHL1   H4A 3558   3.112   1.293   6.830 -0.7146  2.6879  0.7697
   49CHL1   H4B 3559   3.268   1.217   6.778 -0.2062 -0.5357  1.7306
   49CHL1    C5 3560   3.274   1.369   6.934 -0.2248  0.2667  0.0756
   49CHL1    C6 3561   3.377   1.311   7.004 -0.4650  0.0731  0.7962
   49CHL1    H6 3562   3.431   1.222   6.969  4.4216  2.1126  2.7016
   49CHL1    C7 3563   3.422   1.347   7.141 -0.1746 -0.3515  0.4738
   49CHL1   H7A 3564   3.437   1.253   7.198 -0.3277 -0.6115  0.0818
   49CHL1   H7B 3565   3.516   1.407   7.134 -0.3890 -0.0532  0.1296
   49CHL1    C8 3566   3.316   1.445   7.207  0.8721  0.0155 -0.7900
   49CHL1    H8 3567   3.231   1.377   7.231  0.4449  0.7938 -0.0606
   49CHL1   C14 3568   3.387   1.508   7.327 -0.3843 -1.0739  0.3295
   49CHL1   H14 3569   3.460   1.577   7.279  0.3395 -2.0023  0.0862
   49CHL1   C15 3570   3.469   1.436   7.436 -0.3942 -0.5949  0.6827
   49CHL1  H15A 3571   3.420   1.338   7.455  2.1043 -2.0657 -0.2355
   49CHL1  H15B 3572   3.564   1.409   7.384  0.9131  1.6170  1.8088
   49CHL1   C16 3573   3.470   1.523   7.557 -0.4214  0.2475  0.2756
   49CHL1  H16A 3574   3.422   1.469   7.642  0.3005  0.2998  0.7247
   49CHL1  H16B 3575   3.576   1.551   7.577 -0.4339  0.9415 -0.6070
   49CHL1   C17 3576   3.385   1.648   7.523  0.2799  0.1099 -0.3025
   49CHL1   H17 3577   3.457   1.727   7.490  0.8244  0.1562  0.9834
   49CHL1   C13 3578   3.291   1.603   7.404 -0.0237  1.1793 -0.0108
   49CHL1   C18 3579   3.164   1.530   7.473  0.6177 -0.1400  0.3903
   49CHL1  H18A 3580   3.194   1.457   7.552 -0.3393 -0.1025  0.7964
   49CHL1  H18B 3581   3.104   1.617   7.507 -0.2809 -0.5727 -0.0892
   49CHL1  H18C 3582   3.093   1.479   7.405  1.2816 -1.2751  0.5329
   49CHL1   C12 3583   3.239   1.709   7.315  0.1252  0.4315  0.0475
   49CHL1  H12A 3584   3.171   1.777   7.370  1.7084  0.4412  2.0793
   49CHL1  H12B 3585   3.333   1.768   7.306  0.5776 -0.1769  0.6860
   49CHL1   C11 3586   3.181   1.657   7.184  0.0013 -0.5128  0.4110
   49CHL1  H11A 3587   3.092   1.599   7.218  0.7278 -0.9423  1.5973
   49CHL1  H11B 3588   3.153   1.740   7.116  0.6064 -1.4484 -0.9979
   49CHL1    C9 3589   3.264   1.553   7.109 -0.4461 -0.6983  0.2361
   49CHL1    H9 3590   3.356   1.600   7.067  0.9099 -2.5914  1.0115
   49CHL1   C10 3591   3.195   1.491   6.981 -0.2149  0.2297  0.1804
   49CHL1   C19 3592   3.043   1.463   7.010  0.0091 -0.6424  0.3036
   49CHL1  H19A 3593   2.990   1.418   6.923  0.7376 -0.1483 -0.4042
   49CHL1  H19B 3594   3.033   1.394   7.097 -1.3189 -1.5001 -0.5150
   49CHL1  H19C 3595   2.980   1.550   7.037 -1.9861 -1.8796 -0.3038
   49CHL1    C1 3596   3.184   1.603   6.870  0.2803 -0.2281 -0.3398
   49CHL1   H1A 3597   3.110   1.683   6.892  1.3684  0.7363 -0.0780
   49CHL1   H1B 3598   3.285   1.647   6.854  1.1084 -1.7849  0.5028
   49CHL1    C2 3599   3.143   1.547   6.733 -0.1533  0.6491  0.0344
   49CHL1   H2A 3600   3.164   1.623   6.655 -0.4863  0.8331  0.1246
   49CHL1   H2B 3601   3.037   1.517   6.745  0.3660 -0.5782  1.8623
   49CHL1   C20 3602   3.318   1.710   7.649 -0.0895 -0.0107  0.4826
   49CHL1   H20 3603   3.249   1.640   7.700  1.4918 -0.2997  2.2847
   49CHL1   C21 3604   3.238   1.840   7.627 -0.0664 -0.1886 -0.0163
   49CHL1  H21A 3605   3.297   1.893   7.549  0.5475  1.8005  1.7538
   49CHL1  H21B 3606   3.216   1.900   7.718 -1.2822 -1.3563  0.4602
   49CHL1  H21C 3607   3.140   1.820   7.579 -0.2073  1.1829 -0.3201
   49CHL1   C22 3608   3.428   1.742   7.764  0.4049  0.0564 -0.0210
   49CHL1  H22A 3609   3.526   1.725   7.714  0.2627 -0.2284 -0.2034
   49CHL1  H22B 3610   3.420   1.847   7.801 -2.9361 -1.0413  2.5995
   49CHL1   C23 3611   3.404   1.659   7.883 -0.3723  0.3310 -0.8042
   49CHL1  H23A 3612   3.305   1.682   7.928 -0.8832 -1.5640 -0.9160
   49CHL1  H23B 3613   3.399   1.552   7.855  1.3091  0.2182 -0.7084
   49CHL1   C24 3614   3.511   1.694   7.984  0.3851  0.1796 -0.2621
   49CHL1  H24A 3615   3.609   1.681   7.933  0.9897  0.1883  0.8587
   49CHL1  H24B 3616   3.494   1.795   8.027  1.0814  0.6556 -1.0820
   49CHL1   C25 3617   3.504   1.602   8.108 -0.7701  0.3719 -0.0594
   49CHL1   H25 3618   3.525   1.501   8.069  0.9398  0.4540  0.6172
   49CHL1   C26 3619   3.610   1.642   8.206 -0.2494 -0.3411 -0.9693
   49CHL1  H26A 3620   3.603   1.578   8.296  1.3663  1.3624  0.4127
   49CHL1  H26B 3621   3.706   1.626   8.152  0.4037  0.0734  0.0467
   49CHL1  H26C 3622   3.609   1.749   8.237 -2.4440 -0.7692  0.5249
   49CHL1   C27 3623   3.360   1.596   8.173 -0.7327  0.1227 -0.2989
   49CHL1  H27A 3624   3.356   1.507   8.239 -2.3796 -0.1685 -0.7714
   49CHL1  H27B 3625   3.357   1.686   8.238 -0.0093 -1.2432  1.6695
   49CHL1  H27C 3626   3.279   1.589   8.097 -0.2683  0.4906 -0.8369
   50CHL1    C3 3627   3.370   3.081   6.959 -0.0926  0.1951  0.1052
   50CHL1    H3 3628   3.349   3.182   7.000 -0.3546  0.3582 -0.4211
   50CHL1    O3 3629   3.300   3.059   6.834  0.3633 -0.2373 -0.1482
   50CHL1   H3' 3630   3.281   2.965   6.837  1.8350 -0.5850 -0.9078
   50CHL1    C4 3631   3.518   3.077   6.926 -0.5057  0.5649  0.6169
   50CHL1   H4A 3632   3.541   2.980   6.877 -1.2192  0.7950 -0.1873
   50CHL1   H4B 3633   3.545   3.152   6.849 -2.3497 -1.9967 -2.6676
   50CHL1    C5 3634   3.605   3.095   7.047  0.3167  0.0948  0.0258
   50CHL1    C6 3635   3.713   3.181   7.052 -0.6769  0.4219  0.3455
   50CHL1    H6 3636   3.739   3.236   6.960 -2.3724  1.3047  0.3869
   50CHL1    C7 3637   3.805   3.185   7.175 -0.2354 -0.0269 -0.0540
   50CHL1   H7A 3638   3.910   3.202   7.145  0.8115 -3.6703  1.3222
   50CHL1   H7B 3639   3.773   3.269   7.240 -3.0430 -0.4601 -0.7985
   50CHL1    C8 3640   3.784   3.055   7.262  0.7562 -0.0792 -0.4899
   50CHL1    H8 3641   3.830   2.971   7.205 -0.6376 -0.0582 -1.6933
   50CHL1   C14 3642   3.863   3.065   7.393 -0.1120 -0.4218 -0.4602
   50CHL1   H14 3643   3.822   3.158   7.438  0.4451 -1.0460  1.3844
   50CHL1   C15 3644   4.010   3.091   7.386 -1.2514 -0.8084  0.1677
   50CHL1  H15A 3645   4.059   3.009   7.328 -3.4686 -0.9352 -1.5727
   50CHL1  H15B 3646   4.024   3.197   7.356 -3.4732  0.2735  2.7482
   50CHL1   C16 3647   4.063   3.072   7.528  0.6693  0.3094 -0.6224
   50CHL1  H16A 3648   4.138   2.990   7.533  0.5875  0.2246 -0.7612
   50CHL1  H16B 3649   4.112   3.162   7.571  1.3328 -0.1193 -0.4712
   50CHL1   C17 3650   3.935   3.020   7.610 -0.4476  0.7588  0.1925
   50CHL1   H17 3651   3.893   3.113   7.654 -2.4340  0.1694 -0.4065
   50CHL1   C13 3652   3.838   2.960   7.505 -0.0707 -0.3998  0.7917
   50CHL1   C18 3653   3.878   2.815   7.465  0.2114 -0.4302 -0.6263
   50CHL1  H18A 3654   3.846   2.748   7.548  4.1725 -1.4581  0.1704
   50CHL1  H18B 3655   3.832   2.784   7.369  0.7541 -1.7184 -0.4802
   50CHL1  H18C 3656   3.986   2.793   7.450  0.0942 -1.4244 -0.0875
   50CHL1   C12 3657   3.691   2.968   7.544  0.4650  0.3726  0.1929
   50CHL1  H12A 3658   3.661   2.897   7.624  2.1824  0.1860  0.6776
   50CHL1  H12B 3659   3.682   3.069   7.591 -0.8407 -1.2313  3.5648
   50CHL1   C11 3660   3.599   2.943   7.417 -0.0107  0.1940  0.1677
   50CHL1  H11A 3661   3.611   2.835   7.394 -1.4402 -0.0966  0.7134
   50CHL1  H11B 3662   3.491   2.958   7.437  0.1281  0.7433  0.5247
   50CHL1    C9 3663   3.636   3.032   7.291 -0.6521  0.7252  0.5055
   50CHL1    H9 3664   3.600   3.133   7.319 -0.5427  1.3401 -1.5106
   50CHL1   C10 3665   3.564   2.996   7.164  0.0899 -0.1302  0.2270
   50CHL1   C19 3666   3.597   2.852   7.112  0.5084 -0.4878  0.5990
   50CHL1  H19A 3667   3.514   2.783   7.140  0.0259  0.1531  0.7637
   50CHL1  H19B 3668   3.608   2.843   7.002  0.2329  2.0636  0.3309
   50CHL1  H19C 3669   3.685   2.810   7.165  0.9854 -1.1381 -0.6825
   50CHL1    C1 3670   3.408   3.006   7.194  0.4871  0.1364  0.1274
   50CHL1   H1A 3671   3.364   2.937   7.270  2.6146 -0.3923  0.9383
   50CHL1   H1B 3672   3.376   3.111   7.207 -1.1365 -0.1509 -1.3718
   50CHL1    C2 3673   3.328   2.974   7.059  0.0527 -0.0132  0.2474
   50CHL1   H2A 3674   3.222   2.997   7.084 -0.2833  0.3157 -1.4225
   50CHL1   H2B 3675   3.343   2.868   7.031 -1.1194 -0.4744  1.3318
   50CHL1   C20 3676   3.982   2.932   7.724 -0.1887 -0.1623  0.1572
   50CHL1   H20 3677   4.034   2.844   7.680 -0.5779 -0.6274  0.6203
   50CHL1   C21 3678   3.869   2.877   7.814 -0.3003 -0.3854 -0.3848
   50CHL1  H21A 3679   3.789   2.943   7.853  0.7244 -0.5841  2.1852
   50CHL1  H21B 3680   3.914   2.827   7.902 -0.8312  1.4119  0.9319
   50CHL1  H21C 3681   3.813   2.802   7.753  0.9217 -1.5255 -0.1381
   50CHL1   C22 3682   4.096   2.999   7.817 -0.6395 -0.6343 -0.0910
   50CHL1  H22A 3683   4.134   2.915   7.879  1.8842  0.0593 -0.6142
   50CHL1  H22B 3684   4.184   3.028   7.756 -0.7735  0.1728  0.0980
   50CHL1   C23 3685   4.052   3.121   7.895 -0.1668  0.4402  0.0197
   50CHL1  H23A 3686   4.065   3.210   7.830  0.9443 -1.1855 -2.0696
   50CHL1  H23B 3687   3.947   3.121   7.930 -0.0263  3.0733  0.5434
   50CHL1   C24 3688   4.142   3.150   8.015  0.2994 -0.0640 -0.0599
   50CHL1  H24A 3689   4.135   3.069   8.091  0.5118  0.3064  0.3603
   50CHL1  H24B 3690   4.248   3.139   7.984  0.6126  0.8162  0.6821
   50CHL1   C25 3691   4.119   3.280   8.088  0.2753 -0.0751 -0.6520
   50CHL1   H25 3692   4.020   3.279   8.138 -0.3066  0.5462 -1.7671
   50CHL1   C26 3693   4.229   3.290   8.190 -0.3952 -0.1039 -0.0735
   50CHL1  H26A 3694   4.217   3.377   8.258 -1.0374 -0.9072  0.8462
   50CHL1  H26B 3695   4.230   3.197   8.250  0.3281 -1.3002 -1.8993
   50CHL1  H26C 3696   4.327   3.296   8.138 -1.9778 -0.0523 -3.2224
   50CHL1   C27 3697   4.112   3.407   7.998 -0.0292 -0.3772 -0.0081
   50CHL1  H27A 3698   4.178   3.394   7.909  0.1879  1.9487 -0.2207
   50CHL1  H27B 3699   4.010   3.407   7.953  1.0162 -0.8344 -2.4734
   50CHL1  H27C 3700   4.137   3.503   8.048 -0.2166 -0.2107 -0.2383
   51CHL1    C3 3701   4.185   1.831   6.875 -0.5580  0.1585  0.5238
   51CHL1    H3 3702   4.188   1.721   6.890 -1.8266 -0.9994 -6.1248
   51CHL1    O3 3703   4.207   1.849   6.737  0.2968 -0.0243 -0.2393
   51CHL1   H3' 3704   4.284   1.798   6.711 -0.3278 -0.6461 -0.8771
   51CHL1    C4 3705   4.047   1.882   6.907  0.5016 -0.1204 -0.6711
   51CHL1   H4A 3706   4.055   1.993   6.900  0.0882 -0.0188  0.3387
   51CHL1   H4B 3707   3.972   1.846   6.835  1.7509 -0.2915 -1.9157
   51CHL1    C5 3708   4.013   1.863   7.053 -0.5401 -0.4151  0.8073
   51CHL1    C6 3709   3.909   1.787   7.083  0.4635  0.2951 -0.9846
   51CHL1    H6 3710   3.841   1.754   7.003 -0.6443  0.5062 -0.1453
   51CHL1    C7 3711   3.863   1.755   7.218  0.3999 -0.3254  0.1055
   51CHL1   H7A 3712   3.759   1.787   7.239  0.1416 -2.2883  2.0370
   51CHL1   H7B 3713   3.870   1.645   7.231 -0.4775 -0.1453  2.4561
   51CHL1    C8 3714   3.948   1.838   7.326  0.5797 -0.7979 -0.9141
   51CHL1    H8 3715   3.897   1.936   7.331 -1.7534 -1.8680 -2.6399
   51CHL1   C14 3716   3.934   1.772   7.463  0.2016  0.0157 -0.0655
   51CHL1   H14 3717   3.981   1.671   7.453  2.5929  1.1744 -0.8900
   51CHL1   C15 3718   3.790   1.752   7.518 -0.1572 -0.8399 -0.0982
   51CHL1  H15A 3719   3.738   1.850   7.514  1.2354  0.0476  2.5659
   51CHL1  H15B 3720   3.737   1.668   7.467  0.3793 -2.1152  1.4028
   51CHL1   C16 3721   3.817   1.729   7.668  0.0640 -0.4337 -0.1488
   51CHL1  H16A 3722   3.747   1.792   7.727  1.5689  0.1609  1.0631
   51CHL1  H16B 3723   3.801   1.622   7.693  2.4377 -1.1572 -1.5480
   51CHL1   C17 3724   3.969   1.753   7.690  0.5509 -0.1744 -0.8324
   51CHL1   H17 3725   4.020   1.659   7.660 -0.6439 -1.6050  1.4610
   51CHL1   C13 3726   4.019   1.840   7.572 -0.0307 -0.8188  0.6846
   51CHL1   C18 3727   3.985   1.987   7.597 -0.4354 -0.5591  0.8410
   51CHL1  H18A 3728   4.052   2.023   7.678 -0.7342 -0.4439  1.0360
   51CHL1  H18B 3729   4.002   2.054   7.510  0.1021  1.7124  2.6574
   51CHL1  H18C 3730   3.882   2.006   7.632 -0.5725  2.5112 -1.0341
   51CHL1   C12 3731   4.169   1.821   7.528  0.0646  0.2191 -0.9172
   51CHL1  H12A 3732   4.232   1.875   7.602 -0.4076 -0.3887 -0.0655
   51CHL1  H12B 3733   4.206   1.716   7.533  1.3787  0.7606  1.3762
   51CHL1   C11 3734   4.188   1.892   7.396 -0.0412 -0.7310 -0.8969
   51CHL1  H11A 3735   4.184   2.001   7.418 -1.5813 -1.2837  1.7675
   51CHL1  H11B 3736   4.290   1.877   7.353  0.0372 -1.5267 -0.4405
   51CHL1    C9 3737   4.093   1.846   7.290  0.4339 -0.4579 -0.5539
   51CHL1    H9 3738   4.110   1.737   7.283 -1.7599 -0.8905  0.5944
   51CHL1   C10 3739   4.122   1.914   7.151 -0.1542  0.4108 -0.9664
   51CHL1   C19 3740   4.101   2.073   7.160  0.0206 -0.0035  0.1300
   51CHL1  H19A 3741   4.096   2.125   7.062 -0.2802 -0.4595 -0.0973
   51CHL1  H19B 3742   4.004   2.095   7.210 -0.3911 -1.6103  0.0519
   51CHL1  H19C 3743   4.184   2.112   7.222  1.0821  0.4131 -1.5257
   51CHL1    C1 3744   4.264   1.879   7.109  0.0842  0.5126  0.5732
   51CHL1   H1A 3745   4.346   1.933   7.159  2.6280 -2.1101 -0.6227
   51CHL1   H1B 3746   4.280   1.772   7.136  0.8986  0.3633 -0.5044
   51CHL1    C2 3747   4.298   1.895   6.958  0.0516 -0.0343  0.6657
   51CHL1   H2A 3748   4.396   1.848   6.933  0.6339  1.7901 -0.4970
   51CHL1   H2B 3749   4.300   2.004   6.940  0.8603 -0.0341  0.7202
   51CHL1   C20 3750   4.009   1.781   7.830  0.0824 -0.5091  0.9163
   51CHL1   H20 3751   4.116   1.812   7.825 -0.3312  0.7088 -0.9312
   51CHL1   C21 3752   4.006   1.645   7.910  0.3073  0.4403  0.8796
   51CHL1  H21A 3753   4.069   1.565   7.864  1.4222  0.9741  1.4496
   51CHL1  H21B 3754   3.904   1.605   7.893  0.8224 -0.5814  0.1300
   51CHL1  H21C 3755   4.042   1.647   8.015  0.4403 -1.6733  0.9072
   51CHL1   C22 3756   3.926   1.882   7.916 -0.3393  0.2778 -0.7443
   51CHL1  H22A 3757   3.889   1.970   7.859 -3.5157  0.2560  1.2036
   51CHL1  H22B 3758   3.831   1.832   7.943 -0.6687  1.5316  0.4609
   51CHL1   C23 3759   3.986   1.931   8.052 -0.5755 -0.1778 -0.2915
   51CHL1  H23A 3760   3.990   1.839   8.114 -1.0361 -0.5088 -0.7379
   51CHL1  H23B 3761   4.089   1.967   8.034 -0.7472  0.6934  0.5018
   51CHL1   C24 3762   3.893   2.022   8.136  0.0216  0.0096 -0.2916
   51CHL1  H24A 3763   3.889   2.124   8.091  3.1918  0.8511  1.1925
   51CHL1  H24B 3764   3.793   1.975   8.129  0.5382 -1.5464  2.1280
   51CHL1   C25 3765   3.922   2.041   8.293 -0.4189  0.2463 -0.2549
   51CHL1   H25 3766   3.917   1.940   8.338 -0.2923 -0.5532 -1.9701
   51CHL1   C26 3767   4.061   2.106   8.330 -0.1539  0.1442  0.3611
   51CHL1  H26A 3768   4.066   2.215   8.308  1.3781  0.1631  0.7466
   51CHL1  H26B 3769   4.085   2.095   8.438  0.1766  0.1172  0.2860
   51CHL1  H26C 3770   4.145   2.058   8.275  0.1387 -0.3649  1.2529
   51CHL1   C27 3771   3.808   2.113   8.356 -0.3053 -0.0297  0.1108
   51CHL1  H27A 3772   3.799   2.219   8.322 -1.8314  0.5071  2.0766
   51CHL1  H27B 3773   3.716   2.057   8.327  0.1730 -1.2819  0.9979
   51CHL1  H27C 3774   3.808   2.114   8.467 -2.1065  0.6902  0.1208
   52CHL1    C3 3775   5.267   3.863   6.997  0.3147  0.4381  0.3586
   52CHL1    H3 3776   5.291   3.972   6.998 -0.8203  0.6880  2.0868
   52CHL1    O3 3777   5.244   3.823   6.861 -0.3194  0.0084  0.4698
   52CHL1   H3' 3778   5.215   3.732   6.867 -0.4598  0.0787  0.9369
   52CHL1    C4 3779   5.370   3.775   7.063 -0.4230 -0.2044 -0.7542
   52CHL1   H4A 3780   5.330   3.672   7.048  1.9088 -1.0603 -1.2067
   52CHL1   H4B 3781   5.465   3.771   7.005  0.3319  0.3483  0.4384
   52CHL1    C5 3782   5.391   3.797   7.210 -0.0662 -0.2085 -0.3917
   52CHL1    C6 3783   5.511   3.831   7.263 -0.1364  0.6922 -0.6015
   52CHL1    H6 3784   5.607   3.831   7.208  0.0552 -0.5790 -0.2757
   52CHL1    C7 3785   5.529   3.831   7.407 -0.3392  0.5459 -0.0786
   52CHL1   H7A 3786   5.614   3.769   7.440  1.9334  2.6102 -1.8870
   52CHL1   H7B 3787   5.548   3.934   7.444  2.4640  0.0671 -0.1101
   52CHL1    C8 3788   5.408   3.781   7.491  0.6167 -1.0374  0.4021
   52CHL1    H8 3789   5.405   3.671   7.481  2.2812 -1.2012  1.6397
   52CHL1   C14 3790   5.434   3.835   7.634  0.6744  0.3603 -0.4205
   52CHL1   H14 3791   5.426   3.945   7.623  0.4423  0.5016  1.1402
   52CHL1   C15 3792   5.575   3.802   7.695  0.5039 -0.1621 -0.3174
   52CHL1  H15A 3793   5.592   3.694   7.677  2.2098 -0.0729  0.6507
   52CHL1  H15B 3794   5.662   3.856   7.651 -1.3315  2.1133 -1.2620
   52CHL1   C16 3795   5.558   3.830   7.849 -0.4067 -0.7718  0.3118
   52CHL1  H16A 3796   5.576   3.731   7.896 -1.3207 -1.1447 -0.1174
   52CHL1  H16B 3797   5.626   3.908   7.891 -0.1110 -0.7725 -0.1692
   52CHL1   C17 3798   5.408   3.857   7.868  0.3469 -0.2094  0.4842
   52CHL1   H17 3799   5.395   3.968   7.866  0.6073 -0.1862 -0.0074
   52CHL1   C13 3800   5.332   3.794   7.746 -0.7693 -0.4124  0.4722
   52CHL1   C18 3801   5.315   3.639   7.764 -0.3747 -0.3780 -0.0359
   52CHL1  H18A 3802   5.222   3.603   7.812  0.0305 -2.3535 -0.6744
   52CHL1  H18B 3803   5.307   3.594   7.663  0.0998 -0.4183 -0.0605
   52CHL1  H18C 3804   5.397   3.593   7.824  0.6304  1.6527  0.2168
   52CHL1   C12 3805   5.198   3.851   7.693  0.6626  0.3503  0.4166
   52CHL1  H12A 3806   5.107   3.821   7.750 -1.0058  1.2941 -1.6632
   52CHL1  H12B 3807   5.194   3.962   7.701 -3.6341  0.5317 -2.1710
   52CHL1   C11 3808   5.163   3.799   7.546 -0.5990  0.3072  0.6151
   52CHL1  H11A 3809   5.159   3.688   7.549  0.0449  0.2982  1.1412
   52CHL1  H11B 3810   5.062   3.835   7.517  0.0078  1.1648 -0.4950
   52CHL1    C9 3811   5.279   3.835   7.442  0.1950  0.6599  0.2651
   52CHL1    H9 3812   5.282   3.946   7.442 -0.0917  0.6700  0.9147
   52CHL1   C10 3813   5.259   3.781   7.298  0.2062  0.2464  0.6117
   52CHL1   C19 3814   5.224   3.628   7.294  0.3749 -0.0347 -0.0454
   52CHL1  H19A 3815   5.156   3.601   7.377  1.5266  0.7703  1.1934
   52CHL1  H19B 3816   5.177   3.580   7.206  1.1519 -2.2601  0.7193
   52CHL1  H19C 3817   5.320   3.574   7.311  0.4627  0.1090 -0.0706
   52CHL1    C1 3818   5.139   3.844   7.226  0.1121 -0.3810  0.0728
   52CHL1   H1A 3819   5.039   3.817   7.267  0.9433 -1.0734  1.6921
   52CHL1   H1B 3820   5.156   3.953   7.240 -1.0955 -0.0899 -0.6011
   52CHL1    C2 3821   5.140   3.828   7.071  0.3082 -0.2404 -0.2361
   52CHL1   H2A 3822   5.058   3.887   7.025  0.4078 -0.5538 -0.8282
   52CHL1   H2B 3823   5.121   3.719   7.059  3.4943 -0.8980  0.2641
   52CHL1   C20 3824   5.357   3.820   8.005 -0.0345 -0.3863  0.1733
   52CHL1   H20 3825   5.348   3.711   8.022  1.4265 -0.4675  0.5695
   52CHL1   C21 3826   5.212   3.876   8.009 -0.1482  0.3266 -0.2512
   52CHL1  H21A 3827   5.203   3.973   7.955  1.2622  0.5502 -0.1145
   52CHL1  H21B 3828   5.173   3.890   8.112 -3.2418  0.9589 -1.4523
   52CHL1  H21C 3829   5.145   3.812   7.947 -0.3405  0.9950 -0.7384
   52CHL1   C22 3830   5.442   3.887   8.115  0.1861 -0.3753  0.2860
   52CHL1  H22A 3831   5.551   3.879   8.095  0.3977  2.4525  0.0999
   52CHL1  H22B 3832   5.429   3.997   8.117  1.2323 -0.1768 -2.1529
   52CHL1   C23 3833   5.416   3.835   8.259 -0.3140  0.2678 -0.6042
   52CHL1  H23A 3834   5.313   3.848   8.299  0.4422  1.3572  1.0239
   52CHL1  H23B 3835   5.426   3.725   8.253  2.9845  0.5841 -2.2061
   52CHL1   C24 3836   5.516   3.886   8.366  0.1260 -0.1498  1.1108
   52CHL1  H24A 3837   5.620   3.882   8.327  0.1304  0.9694  0.9858
   52CHL1  H24B 3838   5.490   3.993   8.380  0.3842  0.1109 -0.2901
   52CHL1   C25 3839   5.503   3.822   8.507 -0.0066 -0.0174 -0.8536
   52CHL1   H25 3840   5.397   3.830   8.541  0.2990  0.2074  0.0562
   52CHL1   C26 3841   5.553   3.678   8.509 -0.0132 -0.2422 -0.3352
   52CHL1  H26A 3842   5.493   3.623   8.433 -0.2427  0.5918 -0.7596
   52CHL1  H26B 3843   5.657   3.663   8.471  0.4568  1.2369  0.3366
   52CHL1  H26C 3844   5.533   3.623   8.603  0.3728 -0.6428 -0.4804
   52CHL1   C27 3845   5.570   3.899   8.619  0.0938 -0.6014  0.1678
   52CHL1  H27A 3846   5.668   3.935   8.581 -0.6871 -0.3404 -1.6890
   52CHL1  H27B 3847   5.500   3.983   8.641  0.3410  0.0683 -1.5373
   52CHL1  H27C 3848   5.584   3.825   8.700 -0.3386 -0.4760  0.3601
   53CHL1    C3 3849   1.538   6.359   6.954 -0.4195 -0.4435  0.3167
   53CHL1    H3 3850   1.494   6.457   6.926  1.3599  0.4927  0.6848
   53CHL1    O3 3851   1.581   6.315   6.830  0.2951 -0.3338  0.0553
   53CHL1   H3' 3852   1.502   6.326   6.778 -1.1694 -2.9972  1.5794
   53CHL1    C4 3853   1.660   6.383   7.044 -0.3468 -0.2196  0.0430
   53CHL1   H4A 3854   1.734   6.301   7.034 -0.7379 -0.7762  1.5464
   53CHL1   H4B 3855   1.716   6.464   6.992  0.6524 -0.8764  0.0918
   53CHL1    C5 3856   1.630   6.421   7.187  0.6640 -0.2081  0.5074
   53CHL1    C6 3857   1.678   6.527   7.253 -0.3229  0.3727 -0.2642
   53CHL1    H6 3858   1.752   6.593   7.206  0.3941 -0.2283  0.0090
   53CHL1    C7 3859   1.658   6.549   7.395  0.7970  0.4271 -0.6826
   53CHL1   H7A 3860   1.753   6.588   7.436 -0.8315  1.6114  2.1563
   53CHL1   H7B 3861   1.588   6.634   7.410  1.5292  0.8288  0.4959
   53CHL1    C8 3862   1.599   6.427   7.473  0.2735  0.1431  0.2614
   53CHL1    H8 3863   1.686   6.361   7.493  0.4486  0.0555 -0.7399
   53CHL1   C14 3864   1.553   6.484   7.609  0.1789 -0.1350  0.6573
   53CHL1   H14 3865   1.476   6.559   7.580  0.9372  0.9154  1.3277
   53CHL1   C15 3866   1.654   6.570   7.685  0.2424  0.0545  0.2919
   53CHL1  H15A 3867   1.750   6.515   7.692  0.9373  1.1808 -0.1914
   53CHL1  H15B 3868   1.661   6.673   7.644 -3.6499  0.2657 -0.0284
   53CHL1   C16 3869   1.587   6.570   7.828 -0.2616 -0.0658 -0.0335
   53CHL1  H16A 3870   1.658   6.506   7.885  0.5150 -0.4953 -1.4474
   53CHL1  H16B 3871   1.585   6.674   7.867 -1.5753 -1.4278  3.7110
   53CHL1   C17 3872   1.458   6.482   7.826 -0.1501 -0.2861 -0.0574
   53CHL1   H17 3873   1.385   6.557   7.789 -0.5269 -0.7124 -0.1901
   53CHL1   C13 3874   1.484   6.390   7.707 -0.5871 -0.2450 -0.3290
   53CHL1   C18 3875   1.584   6.275   7.753  0.6845 -0.7251 -0.7049
   53CHL1  H18A 3876   1.650   6.315   7.833  1.0726 -0.6486 -1.0623
   53CHL1  H18B 3877   1.525   6.190   7.794  0.8237  0.0933  1.2709
   53CHL1  H18C 3878   1.648   6.234   7.672  0.4799 -1.6098 -0.4274
   53CHL1   C12 3879   1.367   6.327   7.630 -0.3220  0.2001 -0.2315
   53CHL1  H12A 3880   1.323   6.244   7.688  0.7727 -0.7042 -0.6852
   53CHL1  H12B 3881   1.301   6.416   7.617 -0.0861  0.5694  1.0852
   53CHL1   C11 3882   1.410   6.263   7.493  0.0047 -0.3291  0.2908
   53CHL1  H11A 3883   1.474   6.176   7.518  1.2759  0.2584 -0.8436
   53CHL1  H11B 3884   1.315   6.227   7.450 -0.3763  1.0828 -0.0542
   53CHL1    C9 3885   1.481   6.366   7.394 -0.3872  0.5327 -0.0789
   53CHL1    H9 3886   1.402   6.440   7.372 -0.1073  0.5946 -0.8658
   53CHL1   C10 3887   1.528   6.323   7.254  0.2089 -0.2106 -0.2104
   53CHL1   C19 3888   1.595   6.181   7.283 -0.3431  0.1186 -0.0069
   53CHL1  H19A 3889   1.529   6.101   7.323  0.6077 -2.3369 -3.1235
   53CHL1  H19B 3890   1.638   6.146   7.186  1.2124 -0.8628  1.0200
   53CHL1  H19C 3891   1.686   6.191   7.345 -1.7424  0.7998  1.9891
   53CHL1    C1 3892   1.408   6.313   7.161 -0.1056 -0.2546 -0.5823
   53CHL1   H1A 3893   1.336   6.244   7.211  0.3564 -1.9911 -2.2334
   53CHL1   H1B 3894   1.358   6.412   7.163  0.0605 -0.0982 -2.6890
   53CHL1    C2 3895   1.445   6.260   7.025 -0.3715  0.4351  0.6837
   53CHL1   H2A 3896   1.363   6.238   6.954  2.3696  0.0897 -2.5281
   53CHL1   H2B 3897   1.497   6.163   7.040 -2.1845 -0.8154 -0.8590
   53CHL1   C20 3898   1.405   6.421   7.958 -0.0614 -0.8800  0.7826
   53CHL1   H20 3899   1.456   6.325   7.976  0.5448 -1.6182 -4.2849
   53CHL1   C21 3900   1.250   6.395   7.952  0.5371  0.1926  0.5770
   53CHL1  H21A 3901   1.190   6.486   7.969 -4.0349 -2.4192 -0.8560
   53CHL1  H21B 3902   1.217   6.315   8.022  0.5002 -0.6827 -0.4337
   53CHL1  H21C 3903   1.225   6.365   7.848  0.1645 -0.9591  0.9905
   53CHL1   C22 3904   1.430   6.510   8.084  0.7153  0.0655  0.0316
   53CHL1  H22A 3905   1.540   6.520   8.098  0.9252 -0.3892 -1.2505
   53CHL1  H22B 3906   1.403   6.614   8.056  1.3956 -0.1883 -1.5794
   53CHL1   C23 3907   1.372   6.451   8.210  0.9073  0.6137 -0.6061
   53CHL1  H23A 3908   1.261   6.448   8.216  0.9007 -1.4737 -1.4989
   53CHL1  H23B 3909   1.398   6.344   8.219 -1.2495  0.2669  1.7680
   53CHL1   C24 3910   1.406   6.538   8.341  0.4807  0.1140  0.0604
   53CHL1  H24A 3911   1.373   6.644   8.329 -1.0405 -0.5347 -1.7473
   53CHL1  H24B 3912   1.341   6.488   8.416  0.6019 -2.3031 -1.4102
   53CHL1   C25 3913   1.553   6.536   8.395 -0.0474  0.1560  0.1210
   53CHL1   H25 3914   1.626   6.566   8.317 -0.3109 -1.0859 -0.6099
   53CHL1   C26 3915   1.569   6.640   8.514 -0.2468  0.1716 -0.5256
   53CHL1  H26A 3916   1.673   6.635   8.554 -1.1970 -2.4926  1.7968
   53CHL1  H26B 3917   1.549   6.744   8.481 -2.2189  0.1678  0.5819
   53CHL1  H26C 3918   1.506   6.604   8.598  1.3886  1.7311  1.4124
   53CHL1   C27 3919   1.590   6.393   8.436  0.2994  0.2343  0.0611
   53CHL1  H27A 3920   1.595   6.331   8.345  0.7873 -0.3177  0.4646
   53CHL1  H27B 3921   1.693   6.386   8.477  1.2241  1.6772 -1.9255
   53CHL1  H27C 3922   1.526   6.352   8.518  2.4830  1.8651  2.6797
   54CHL1    C3 3923   2.251   1.280   6.883 -0.2347 -0.8178  0.5341
   54CHL1    H3 3924   2.335   1.207   6.878  0.6170  0.1636  0.5923
   54CHL1    O3 3925   2.189   1.287   6.755 -0.1357  0.2033 -0.3618
   54CHL1   H3' 3926   2.258   1.315   6.694  0.3958  2.3556  1.1785
   54CHL1    C4 3927   2.135   1.241   6.976 -0.0511 -0.7325 -0.2656
   54CHL1   H4A 3928   2.050   1.308   6.951  0.0691 -0.2866  0.4822
   54CHL1   H4B 3929   2.097   1.141   6.946 -1.3791 -0.9851  2.1309
   54CHL1    C5 3930   2.181   1.248   7.124 -0.1557 -1.1026 -0.6298
   54CHL1    C6 3931   2.173   1.136   7.203 -0.2856  0.2519  1.1980
   54CHL1    H6 3932   2.126   1.047   7.159  0.3652  0.7188 -0.4721
   54CHL1    C7 3933   2.226   1.141   7.342  0.0792 -0.6752 -0.3403
   54CHL1   H7A 3934   2.156   1.084   7.407  0.4437 -0.7243  0.0100
   54CHL1   H7B 3935   2.324   1.090   7.331  0.4026 -0.6258  1.9725
   54CHL1    C8 3936   2.250   1.283   7.406  0.0866 -0.8154 -0.0101
   54CHL1    H8 3937   2.147   1.320   7.426 -0.9381 -3.5123 -0.1025
   54CHL1   C14 3938   2.331   1.271   7.537  0.0086 -0.2414 -0.4222
   54CHL1   H14 3939   2.426   1.228   7.500  0.0738 -0.2275 -0.2660
   54CHL1   C15 3940   2.281   1.178   7.641  0.0023 -0.5954  0.1701
   54CHL1  H15A 3941   2.171   1.196   7.644  0.1042  0.2168 -0.6864
   54CHL1  H15B 3942   2.308   1.072   7.627  2.0418 -0.2456  1.2865
   54CHL1   C16 3943   2.349   1.228   7.767  0.6988 -0.3311 -0.2759
   54CHL1  H16A 3944   2.280   1.242   7.853 -0.1668 -1.1270 -0.8429
   54CHL1  H16B 3945   2.430   1.154   7.788  1.1005 -0.2566 -1.5538
   54CHL1   C17 3946   2.432   1.359   7.731  0.3539  0.4063 -0.3565
   54CHL1   H17 3947   2.535   1.327   7.704  1.0526  3.9442 -2.1198
   54CHL1   C13 3948   2.357   1.411   7.597  0.4318  0.2778 -0.1597
   54CHL1   C18 3949   2.223   1.482   7.626 -0.0018  0.0383 -0.2020
   54CHL1  H18A 3950   2.246   1.583   7.666 -3.4310  1.0504 -0.6032
   54CHL1  H18B 3951   2.164   1.514   7.538 -1.1809  0.0664  0.5834
   54CHL1  H18C 3952   2.162   1.424   7.699 -1.6382  2.1688  0.1746
   54CHL1   C12 3953   2.441   1.494   7.501  0.7595  0.2944 -0.1357
   54CHL1  H12A 3954   2.460   1.596   7.540 -1.8548  0.2513  1.3255
   54CHL1  H12B 3955   2.539   1.447   7.477 -0.5778 -0.9974 -3.4553
   54CHL1   C11 3956   2.379   1.510   7.356 -0.1054 -0.3238  0.2262
   54CHL1  H11A 3957   2.301   1.589   7.358  0.2532  0.0150  0.9030
   54CHL1  H11B 3958   2.466   1.546   7.297 -0.3925 -1.7726 -1.0898
   54CHL1    C9 3959   2.329   1.377   7.305  0.4315  0.7773  0.2683
   54CHL1    H9 3960   2.417   1.314   7.284  0.2551  1.3391 -2.2340
   54CHL1   C10 3961   2.254   1.381   7.164  0.7721  0.0585 -0.8843
   54CHL1   C19 3962   2.137   1.487   7.156 -0.0260  0.5343  0.6421
   54CHL1  H19A 3963   2.035   1.464   7.194 -0.8004  0.1959 -1.5784
   54CHL1  H19B 3964   2.177   1.585   7.189  0.0576 -0.1368  2.6510
   54CHL1  H19C 3965   2.107   1.495   7.049 -3.5633 -0.0431  1.5097
   54CHL1    C1 3966   2.363   1.422   7.060  0.4500  0.1231 -0.4717
   54CHL1   H1A 3967   2.398   1.527   7.072  0.1615  0.2178 -0.4584
   54CHL1   H1B 3968   2.451   1.354   7.061  2.2624  2.3834 -0.9060
   54CHL1    C2 3969   2.318   1.416   6.912  0.2108  0.1704  0.2152
   54CHL1   H2A 3970   2.408   1.433   6.850 -1.9877  2.9036 -2.3527
   54CHL1   H2B 3971   2.238   1.490   6.892  1.7247  1.6399 -0.4948
   54CHL1   C20 3972   2.448   1.470   7.838  1.2939 -1.0432 -0.6291
   54CHL1   H20 3973   2.453   1.569   7.787 -1.6717 -0.1957  0.5838
   54CHL1   C21 3974   2.594   1.453   7.885  0.8298  0.5316 -0.6697
   54CHL1  H21A 3975   2.626   1.542   7.942 -0.5886  0.5024  0.1884
   54CHL1  H21B 3976   2.665   1.448   7.799  0.7792  1.9150 -0.8038
   54CHL1  H21C 3977   2.605   1.353   7.933 -1.6590 -0.5055 -2.1354
   54CHL1   C22 3978   2.337   1.463   7.944 -0.8853 -0.5935 -0.0244
   54CHL1  H22A 3979   2.238   1.469   7.896 -0.9428  1.4317  0.2928
   54CHL1  H22B 3980   2.347   1.380   8.018 -0.4830  0.7642  1.4847
   54CHL1   C23 3981   2.344   1.590   8.039  0.1901 -0.7687  0.2998
   54CHL1  H23A 3982   2.420   1.562   8.114  1.2999 -0.4700 -0.7095
   54CHL1  H23B 3983   2.378   1.676   7.976  2.4918 -1.4862  0.5223
   54CHL1   C24 3984   2.218   1.613   8.119 -0.0951  0.5494 -1.3101
   54CHL1  H24A 3985   2.124   1.636   8.064 -0.7402  0.9230 -0.0700
   54CHL1  H24B 3986   2.210   1.530   8.191  1.6819  0.1792 -1.5073
   54CHL1   C25 3987   2.216   1.726   8.226 -0.1926 -0.2727 -0.0924
   54CHL1   H25 3988   2.222   1.818   8.165 -0.9204 -0.2778 -0.1735
   54CHL1   C26 3989   2.085   1.718   8.305 -0.8320 -0.4742 -0.1347
   54CHL1  H26A 3990   1.992   1.736   8.248 -2.3433 -0.8575  2.1476
   54CHL1  H26B 3991   2.076   1.614   8.343 -0.9934 -1.5929 -3.1513
   54CHL1  H26C 3992   2.078   1.796   8.385  0.2631 -0.7052  0.1981
   54CHL1   C27 3993   2.342   1.728   8.330 -0.2687 -0.9919  0.3222
   54CHL1  H27A 3994   2.341   1.644   8.402  0.3200 -1.7989 -0.6019
   54CHL1  H27B 3995   2.441   1.719   8.281 -1.8021  1.0854 -3.4079
   54CHL1  H27C 3996   2.332   1.829   8.377 -1.0851  0.3382 -2.6161
   55CHL1    C3 3997   1.584   2.818   6.945  0.0314  0.3865  0.0063
   55CHL1    H3 3998   1.500   2.888   6.965  0.3584  0.5764  0.7234
   55CHL1    O3 3999   1.607   2.823   6.805  0.1853  0.2983 -0.3683
   55CHL1   H3' 4000   1.660   2.901   6.789 -0.9525  1.6513  2.1636
   55CHL1    C4 4001   1.711   2.853   7.012  0.3987 -0.0013 -0.4737
   55CHL1   H4A 4002   1.791   2.781   6.982  0.8526  1.1215 -2.0743
   55CHL1   H4B 4003   1.750   2.954   6.988  1.9541  0.2900  3.0571
   55CHL1    C5 4004   1.694   2.850   7.165  0.1189  0.0375 -0.8750
   55CHL1    C6 4005   1.715   2.958   7.239 -0.4907 -0.0452  0.4904
   55CHL1    H6 4006   1.733   3.052   7.186  0.5373  1.3734  3.2409
   55CHL1    C7 4007   1.710   2.956   7.390 -0.5880 -0.6266 -1.0902
   55CHL1   H7A 4008   1.800   3.015   7.419 -0.0555 -2.4112  0.9078
   55CHL1   H7B 4009   1.616   3.004   7.426 -0.3239 -2.3407  1.9615
   55CHL1    C8 4010   1.706   2.809   7.453 -0.9035 -0.3444 -0.6403
   55CHL1    H8 4011   1.813   2.781   7.456 -0.5593  0.9274 -0.7720
   55CHL1   C14 4012   1.664   2.816   7.596  0.2746 -0.2274 -0.5302
   55CHL1   H14 4013   1.555   2.837   7.583  0.0974 -1.1749 -0.6343
   55CHL1   C15 4014   1.727   2.923   7.694 -0.5825 -0.5104 -0.3503
   55CHL1  H15A 4015   1.836   2.929   7.676 -0.8192  0.3357 -1.5698
   55CHL1  H15B 4016   1.702   3.030   7.680 -0.3360 -0.5034 -0.7732
   55CHL1   C16 4017   1.697   2.874   7.837  0.3913  1.0692  0.2968
   55CHL1  H16A 4018   1.792   2.852   7.891 -0.9192 -1.1989  1.8017
   55CHL1  H16B 4019   1.632   2.941   7.898 -2.3574 -1.1277 -0.0828
   55CHL1   C17 4020   1.620   2.738   7.816 -0.1274 -0.2590  0.7187
   55CHL1   H17 4021   1.514   2.763   7.795 -0.4441 -2.9501 -1.0864
   55CHL1   C13 4022   1.664   2.690   7.677  0.1891  0.7940 -0.4635
   55CHL1   C18 4023   1.807   2.639   7.696  0.0836  0.2499 -0.1317
   55CHL1  H18A 4024   1.872   2.716   7.743 -0.3376  3.2172 -4.1164
   55CHL1  H18B 4025   1.799   2.546   7.755 -1.4649  0.3349 -0.1894
   55CHL1  H18C 4026   1.845   2.616   7.594  2.4238  2.2887  0.2184
   55CHL1   C12 4027   1.571   2.593   7.605  0.1225 -0.4895  0.5470
   55CHL1  H12A 4028   1.579   2.492   7.649  1.0024 -1.2550 -1.3065
   55CHL1  H12B 4029   1.474   2.644   7.622 -0.0725 -0.2530 -1.1802
   55CHL1   C11 4030   1.601   2.582   7.454  0.0355  0.1526  0.6256
   55CHL1  H11A 4031   1.697   2.526   7.460  0.7964  1.2989 -0.5746
   55CHL1  H11B 4032   1.530   2.505   7.416 -1.0142 -0.9175  4.4917
   55CHL1    C9 4033   1.612   2.721   7.379 -0.0044 -0.2127 -0.2409
   55CHL1    H9 4034   1.510   2.766   7.384 -1.0126 -2.3931 -0.1911
   55CHL1   C10 4035   1.643   2.711   7.225  0.1605 -0.6109  0.0454
   55CHL1   C19 4036   1.766   2.617   7.210 -0.1435  0.1638 -0.2420
   55CHL1  H19A 4037   1.849   2.655   7.272 -2.5159  1.0636  2.5001
   55CHL1  H19B 4038   1.732   2.519   7.252  0.7907  0.9916  2.5279
   55CHL1  H19C 4039   1.809   2.596   7.110 -0.0269 -5.2133  0.7329
   55CHL1    C1 4040   1.523   2.661   7.133 -0.5489  0.2525 -0.0333
   55CHL1   H1A 4041   1.515   2.552   7.156 -1.0417  0.2907 -0.0092
   55CHL1   H1B 4042   1.425   2.712   7.144 -0.9206 -0.1349 -1.4411
   55CHL1    C2 4043   1.542   2.673   6.978 -0.0126  0.2135  0.3712
   55CHL1   H2A 4044   1.443   2.652   6.931 -0.1438 -1.1274  1.2190
   55CHL1   H2B 4045   1.614   2.602   6.931 -0.4787  1.7063 -2.7793
   55CHL1   C20 4046   1.608   2.637   7.934 -0.0040  0.0878  0.5836
   55CHL1   H20 4047   1.567   2.541   7.894 -0.6405  0.7152 -0.2816
   55CHL1   C21 4048   1.511   2.690   8.035 -0.1710 -0.0578  0.3290
   55CHL1  H21A 4049   1.537   2.792   8.070  0.4360  0.3036 -1.1241
   55CHL1  H21B 4050   1.498   2.623   8.122 -1.5444 -0.7799 -0.4105
   55CHL1  H21C 4051   1.410   2.710   7.994 -0.4019  1.0567  1.3888
   55CHL1   C22 4052   1.737   2.601   8.015  0.3623 -0.4775  0.1588
   55CHL1  H22A 4053   1.829   2.635   7.962 -0.6091 -0.9286 -1.8730
   55CHL1  H22B 4054   1.743   2.654   8.112  0.2550  1.5123 -0.8848
   55CHL1   C23 4055   1.749   2.449   8.031 -0.0926 -0.1847  0.3130
   55CHL1  H23A 4056   1.731   2.391   7.938 -0.1964 -1.0477  0.8661
   55CHL1  H23B 4057   1.855   2.430   8.060  0.0653 -0.9474 -0.6923
   55CHL1   C24 4058   1.665   2.393   8.145  0.4175 -0.0017 -0.1920
   55CHL1  H24A 4059   1.703   2.420   8.246 -1.0825 -2.0997  0.9696
   55CHL1  H24B 4060   1.562   2.434   8.134  0.4793  1.2834  3.3545
   55CHL1   C25 4061   1.658   2.237   8.154 -0.7616 -0.7184  0.6333
   55CHL1   H25 4062   1.588   2.210   8.236  0.3650  1.6413  2.4226
   55CHL1   C26 4063   1.594   2.182   8.030  0.1804 -0.2215  0.3089
   55CHL1  H26A 4064   1.601   2.071   8.036 -0.1879 -0.2751 -0.1475
   55CHL1  H26B 4065   1.490   2.209   8.000  1.1609  0.4389 -2.6846
   55CHL1  H26C 4066   1.652   2.206   7.938 -0.5710 -0.1224 -0.1506
   55CHL1   C27 4067   1.799   2.176   8.187 -0.0091 -0.0161 -0.2368
   55CHL1  H27A 4068   1.854   2.227   8.269  0.6569  1.4049 -1.5478
   55CHL1  H27B 4069   1.794   2.070   8.219  2.1545 -0.5017 -1.3910
   55CHL1  H27C 4070   1.856   2.171   8.092  0.8931  0.5737  0.2618
   56CHL1    C3 4071   1.120   0.839   6.910  0.3104 -0.3397  1.0614
   56CHL1    H3 4072   1.082   0.939   6.942 -1.7759 -0.8603  0.2832
   56CHL1    O3 4073   1.103   0.829   6.769 -0.0501 -0.3096 -0.2141
   56CHL1   H3' 4074   1.182   0.867   6.728 -0.2714  0.1780 -0.1995
   56CHL1    C4 4075   1.274   0.817   6.943  0.0548 -0.5660 -0.3887
   56CHL1   H4A 4076   1.308   0.715   6.916  1.3491 -0.5452  1.1145
   56CHL1   H4B 4077   1.332   0.885   6.877 -0.8308  1.1691  0.5832
   56CHL1    C5 4078   1.303   0.833   7.098  0.4262  0.8008  0.1710
   56CHL1    C6 4079   1.387   0.920   7.147 -0.0949 -0.1321 -0.7263
   56CHL1    H6 4080   1.451   0.983   7.083  0.4989  1.3983  1.3282
   56CHL1    C7 4081   1.418   0.948   7.292 -0.3464  0.7022  0.7932
   56CHL1   H7A 4082   1.528   0.952   7.307 -0.1545 -0.9278 -0.0972
   56CHL1   H7B 4083   1.372   1.042   7.328  1.5979  1.3255  1.7207
   56CHL1    C8 4084   1.362   0.835   7.380 -0.0310  0.5730 -0.6359
   56CHL1    H8 4085   1.439   0.755   7.381  1.4077  1.9474  1.1632
   56CHL1   C14 4086   1.359   0.891   7.523 -0.2722 -0.1960 -0.0229
   56CHL1   H14 4087   1.298   0.984   7.520 -2.4404 -1.5558  0.4974
   56CHL1   C15 4088   1.492   0.938   7.598 -0.1702  0.1511  0.0658
   56CHL1  H15A 4089   1.565   0.856   7.583  0.2337  0.1167  2.1262
   56CHL1  H15B 4090   1.525   1.034   7.554 -0.0089 -0.9389 -2.2759
   56CHL1   C16 4091   1.455   0.937   7.746 -0.0271  0.4040 -0.3008
   56CHL1  H16A 4092   1.525   0.875   7.806  1.0843 -0.3952 -2.3785
   56CHL1  H16B 4093   1.447   1.041   7.784 -1.3243  1.4771 -3.3567
   56CHL1   C17 4094   1.313   0.883   7.747 -0.2749 -0.7155 -0.6156
   56CHL1   H17 4095   1.240   0.964   7.723  1.0324  0.6170 -0.1419
   56CHL1   C13 4096   1.296   0.795   7.624 -0.3567  0.4806  0.2362
   56CHL1   C18 4097   1.371   0.663   7.644 -0.1299 -0.2842  0.8520
   56CHL1  H18A 4098   1.468   0.669   7.699  0.1702 -0.6718  0.3697
   56CHL1  H18B 4099   1.306   0.607   7.715  0.5005 -0.5262  1.2409
   56CHL1  H18C 4100   1.380   0.611   7.546 -1.7618 -0.9855  1.0507
   56CHL1   C12 4101   1.149   0.762   7.584  1.0373  0.0516  0.1245
   56CHL1  H12A 4102   1.123   0.684   7.658 -0.2548  0.2124 -0.1368
   56CHL1  H12B 4103   1.086   0.853   7.593 -1.4261 -1.6604  0.6633
   56CHL1   C11 4104   1.151   0.706   7.442  0.3681 -1.0007 -0.7402
   56CHL1  H11A 4105   1.203   0.607   7.441 -2.3546 -2.4765  0.7339
   56CHL1  H11B 4106   1.048   0.683   7.408 -0.0658  0.4666 -0.4342
   56CHL1    C9 4107   1.213   0.800   7.338  0.0551  0.2397 -0.0194
   56CHL1    H9 4108   1.156   0.896   7.330  0.2087  0.1451 -2.5881
   56CHL1   C10 4109   1.211   0.751   7.188  0.4795 -0.3462  0.1943
   56CHL1   C19 4110   1.263   0.606   7.177  0.5978  0.6743 -0.0547
   56CHL1  H19A 4111   1.359   0.599   7.233 -0.1615  2.7841  1.5566
   56CHL1  H19B 4112   1.188   0.540   7.224  0.9928 -1.2051 -1.9553
   56CHL1  H19C 4113   1.280   0.567   7.074 -1.6576 -2.8038  0.7962
   56CHL1    C1 4114   1.063   0.758   7.138 -0.3052  0.2957  0.0486
   56CHL1   H1A 4115   0.996   0.688   7.192 -0.6679 -0.9518 -1.9317
   56CHL1   H1B 4116   1.031   0.861   7.162 -1.5736 -0.5390  2.0516
   56CHL1    C2 4117   1.041   0.735   6.988  0.3182 -0.0624 -0.3856
   56CHL1   H2A 4118   0.931   0.745   6.977  0.2094 -0.7687  0.0555
   56CHL1   H2B 4119   1.069   0.629   6.968 -1.0892 -0.4252 -0.4623
   56CHL1   C20 4120   1.261   0.826   7.887  0.2536 -0.2753 -0.6544
   56CHL1   H20 4121   1.166   0.770   7.871  0.0943 -0.1728 -0.0596
   56CHL1   C21 4122   1.219   0.952   7.965  0.3130 -0.2304 -0.4086
   56CHL1  H21A 4123   1.296   1.030   7.982  0.0230 -0.4534  2.1748
   56CHL1  H21B 4124   1.169   0.921   8.059 -1.6741  1.4962 -0.8412
   56CHL1  H21C 4125   1.137   1.006   7.912 -0.7449 -0.6127  0.8223
   56CHL1   C22 4126   1.371   0.748   7.968  0.1124  0.5596 -0.5172
   56CHL1  H22A 4127   1.415   0.668   7.905  0.7346 -0.2077  0.8532
   56CHL1  H22B 4128   1.456   0.817   7.989 -0.7020  1.0583  1.2943
   56CHL1   C23 4129   1.318   0.668   8.099  0.4379 -0.1247 -0.1504
   56CHL1  H23A 4130   1.237   0.730   8.142  0.2304 -0.2694 -0.3300
   56CHL1  H23B 4131   1.272   0.571   8.069  0.1985 -0.0633  0.0237
   56CHL1   C24 4132   1.435   0.653   8.198 -0.8621 -0.4901 -0.4756
   56CHL1  H24A 4133   1.514   0.583   8.162 -2.5281 -2.1135 -1.0285
   56CHL1  H24B 4134   1.475   0.757   8.193  1.2021 -1.2401 -0.3337
   56CHL1   C25 4135   1.386   0.632   8.344  0.2608  0.9889  0.3877
   56CHL1   H25 4136   1.321   0.719   8.370 -1.4331 -0.3182  0.5981
   56CHL1   C26 4137   1.309   0.494   8.353  0.0170 -0.3749 -0.2757
   56CHL1  H26A 4138   1.234   0.494   8.270 -0.2956 -1.1186  0.0034
   56CHL1  H26B 4139   1.255   0.473   8.448  1.0096 -0.4697  0.2670
   56CHL1  H26C 4140   1.369   0.405   8.325 -0.7933 -1.9993  2.9458
   56CHL1   C27 4141   1.504   0.645   8.436 -0.3808 -0.4004 -0.0847
   56CHL1  H27A 4142   1.565   0.737   8.422  0.7839 -1.1153  0.2906
   56CHL1  H27B 4143   1.473   0.643   8.543 -2.0537 -0.3281 -0.5473
   56CHL1  H27C 4144   1.576   0.562   8.428 -0.0668 -0.1933  0.5625
   57SAPC     N 4145   1.636   4.179  10.950 -0.0465 -0.1483  0.3064
   57SAPC   C12 4146   1.567   4.199  10.820  0.0348 -0.8783  0.7063
   57SAPC  H12A 4147   1.642   4.217  10.743 -0.4446  1.0345  0.6605
   57SAPC  H12B 4148   1.515   4.294  10.827  1.7755  0.0384  1.4404
   57SAPC   C13 4149   1.707   4.298  11.005 -0.5323 -0.3717  0.3798
   57SAPC  H13A 4150   1.639   4.374  11.041 -0.3705  1.3351 -2.6993
   57SAPC  H13B 4151   1.758   4.263  11.093  0.3759 -2.1549 -0.8304
   57SAPC  H13C 4152   1.773   4.344  10.932 -3.1548  1.1275 -1.1453
   57SAPC   C14 4153   1.539   4.123  11.051  0.2394 -0.9319  0.1652
   57SAPC  H14A 4154   1.464   4.073  10.991  2.6817  0.0786 -3.8915
   57SAPC  H14B 4155   1.586   4.057  11.122  1.8725 -1.0096 -0.9616
   57SAPC  H14C 4156   1.499   4.207  11.105  2.8240  1.1808 -1.1418
   57SAPC   C15 4157   1.745   4.076  10.942  0.6416 -0.6098 -0.2167
   57SAPC  H15A 4158   1.797   4.053  11.034  1.1029 -2.4250 -0.9109
   57SAPC  H15B 4159   1.706   3.982  10.906  0.3254 -0.8338  0.6804
   57SAPC  H15C 4160   1.822   4.095  10.869  2.2846 -0.6822  1.4309
   57SAPC   C11 4161   1.469   4.089  10.772  0.4286 -0.8149  0.0723
   57SAPC  H11A 4162   1.527   3.994  10.764  1.0984 -0.3013 -1.2446
   57SAPC  H11B 4163   1.444   4.110  10.666  1.3055 -0.5950 -0.0943
   57SAPC     P 4164   1.238   4.168  10.821  0.4238 -0.0360 -0.5066
   57SAPC   O13 4165   1.115   4.113  10.873 -0.2473  0.6273  0.3164
   57SAPC   O14 4166   1.279   4.304  10.867 -0.6417 -0.4555 -0.0173
   57SAPC   O12 4167   1.358   4.068  10.855  0.0428  0.9827  0.0980
   57SAPC   O11 4168   1.226   4.158  10.666 -0.1532  0.3886 -0.5986
   57SAPC    C1 4169   1.158   4.254  10.584 -0.1541 -0.2603 -0.7047
   57SAPC    HA 4170   1.129   4.346  10.641  3.7707 -0.1865  1.3404
   57SAPC    HB 4171   1.226   4.283  10.502 -1.5555  1.7603 -1.1865
   57SAPC    C2 4172   1.033   4.183  10.526  0.1684  0.2977  0.1840
   57SAPC    HS 4173   0.990   4.120  10.607 -0.6894  1.1474  0.4014
   57SAPC   O21 4174   1.076   4.100  10.418  0.2536  0.0110  0.1298
   57SAPC   C21 4175   1.120   3.975  10.451  0.5375 -0.2975  0.1572
   57SAPC   O22 4176   1.100   3.910  10.554 -0.0406  0.1035  0.2986
   57SAPC   C22 4177   1.196   3.928  10.328 -0.4241 -0.8340  0.1447
   57SAPC   H2R 4178   1.181   3.817  10.330 -1.7445 -0.6622  3.2555
   57SAPC   H2S 4179   1.156   3.970  10.233 -1.2263 -2.5538 -0.3016
   57SAPC    C3 4180   0.928   4.289  10.475 -0.5560 -0.0182  0.2223
   57SAPC    HX 4181   0.978   4.329  10.384  1.4087 -2.3500  0.2316
   57SAPC    HY 4182   0.915   4.372  10.548 -0.6138 -0.7615  1.0541
   57SAPC   O31 4183   0.804   4.224  10.434  0.4705 -0.1237 -0.0513
   57SAPC   C31 4184   0.722   4.299  10.362  0.1167  0.4968  0.7768
   57SAPC   O32 4185   0.728   4.418  10.353  0.9752 -0.3999 -0.3973
   57SAPC   C32 4186   0.625   4.204  10.296  0.9081  0.0357  1.3061
   57SAPC   H2X 4187   0.523   4.244  10.309  0.4628 -0.8148  0.4724
   57SAPC   H2Y 4188   0.637   4.109  10.353  1.4583  0.3837  1.7775
   57SAPC   C23 4189   1.344   3.966  10.326 -0.4259  0.2794  0.8291
   57SAPC   H3R 4190   1.404   3.942  10.416 -0.1304 -0.8272  0.3433
   57SAPC   H3S 4191   1.355   4.075  10.341 -0.6547  0.4086  0.0344
   57SAPC   C24 4192   1.407   3.903  10.201  0.0805 -0.3633 -0.6916
   57SAPC   H4R 4193   1.492   3.972  10.180 -0.4897  0.4184 -0.4396
   57SAPC   H4S 4194   1.344   3.924  10.113  0.0692  3.5706  0.1823
   57SAPC   C25 4195   1.460   3.762  10.212 -0.0414  0.1842 -0.0657
   57SAPC   H5R 4196   1.537   3.748  10.290  0.0773 -1.0846 -0.4016
   57SAPC   C26 4197   1.429   3.662  10.127  1.2762  0.6140  0.9304
   57SAPC   H6R 4198   1.469   3.563  10.151 -1.5864 -0.8819 -0.2286
   57SAPC   C27 4199   1.330   3.655  10.009  0.0598  1.1037 -0.2202
   57SAPC   H7R 4200   1.339   3.549   9.975  2.6790  0.3897  2.4457
   57SAPC   H7S 4201   1.383   3.718   9.934  0.3825  1.8079  0.5998
   57SAPC   C28 4202   1.180   3.690  10.030 -0.5367  0.1474 -0.2109
   57SAPC   H8R 4203   1.164   3.735  10.129 -0.2479  0.4679 -0.3074
   57SAPC   C29 4204   1.082   3.691   9.938  0.0420 -0.2159 -0.1665
   57SAPC   H9R 4205   0.983   3.731   9.963  1.0919  1.4235  1.4962
   57SAPC  C210 4206   1.112   3.655   9.793 -0.1869  0.3382 -0.6820
   57SAPC  H10R 4207   1.021   3.618   9.741  1.5505 -1.4366 -2.5506
   57SAPC  H10S 4208   1.173   3.563   9.781 -0.2445  0.3530 -1.0781
   57SAPC  C211 4209   1.176   3.756   9.708 -0.4516 -0.5447 -0.1859
   57SAPC  H11R 4210   1.231   3.837   9.759 -0.2261 -0.9022  0.1403
   57SAPC  C212 4211   1.181   3.751   9.574  0.6350 -0.1007  0.4368
   57SAPC  H12R 4212   1.237   3.828   9.520 -1.3800  1.4872  0.5476
   57SAPC  C213 4213   1.120   3.640   9.490 -0.8901 -0.0148 -0.2632
   57SAPC  H13R 4214   1.148   3.542   9.534 -1.6627 -0.6538 -1.1775
   57SAPC  H13S 4215   1.172   3.648   9.392 -1.3333 -1.4169 -0.6165
   57SAPC  C214 4216   0.969   3.661   9.462  0.7817  0.5845  0.4033
   57SAPC  H14R 4217   0.944   3.759   9.419 -0.8568 -0.9255 -2.2661
   57SAPC  C215 4218   0.864   3.576   9.471  0.8190 -0.5817  0.2055
   57SAPC  H15R 4219   0.762   3.603   9.439  1.6286  2.6608  0.1733
   57SAPC  C216 4220   0.864   3.436   9.519  0.1857 -0.1240  0.5234
   57SAPC  H16R 4221   0.780   3.411   9.586 -0.3501 -0.2988 -0.2101
   57SAPC  H16S 4222   0.959   3.419   9.574 -1.0020 -0.7104  2.4435
   57SAPC  C217 4223   0.867   3.341   9.405 -0.7043 -0.0679 -0.2590
   57SAPC  H17R 4224   0.944   3.365   9.329  0.1220  1.1016  0.9087
   57SAPC  H17S 4225   0.769   3.352   9.355 -0.6663 -0.1171 -0.3452
   57SAPC  C218 4226   0.872   3.199   9.462 -0.1934  0.6602 -0.0533
   57SAPC  H18R 4227   0.766   3.187   9.494 -1.4613  1.9846 -3.5100
   57SAPC  H18S 4228   0.921   3.192   9.562  0.0959 -0.3555 -0.2604
   57SAPC  C219 4229   0.919   3.099   9.353  0.1090 -0.2511 -0.3376
   57SAPC  H19R 4230   0.870   3.115   9.254 -1.6577 -2.5543  0.1110
   57SAPC  H19S 4231   0.873   3.004   9.388  1.2386 -0.9698 -0.7512
   57SAPC  C220 4232   1.070   3.093   9.332  0.1325  0.0019 -1.0156
   57SAPC  H20R 4233   1.091   3.026   9.246  0.3219 -0.3533 -0.6927
   57SAPC  H20S 4234   1.118   3.045   9.420 -2.0995  0.9422  0.7661
   57SAPC  H20T 4235   1.115   3.194   9.320 -1.0742  0.6058 -0.5502
   57SAPC   C33 4236   0.655   4.157  10.150  0.8336 -0.4820  0.0917
   57SAPC   H3X 4237   0.642   4.247  10.087 -2.2438 -0.0092  1.3202
   57SAPC   H3Y 4238   0.588   4.075  10.116  0.1657  0.3976 -0.7369
   57SAPC   C34 4239   0.803   4.108  10.144  0.7167 -0.0145  0.0490
   57SAPC   H4X 4240   0.809   4.014  10.203  1.9977 -0.5235 -0.8758
   57SAPC   H4Y 4241   0.882   4.182  10.171  1.8078  0.1708 -3.4481
   57SAPC   C35 4242   0.860   4.099   9.997 -0.2358  0.4294  0.3687
   57SAPC   H5X 4243   0.823   4.188   9.942 -1.4381 -0.1620  0.2083
   57SAPC   H5Y 4244   0.817   4.005   9.957  1.6748  0.2445 -1.3648
   57SAPC   C36 4245   1.016   4.096   9.980  0.0830  0.1407  0.4422
   57SAPC   H6X 4246   1.055   4.011  10.040 -0.7081 -0.5227  0.0325
   57SAPC   H6Y 4247   1.054   4.193  10.018  1.8857 -0.3595 -0.0130
   57SAPC   C37 4248   1.078   4.077   9.836 -0.4036 -1.0677  0.2923
   57SAPC   H7X 4249   1.082   3.972   9.800  0.9264 -0.7248 -0.5732
   57SAPC   H7Y 4250   1.185   4.100   9.855 -0.6952  0.7118 -0.1861
   57SAPC   C38 4251   1.030   4.157   9.715 -0.3240  0.0275  0.3995
   57SAPC   H8X 4252   1.035   4.264   9.745  1.3016  0.1628 -0.3283
   57SAPC   H8Y 4253   0.922   4.134   9.706 -1.5077  5.3079 -0.5417
   57SAPC   C39 4254   1.108   4.140   9.586 -0.0604 -0.1551  0.1632
   57SAPC   H9X 4255   1.098   4.034   9.553 -1.2331 -0.3787  1.1850
   57SAPC   H9Y 4256   1.215   4.169   9.593  0.3567 -1.1477 -1.7178
   57SAPC  C310 4257   1.040   4.218   9.467 -0.2989 -0.1493 -0.3133
   57SAPC  H10X 4258   1.052   4.328   9.484 -0.1738 -0.4486  1.6445
   57SAPC  H10Y 4259   0.931   4.199   9.468 -0.0882 -1.6356 -2.9124
   57SAPC  C311 4260   1.092   4.187   9.320  0.2982 -0.7546  0.2370
   57SAPC  H11X 4261   1.202   4.174   9.323  0.1419 -2.7241 -1.2946
   57SAPC  H11Y 4262   1.051   4.256   9.243  0.4666 -0.6999  0.1977
   57SAPC  C312 4263   1.043   4.051   9.265  0.4569  0.5637 -0.6858
   57SAPC  H12X 4264   0.932   4.054   9.270  0.2732 -1.6548 -2.4301
   57SAPC  H12Y 4265   1.068   3.967   9.333 -1.1168  0.9175  0.3597
   57SAPC  C313 4266   1.100   4.029   9.130  0.5067  0.0299  0.4636
   57SAPC  H13X 4267   1.202   3.995   9.157 -0.2234 -0.6515  2.4670
   57SAPC  H13Y 4268   1.110   4.128   9.080 -0.1952 -0.4836 -0.7123
   57SAPC  C314 4269   1.035   3.924   9.041  0.5558  0.7928  0.1028
   57SAPC  H14X 4270   0.939   3.892   9.088  0.7426 -3.2559 -2.0757
   57SAPC  H14Y 4271   1.091   3.828   9.041 -0.0740  0.4202 -1.1235
   57SAPC  C315 4272   1.010   3.978   8.897  0.6093  0.5583 -0.8629
   57SAPC  H15X 4273   1.013   3.887   8.834 -3.1182  0.3346 -0.8329
   57SAPC  H15Y 4274   1.093   4.046   8.869  1.4213  0.0290  0.2253
   57SAPC  C316 4275   0.872   4.037   8.881 -0.4313  0.1946 -0.6487
   57SAPC  H16X 4276   0.873   4.102   8.971 -2.5015  0.4445 -0.7708
   57SAPC  H16Y 4277   0.784   3.969   8.892  0.8785 -1.2236  1.4484
   57SAPC  C317 4278   0.865   4.114   8.744 -0.2543  0.3520  0.4097
   57SAPC  H17X 4279   0.958   4.172   8.723 -0.7627  0.1639 -2.6870
   57SAPC  H17Y 4280   0.781   4.187   8.742 -0.4846  0.1170 -2.9676
   57SAPC  C318 4281   0.853   4.021   8.618 -0.0606 -0.1495 -0.1777
   57SAPC  H18X 4282   0.770   3.948   8.627  0.5732 -0.9160 -0.5439
   57SAPC  H18Y 4283   0.952   3.973   8.604 -0.7480 -2.4161  2.3046
   57SAPC  H18Z 4284   0.826   4.079   8.527 -0.2515 -1.7277 -1.1483
   58SAPC     N 4285   3.306   1.547  11.006 -0.4913 -0.2709 -0.3245
   58SAPC   C12 4286   3.190   1.640  11.004  0.3903 -0.2064  1.0113
   58SAPC  H12A 4287   3.230   1.741  11.008  1.5991 -0.6448  0.2686
   58SAPC  H12B 4288   3.136   1.638  11.098 -1.5614 -3.4622 -0.1300
   58SAPC   C13 4289   3.266   1.411  11.048 -0.1933  0.8939  0.2227
   58SAPC  H13A 4290   3.248   1.414  11.154  0.5141  2.3032  0.3185
   58SAPC  H13B 4291   3.172   1.381  11.004 -1.0266  3.6377  0.0579
   58SAPC  H13C 4292   3.337   1.337  11.015 -0.6448  0.1052  1.0067
   58SAPC   C14 4293   3.369   1.550  10.867 -0.1380  0.7640 -0.9675
   58SAPC  H14A 4294   3.465   1.501  10.872 -1.4496 -2.0881 -2.3007
   58SAPC  H14B 4295   3.313   1.487  10.798 -1.2296  0.9023 -0.2286
   58SAPC  H14C 4296   3.386   1.649  10.830 -0.2918  1.5279  0.9569
   58SAPC   C15 4297   3.400   1.608  11.110 -0.2401  0.1236  0.0018
   58SAPC  H15A 4298   3.470   1.531  11.139 -1.6040  0.2737  3.9490
   58SAPC  H15B 4299   3.446   1.699  11.073  1.8155 -0.5422  0.8522
   58SAPC  H15C 4300   3.355   1.633  11.205  1.4920 -0.0155  0.8881
   58SAPC   C11 4301   3.100   1.627  10.878 -0.0515  0.6657 -0.1464
   58SAPC  H11A 4302   3.004   1.668  10.914 -0.0804  1.5355 -1.2026
   58SAPC  H11B 4303   3.075   1.523  10.846 -0.4522  1.5867 -2.8868
   58SAPC     P 4304   3.159   1.860  10.771 -0.2412 -0.1187  0.0544
   58SAPC   O13 4305   3.059   1.909  10.861  0.7940  0.0209 -0.2189
   58SAPC   O14 4306   3.299   1.893  10.802 -0.6283  0.3151  0.0307
   58SAPC   O12 4307   3.146   1.702  10.762  0.1071  0.0714 -0.6257
   58SAPC   O11 4308   3.124   1.901  10.627 -0.1704  0.1340 -0.1014
   58SAPC    C1 4309   3.156   1.833  10.497 -0.0290  0.2648 -0.2821
   58SAPC    HA 4310   3.127   1.726  10.504 -1.4268  0.6739  0.5097
   58SAPC    HB 4311   3.085   1.873  10.421 -1.4800 -0.5025  0.6523
   58SAPC    C2 4312   3.304   1.845  10.448  0.1358  0.5952  0.5741
   58SAPC    HS 4313   3.366   1.851  10.539  0.2802 -2.9807  0.7699
   58SAPC   O21 4314   3.321   1.965  10.377  0.4232 -0.1578  0.0786
   58SAPC   C21 4315   3.445   1.998  10.347 -0.1502  0.0552 -0.2022
   58SAPC   O22 4316   3.545   1.933  10.380 -0.0363 -0.4140 -0.0385
   58SAPC   C22 4317   3.448   2.114  10.247 -0.3514  0.8614 -0.4837
   58SAPC   H2R 4318   3.510   2.193  10.294 -0.1956  0.6047 -0.2556
   58SAPC   H2S 4319   3.497   2.069  10.158 -1.7604 -2.5376  0.3515
   58SAPC    C3 4320   3.337   1.717  10.375  0.9253  0.5623  0.7170
   58SAPC    HX 4321   3.332   1.633  10.448 -0.5057 -0.7703 -0.8701
   58SAPC    HY 4322   3.445   1.714  10.348  1.0120 -2.1716  1.1941
   58SAPC   O31 4323   3.239   1.683  10.273 -0.1283 -0.1234 -0.5521
   58SAPC   C31 4324   3.266   1.736  10.150  0.7386  0.5886 -0.8454
   58SAPC   O32 4325   3.362   1.811  10.124 -0.4296 -0.1840 -0.2389
   58SAPC   C32 4326   3.149   1.706  10.058 -0.0704 -0.1349  0.6958
   58SAPC   H2X 4327   3.051   1.719  10.109 -0.2440 -1.4570  0.7091
   58SAPC   H2Y 4328   3.163   1.601  10.025  3.0227  0.5975 -0.5151
   58SAPC   C23 4329   3.305   2.144  10.190  0.4921 -0.3966 -0.0861
   58SAPC   H3R 4330   3.269   2.210  10.272  0.2518 -1.0019  0.2990
   58SAPC   H3S 4331   3.254   2.046  10.180  0.2399 -0.1013 -1.8593
   58SAPC   C24 4332   3.307   2.219  10.054  0.7802 -0.7333  0.4867
   58SAPC   H4R 4333   3.350   2.145   9.983  2.0677  0.1261  0.3537
   58SAPC   H4S 4334   3.365   2.314  10.061 -0.3110 -0.0324  0.2581
   58SAPC   C25 4335   3.165   2.257  10.023  0.7080  0.0145  0.3564
   58SAPC   H5R 4336   3.107   2.310  10.101 -1.3044 -1.8944  0.2173
   58SAPC   C26 4337   3.106   2.227   9.902 -0.2625  0.7444 -0.1640
   58SAPC   H6R 4338   2.999   2.245   9.886 -0.3646  1.0610  0.8333
   58SAPC   C27 4339   3.165   2.143   9.789 -0.4585 -0.6829  0.4067
   58SAPC   H7R 4340   3.091   2.096   9.720 -0.3682  3.3156 -2.5994
   58SAPC   H7S 4341   3.215   2.052   9.829  0.6598 -0.3647 -0.2367
   58SAPC   C28 4342   3.257   2.216   9.695 -0.2570 -0.2529  0.7653
   58SAPC   H8R 4343   3.333   2.274   9.750 -0.9378  1.4914 -0.1240
   58SAPC   C29 4344   3.258   2.224   9.558 -0.2384 -0.2088 -0.6808
   58SAPC   H9R 4345   3.339   2.280   9.509  0.4357 -0.6513 -0.0805
   58SAPC  C210 4346   3.164   2.166   9.470  0.2427  0.7557  1.0423
   58SAPC  H10R 4347   3.158   2.236   9.383  4.0419 -0.0567  0.0399
   58SAPC  H10S 4348   3.063   2.169   9.516 -0.0574  2.1531  0.3297
   58SAPC  C211 4349   3.213   2.028   9.422  0.5822  1.2373  0.0238
   58SAPC  H11R 4350   3.217   1.949   9.498 -0.3560  0.5335 -0.6541
   58SAPC  C212 4351   3.243   1.994   9.292 -0.9403 -0.4426  0.3961
   58SAPC  H12R 4352   3.279   1.891   9.279 -2.2477 -0.8003 -0.5752
   58SAPC  C213 4353   3.255   2.069   9.158 -0.4026  0.1542 -0.2593
   58SAPC  H13R 4354   3.332   2.016   9.100 -0.3262 -0.8654  0.7459
   58SAPC  H13S 4355   3.295   2.170   9.183 -0.2663  0.3949 -1.4227
   58SAPC  C214 4356   3.126   2.100   9.079  0.1473 -0.4370  0.2074
   58SAPC  H14R 4357   3.068   2.186   9.116  3.0434  1.1330  1.2721
   58SAPC  C215 4358   3.087   2.033   8.970 -0.9296 -0.4814 -0.6563
   58SAPC  H15R 4359   3.009   2.080   8.909 -2.1673  0.6774  1.7311
   58SAPC  C216 4360   3.157   1.914   8.906  0.6833  0.0898  0.0469
   58SAPC  H16R 4361   3.085   1.832   8.883  1.7838 -0.3583 -1.9416
   58SAPC  H16S 4362   3.230   1.870   8.977  0.9741  0.2996 -0.1203
   58SAPC  C217 4363   3.230   1.945   8.778  0.5389 -0.1157  0.0268
   58SAPC  H17R 4364   3.306   1.865   8.771  1.2048  0.7564 -4.4003
   58SAPC  H17S 4365   3.282   2.043   8.781  2.4375 -1.1487  2.2207
   58SAPC  C218 4366   3.142   1.938   8.653 -0.3220 -0.8416  0.3086
   58SAPC  H18R 4367   3.036   1.969   8.666 -0.6571 -0.8424 -2.2600
   58SAPC  H18S 4368   3.123   1.832   8.624 -2.4379 -0.7870  1.3871
   58SAPC  C219 4369   3.201   2.024   8.535 -0.2357  0.7627 -0.2983
   58SAPC  H19R 4370   3.226   2.125   8.574 -2.9955  1.9907 -1.5991
   58SAPC  H19S 4371   3.123   2.025   8.455 -2.9415  3.9199  2.2395
   58SAPC  C220 4372   3.326   1.950   8.473 -0.1632  0.2304  0.7569
   58SAPC  H20R 4373   3.387   1.902   8.552  1.3862 -0.1185 -0.6374
   58SAPC  H20S 4374   3.376   2.011   8.395 -0.1594 -0.6784  0.0382
   58SAPC  H20T 4375   3.277   1.870   8.414 -2.0319 -0.4251  3.1249
   58SAPC   C33 4376   3.143   1.783   9.921 -0.3650  0.1727  0.2990
   58SAPC   H3X 4377   3.244   1.780   9.874 -1.3420  1.6278 -2.0052
   58SAPC   H3Y 4378   3.132   1.893   9.935  0.0575  0.3330 -0.5970
   58SAPC   C34 4379   3.038   1.724   9.817  0.0794  0.8258 -0.6895
   58SAPC   H4X 4380   2.940   1.721   9.868  0.4016 -0.0598 -0.1094
   58SAPC   H4Y 4381   3.072   1.625   9.779 -0.8388  0.7214 -1.2430
   58SAPC   C35 4382   3.027   1.806   9.694 -0.1424 -0.3943  0.0906
   58SAPC   H5X 4383   3.132   1.820   9.660  0.5074  0.8719  2.4963
   58SAPC   H5Y 4384   2.980   1.903   9.720  0.2552 -0.0631 -0.4215
   58SAPC   C36 4385   2.945   1.734   9.584  0.4640 -0.1663 -0.9635
   58SAPC   H6X 4386   2.899   1.812   9.521 -1.9245 -0.6158  0.1948
   58SAPC   H6Y 4387   2.853   1.682   9.617  0.1420 -0.0672 -1.7020
   58SAPC   C37 4388   3.026   1.641   9.492  0.0021  0.4119 -0.1030
   58SAPC   H7X 4389   3.082   1.557   9.538 -1.3909 -0.1664  0.5602
   58SAPC   H7Y 4390   3.102   1.702   9.439  1.9540  1.0479  3.2719
   58SAPC   C38 4391   2.946   1.578   9.379 -0.6787  0.1592 -0.3641
   58SAPC   H8X 4392   2.901   1.661   9.319 -0.3402 -0.6134 -1.7181
   58SAPC   H8Y 4393   2.866   1.520   9.430 -0.1497 -1.7988 -1.7212
   58SAPC   C39 4394   3.022   1.485   9.287  0.0181  0.3077  0.2913
   58SAPC   H9X 4395   3.018   1.381   9.324  0.7935  0.0088 -0.4330
   58SAPC   H9Y 4396   3.126   1.523   9.277 -0.1580  0.2247 -2.3045
   58SAPC  C310 4397   2.966   1.476   9.141 -0.2134 -0.0500  0.0677
   58SAPC  H10X 4398   2.919   1.573   9.118 -0.5647  0.5630  3.1325
   58SAPC  H10Y 4399   2.902   1.385   9.139  2.6400 -2.1793  1.4767
   58SAPC  C311 4400   3.068   1.427   9.040 -0.9202 -0.0834  0.1892
   58SAPC  H11X 4401   3.022   1.351   8.973  0.9159 -0.0483 -1.1392
   58SAPC  H11Y 4402   3.147   1.373   9.096  0.7596  0.1156 -1.9324
   58SAPC  C312 4403   3.105   1.531   8.932  0.4190 -0.3822 -0.0682
   58SAPC  H12X 4404   3.167   1.607   8.983 -0.8557  0.4915  0.2017
   58SAPC  H12Y 4405   3.014   1.591   8.908 -1.5450 -3.6155 -1.0118
   58SAPC  C313 4406   3.175   1.472   8.810 -0.2550  0.1221 -0.2939
   58SAPC  H13X 4407   3.110   1.414   8.741  0.9072 -0.4085 -0.9561
   58SAPC  H13Y 4408   3.244   1.391   8.843 -2.4389 -0.5615  2.7416
   58SAPC  C314 4409   3.263   1.576   8.744 -0.1328 -0.1159  0.2961
   58SAPC  H14X 4410   3.310   1.641   8.820 -2.7948 -0.8215  2.6423
   58SAPC  H14Y 4411   3.212   1.648   8.676  0.6983 -0.8377 -1.1066
   58SAPC  C315 4412   3.373   1.526   8.658  0.1894  0.3047 -0.0193
   58SAPC  H15X 4413   3.438   1.452   8.710 -0.5553 -0.4296 -0.1131
   58SAPC  H15Y 4414   3.442   1.607   8.628 -0.5977  1.7091  1.8511
   58SAPC  C316 4415   3.331   1.461   8.520  0.7266  0.2543  0.3933
   58SAPC  H16X 4416   3.410   1.483   8.445 -1.0573 -0.8959 -1.8735
   58SAPC  H16Y 4417   3.236   1.510   8.487 -0.0725 -1.6568 -0.2321
   58SAPC  C317 4418   3.313   1.313   8.516 -0.0994  0.2033  0.4321
   58SAPC  H17X 4419   3.275   1.280   8.417 -0.4020  0.8939  0.3152
   58SAPC  H17Y 4420   3.238   1.278   8.590  0.3070 -2.3759 -0.3317
   58SAPC  C318 4421   3.436   1.233   8.543  0.1591  0.1339  0.2220
   58SAPC  H18X 4422   3.508   1.262   8.464  0.2384 -1.1990 -0.2085
   58SAPC  H18Y 4423   3.409   1.126   8.531  0.1070  0.2206 -0.4288
   58SAPC  H18Z 4424   3.469   1.257   8.647  0.6007  3.7565 -0.7079
   59SAPC     N 4425   5.041   3.626  11.478  0.1073  0.5587  0.4868
   59SAPC   C12 4426   4.987   3.706  11.362  0.0215  0.1425 -0.6089
   59SAPC  H12A 4427   5.005   3.660  11.265  1.3212  0.3012 -0.4516
   59SAPC  H12B 4428   5.051   3.792  11.363  0.9654 -0.5108 -2.3767
   59SAPC   C13 4429   4.964   3.496  11.496  0.8439 -0.0977 -0.3739
   59SAPC  H13A 4430   4.973   3.458  11.596  1.1396  0.1513 -0.3081
   59SAPC  H13B 4431   4.862   3.507  11.462  1.8170  0.9943 -3.1741
   59SAPC  H13C 4432   5.007   3.419  11.435 -1.0228 -0.6839 -0.9877
   59SAPC   C14 4433   5.183   3.606  11.438  0.5762  0.0530  0.1216
   59SAPC  H14A 4434   5.239   3.568  11.523  1.4264 -0.6293 -0.7327
   59SAPC  H14B 4435   5.191   3.541  11.353  0.0754  0.9652 -0.6304
   59SAPC  H14C 4436   5.233   3.696  11.403  0.4944  0.6420  1.4722
   59SAPC   C15 4437   5.024   3.700  11.607 -0.3574  0.1509  0.0958
   59SAPC  H15A 4438   5.045   3.639  11.693  0.2608  2.8848  1.9117
   59SAPC  H15B 4439   5.068   3.798  11.605 -0.1756  0.0753  0.4786
   59SAPC  H15C 4440   4.917   3.713  11.617 -0.3617 -0.1617  0.4614
   59SAPC   C11 4441   4.837   3.748  11.356  0.4094  0.6313 -0.3858
   59SAPC  H11A 4442   4.832   3.829  11.280 -0.3628 -0.7821 -1.8710
   59SAPC  H11B 4443   4.799   3.793  11.451 -1.2148  0.7461 -1.0776
   59SAPC     P 4444   4.753   3.569  11.180  0.0325  0.6124  0.3158
   59SAPC   O13 4445   4.865   3.469  11.166 -0.2251 -0.6034  0.0289
   59SAPC   O14 4446   4.616   3.527  11.153 -0.1243 -0.4659 -0.3270
   59SAPC   O12 4447   4.753   3.635  11.327 -0.2969 -0.1978 -0.3996
   59SAPC   O11 4448   4.792   3.691  11.092 -0.1769 -0.3803 -0.0966
   59SAPC    C1 4449   4.716   3.755  10.998  0.4262  0.1128  0.5143
   59SAPC    HA 4450   4.612   3.766  11.035 -0.1495 -3.1841 -0.0176
   59SAPC    HB 4451   4.746   3.859  10.971 -0.8027  0.2407 -0.3976
   59SAPC    C2 4452   4.711   3.686  10.855  0.3589 -1.2036 -0.3914
   59SAPC    HS 4453   4.683   3.580  10.873  2.0491 -1.3728  1.3575
   59SAPC   O21 4454   4.845   3.698  10.793 -0.0977 -0.2770 -0.1557
   59SAPC   C21 4455   4.893   3.590  10.726  0.6774 -0.2981  0.2776
   59SAPC   O22 4456   4.828   3.488  10.708 -0.4635  0.3926  0.2038
   59SAPC   C22 4457   5.035   3.619  10.680 -0.3643 -1.2241 -0.2532
   59SAPC   H2R 4458   5.070   3.710  10.732 -0.9829 -1.2230  0.1642
   59SAPC   H2S 4459   5.090   3.532  10.721 -0.0316 -0.6735  0.4726
   59SAPC    C3 4460   4.605   3.760  10.765 -0.0059 -0.2093  0.1841
   59SAPC    HX 4461   4.645   3.856  10.725 -1.8231 -0.1086 -1.4868
   59SAPC    HY 4462   4.519   3.792  10.826 -1.4808  0.2950 -2.1077
   59SAPC   O31 4463   4.558   3.675  10.659  0.3200 -0.0508 -0.2210
   59SAPC   C31 4464   4.466   3.592  10.685 -0.2917  0.0740 -0.2250
   59SAPC   O32 4465   4.406   3.575  10.789 -0.3464  0.5702  0.2194
   59SAPC   C32 4466   4.449   3.494  10.564  0.2997 -0.7740 -0.1952
   59SAPC   H2X 4467   4.492   3.395  10.591 -0.9519 -0.6756  2.3936
   59SAPC   H2Y 4468   4.512   3.527  10.479  1.1099 -4.1075 -0.9921
   59SAPC   C23 4469   5.050   3.624  10.523  0.9836 -0.1165 -1.2371
   59SAPC   H3R 4470   5.007   3.530  10.483 -1.7098  0.2953  0.5990
   59SAPC   H3S 4471   5.159   3.616  10.500  1.0371  2.6053 -2.0563
   59SAPC   C24 4472   4.976   3.742  10.458 -0.0993 -1.1335 -0.4999
   59SAPC   H4R 4473   4.929   3.805  10.536 -1.2771 -0.2074 -1.9356
   59SAPC   H4S 4474   4.895   3.707  10.390  0.3751 -0.4164 -1.4441
   59SAPC   C25 4475   5.074   3.830  10.387  0.0168 -0.1200 -0.2054
   59SAPC   H5R 4476   5.099   3.918  10.448 -3.2376  0.2131  0.7442
   59SAPC   C26 4477   5.116   3.832  10.257 -0.0964  0.1922 -0.3029
   59SAPC   H6R 4478   5.177   3.917  10.225 -0.9651  0.7534 -0.4877
   59SAPC   C27 4479   5.072   3.720  10.161 -0.2899  0.4491  0.4251
   59SAPC   H7R 4480   5.021   3.775  10.079 -2.0847 -1.9853 -0.1592
   59SAPC   H7S 4481   4.993   3.654  10.202 -0.0379  0.6443  1.2352
   59SAPC   C28 4482   5.198   3.647  10.116 -0.2246  0.1273 -0.2473
   59SAPC   H8R 4483   5.236   3.577  10.192 -5.8082 -1.3606  1.4547
   59SAPC   C29 4484   5.263   3.654   9.996  0.2115  0.0496  0.4856
   59SAPC   H9R 4485   5.356   3.598   9.982  0.7013  1.2008 -1.0602
   59SAPC  C210 4486   5.213   3.736   9.878 -0.2229 -0.6178  0.7546
   59SAPC  H10R 4487   5.104   3.720   9.861 -0.1186 -2.2970  1.5560
   59SAPC  H10S 4488   5.262   3.695   9.787 -1.5102  0.5419 -0.4957
   59SAPC  C211 4489   5.231   3.886   9.873  0.1272  0.2561  0.2428
   59SAPC  H11R 4490   5.277   3.931   9.962  0.9191 -0.1522  0.0447
   59SAPC  C212 4491   5.213   3.977   9.776  0.2381 -0.2785  0.2561
   59SAPC  H12R 4492   5.241   4.080   9.802  0.0200 -0.8463  2.8322
   59SAPC  C213 4493   5.153   3.941   9.643  0.0099 -0.3032 -0.2908
   59SAPC  H13R 4494   5.046   3.914   9.652  0.5906 -2.9612 -0.8595
   59SAPC  H13S 4495   5.200   3.846   9.610 -1.4743 -1.6333  1.3531
   59SAPC  C214 4496   5.161   4.041   9.527 -0.5359  0.2264 -0.4077
   59SAPC  H14R 4497   5.073   4.106   9.515  1.1147  2.4493 -0.6609
   59SAPC  C215 4498   5.258   4.047   9.433 -0.6548  0.6089  0.6479
   59SAPC  H15R 4499   5.237   4.126   9.359  1.5368 -0.7851 -1.5150
   59SAPC  C216 4500   5.392   3.975   9.432 -0.5312 -0.2880  0.0487
   59SAPC  H16R 4501   5.400   3.902   9.349 -0.4467  2.3602 -2.3644
   59SAPC  H16S 4502   5.400   3.920   9.529 -0.7756 -1.4978 -0.6182
   59SAPC  C217 4503   5.513   4.066   9.421 -0.0469 -0.0949  0.2202
   59SAPC  H17R 4504   5.522   4.104   9.317  2.5572  0.5730  0.6450
   59SAPC  H17S 4505   5.598   3.994   9.431 -1.5113 -1.9748 -0.4630
   59SAPC  C218 4506   5.510   4.184   9.525 -0.4137  0.2323  0.6096
   59SAPC  H18R 4507   5.495   4.159   9.632 -4.0923 -2.5724 -0.4606
   59SAPC  H18S 4508   5.429   4.254   9.495  0.8007  1.0321 -0.8585
   59SAPC  C219 4509   5.641   4.246   9.522  0.4966  0.6260 -0.8387
   59SAPC  H19R 4510   5.658   4.306   9.430 -0.1320  2.0041 -0.0731
   59SAPC  H19S 4511   5.723   4.174   9.542 -1.8437 -2.0311 -0.5205
   59SAPC  C220 4512   5.652   4.349   9.636 -0.1466  0.5654 -1.0346
   59SAPC  H20R 4513   5.750   4.399   9.647  0.2134 -0.3431 -0.1043
   59SAPC  H20S 4514   5.620   4.293   9.727  2.3971  3.3845  1.7290
   59SAPC  H20T 4515   5.568   4.418   9.613  0.6941  2.2152  0.6770
   59SAPC   C33 4516   4.298   3.484  10.527  0.6477  0.2378  0.4714
   59SAPC   H3X 4517   4.235   3.481  10.618  0.7758  0.9831  0.5829
   59SAPC   H3Y 4518   4.273   3.387  10.479  3.1836 -0.5718  0.6800
   59SAPC   C34 4519   4.245   3.587  10.420 -0.0000  0.5572  0.1074
   59SAPC   H4X 4520   4.291   3.683  10.450  0.1859 -0.0665  1.8876
   59SAPC   H4Y 4521   4.135   3.599  10.425 -0.5982 -4.1334  0.6901
   59SAPC   C35 4522   4.279   3.543  10.276  0.5123 -0.1665  0.4273
   59SAPC   H5X 4523   4.214   3.455  10.254 -1.0507  0.8995  0.7221
   59SAPC   H5Y 4524   4.388   3.525  10.269  0.6285 -0.3244  2.3652
   59SAPC   C36 4525   4.237   3.658  10.186 -0.7361 -0.2348 -0.0636
   59SAPC   H6X 4526   4.319   3.732  10.196  1.4757 -2.5658 -0.1939
   59SAPC   H6Y 4527   4.146   3.711  10.220  0.2647  1.1315  0.5177
   59SAPC   C37 4528   4.233   3.619  10.038 -0.2997  0.2354 -0.5615
   59SAPC   H7X 4529   4.167   3.531  10.021  1.7463 -1.0238 -2.1686
   59SAPC   H7Y 4530   4.329   3.569  10.014 -1.5400 -1.7255 -1.6001
   59SAPC   C38 4531   4.188   3.726   9.937 -0.7181  0.4741  0.1281
   59SAPC   H8X 4532   4.276   3.790   9.917 -1.2979  0.7356 -1.6742
   59SAPC   H8Y 4533   4.124   3.793   9.998  0.5000 -0.4969  2.5279
   59SAPC   C39 4534   4.115   3.665   9.816 -0.2959 -1.6136  1.3622
   59SAPC   H9X 4535   4.024   3.611   9.849  0.4603 -1.6419  3.5453
   59SAPC   H9Y 4536   4.198   3.612   9.764  0.9729  0.6417  1.0661
   59SAPC  C310 4537   4.069   3.772   9.712  0.2660  0.2435  0.5509
   59SAPC  H10X 4538   4.159   3.835   9.692  1.9240 -1.5878  2.0466
   59SAPC  H10Y 4539   4.003   3.843   9.766  0.3275 -0.4208  1.5121
   59SAPC  C311 4540   4.013   3.722   9.584 -0.0949  0.0074  0.1690
   59SAPC  H11X 4541   3.917   3.671   9.607 -0.0654  0.7113  1.9809
   59SAPC  H11Y 4542   4.080   3.645   9.540 -1.9873  0.0482 -2.9420
   59SAPC  C312 4543   3.977   3.841   9.483 -1.1265 -0.3351  0.2005
   59SAPC  H12X 4544   4.073   3.893   9.463 -1.6051 -0.4832 -2.8008
   59SAPC  H12Y 4545   3.913   3.917   9.531  0.5151 -0.2171  2.2830
   59SAPC  C313 4546   3.917   3.801   9.345  0.0208  0.7692 -0.3093
   59SAPC  H13X 4547   3.823   3.744   9.359  1.0703 -0.3264  2.5605
   59SAPC  H13Y 4548   3.995   3.732   9.305 -0.8487  0.2358 -1.1231
   59SAPC  C314 4549   3.889   3.904   9.239  0.1021 -0.2389  0.2325
   59SAPC  H14X 4550   3.983   3.963   9.234 -0.3939  0.4679 -0.7607
   59SAPC  H14Y 4551   3.816   3.983   9.267 -2.2690 -2.4202  0.4974
   59SAPC  C315 4552   3.862   3.847   9.104 -0.0085 -0.0194 -0.2160
   59SAPC  H15X 4553   3.758   3.807   9.101 -1.0705  2.6950 -0.4038
   59SAPC  H15Y 4554   3.921   3.755   9.082 -0.9545 -0.9116  0.8625
   59SAPC  C316 4555   3.894   3.947   8.989 -0.1110  0.7328 -0.0765
   59SAPC  H16X 4556   4.002   3.939   8.967  0.0382 -0.0046  0.9074
   59SAPC  H16Y 4557   3.876   4.052   9.019  2.7350  1.8955 -2.2374
   59SAPC  C317 4558   3.807   3.910   8.865  0.2372 -0.5275 -0.1093
   59SAPC  H17X 4559   3.798   3.998   8.797 -0.8925 -1.0906 -0.7029
   59SAPC  H17Y 4560   3.703   3.900   8.903  0.2696  0.8080  0.3711
   59SAPC  C318 4561   3.855   3.782   8.798  0.3819 -0.1172 -0.0412
   59SAPC  H18X 4562   3.793   3.783   8.706  0.5076  1.0137 -0.1174
   59SAPC  H18Y 4563   3.824   3.684   8.842 -1.4892  0.8079  0.7553
   59SAPC  H18Z 4564   3.963   3.776   8.776  0.2644  1.1235 -0.9839
   60SAPC     N 4565   6.445   1.870  10.800 -0.4544  0.1543  0.7311
   60SAPC   C12 4566   6.432   1.874  10.650 -0.1595  0.7806 -0.9696
   60SAPC  H12A 4567   6.381   1.785  10.616 -0.3476  0.5068  0.0204
   60SAPC  H12B 4568   6.528   1.883  10.602 -0.9184  1.7127 -2.3543
   60SAPC   C13 4569   6.519   1.987  10.848 -0.2844 -0.3996 -0.8114
   60SAPC  H13A 4570   6.472   2.078  10.815  1.1407  0.6118 -0.1466
   60SAPC  H13B 4571   6.533   1.994  10.955 -0.8512  0.4483 -0.7914
   60SAPC  H13C 4572   6.623   1.980  10.817  0.5344 -1.3877  1.9553
   60SAPC   C14 4573   6.306   1.867  10.858 -0.1355 -0.6220  0.2811
   60SAPC  H14A 4574   6.264   1.962  10.828  2.7269  1.9030  3.6667
   60SAPC  H14B 4575   6.248   1.780  10.833  0.8874 -1.3182  0.2824
   60SAPC  H14C 4576   6.318   1.878  10.965 -0.7244 -0.2397  0.3100
   60SAPC   C15 4577   6.519   1.750  10.846 -0.3319 -0.0336 -1.1217
   60SAPC  H15A 4578   6.528   1.753  10.953  0.0774 -1.3390 -1.1097
   60SAPC  H15B 4579   6.474   1.656  10.817  2.3070 -1.5910 -0.2999
   60SAPC  H15C 4580   6.618   1.755  10.802 -0.8331 -1.4847 -2.4934
   60SAPC   C11 4581   6.345   1.981  10.584  0.3255  0.1824  0.9110
   60SAPC  H11A 4582   6.245   1.960  10.628 -0.4832 -0.0599 -1.0073
   60SAPC  H11B 4583   6.335   1.964  10.475  1.9756  1.0791  0.6081
   60SAPC     P 4584   6.505   2.182  10.539  0.3855 -0.1981 -0.0227
   60SAPC   O13 4585   6.562   2.295  10.612  0.0370  0.7385 -0.2040
   60SAPC   O14 4586   6.594   2.072  10.499 -0.0191 -0.6050 -0.2767
   60SAPC   O12 4587   6.393   2.110  10.620  0.5153 -0.4592 -0.0933
   60SAPC   O11 4588   6.433   2.232  10.414 -0.3197 -0.0854 -1.0844
   60SAPC    C1 4589   6.312   2.311  10.423 -0.5866 -1.0067 -0.3227
   60SAPC    HA 4590   6.240   2.269  10.496  0.2621  0.3622  1.3129
   60SAPC    HB 4591   6.336   2.414  10.458 -0.7354 -1.3583  0.8333
   60SAPC    C2 4592   6.244   2.326  10.285  0.5782  0.4066  0.5229
   60SAPC    HS 4593   6.164   2.403  10.298 -1.3124 -1.5904  0.8725
   60SAPC   O21 4594   6.189   2.204  10.239  0.9521 -0.2583 -0.0330
   60SAPC   C21 4595   6.098   2.144  10.313 -0.4216  0.7699  0.0122
   60SAPC   O22 4596   6.041   2.190  10.410 -0.1926 -0.7925  0.2202
   60SAPC   C22 4597   6.066   2.007  10.256 -0.8294 -0.1295 -0.4281
   60SAPC   H2R 4598   6.113   2.000  10.156 -2.7082 -2.3108 -1.2108
   60SAPC   H2S 4599   6.102   1.937  10.335  1.0555  2.3137  0.9610
   60SAPC    C3 4600   6.348   2.386  10.184  0.2867 -0.4154 -0.4017
   60SAPC    HX 4601   6.420   2.306  10.157  1.7051  1.1978 -1.4805
   60SAPC    HY 4602   6.398   2.464  10.246 -0.2008  0.6234 -1.3090
   60SAPC   O31 4603   6.290   2.448  10.067 -0.1132 -0.2623 -0.2763
   60SAPC   C31 4604   6.356   2.480   9.964 -0.3822  0.1154  0.4739
   60SAPC   O32 4605   6.480   2.487   9.953 -0.1186  0.6419 -0.2237
   60SAPC   C32 4606   6.269   2.516   9.846 -0.3085 -0.4461  0.6926
   60SAPC   H2X 4607   6.268   2.627   9.835 -4.0477 -0.3466  1.1755
   60SAPC   H2Y 4608   6.161   2.501   9.867 -0.3712 -1.7199 -0.4677
   60SAPC   C23 4609   5.920   1.986  10.212 -0.3171 -0.6737  0.0431
   60SAPC   H3R 4610   5.850   2.023  10.290 -0.5690 -2.1221  0.5194
   60SAPC   H3S 4611   5.894   1.878  10.221 -2.6046 -0.1402  0.1943
   60SAPC   C24 4612   5.884   2.048  10.072 -0.0546  0.2913 -0.6916
   60SAPC   H4R 4613   5.773   2.052  10.066 -0.4733 -3.4230  2.5305
   60SAPC   H4S 4614   5.923   1.969  10.005  1.7224  1.1337 -0.6933
   60SAPC   C25 4615   5.932   2.184  10.033  0.6942 -0.4336  1.0938
   60SAPC   H5R 4616   5.898   2.270  10.092 -1.8457  0.9763 -2.2609
   60SAPC   C26 4617   6.026   2.204   9.938 -0.6719  0.8644 -0.1931
   60SAPC   H6R 4618   6.060   2.307   9.920  1.3630  0.3519  0.6524
   60SAPC   C27 4619   6.105   2.103   9.854  0.5379  0.2458 -0.3055
   60SAPC   H7R 4620   6.112   2.149   9.753  0.4575  0.2931 -0.2889
   60SAPC   H7S 4621   6.044   2.010   9.849 -0.8453  1.1830 -1.0145
   60SAPC   C28 4622   6.246   2.072   9.905 -0.6212 -0.0442 -0.4534
   60SAPC   H8R 4623   6.262   2.082  10.013  1.3266  1.7483 -0.8774
   60SAPC   C29 4624   6.351   2.033   9.823 -0.6625 -0.8784 -0.2354
   60SAPC   H9R 4625   6.449   2.024   9.872 -0.5739 -0.3106 -0.3107
   60SAPC  C210 4626   6.347   2.024   9.675  0.8659 -0.2762  0.6565
   60SAPC  H10R 4627   6.425   2.083   9.622  0.4872 -1.7635 -1.6323
   60SAPC  H10S 4628   6.253   2.068   9.636  0.0795 -1.3409  1.3386
   60SAPC  C211 4629   6.358   1.875   9.644  0.5415 -0.1153  0.1399
   60SAPC  H11R 4630   6.340   1.801   9.723  1.4248 -0.1713  0.2950
   60SAPC  C212 4631   6.418   1.827   9.535 -0.3135  0.0743  0.1052
   60SAPC  H12R 4632   6.413   1.722   9.504  1.1012  0.4649 -1.5438
   60SAPC  C213 4633   6.476   1.911   9.417  0.2854 -0.0092 -0.5670
   60SAPC  H13R 4634   6.568   1.968   9.442 -0.2893  1.9202 -2.6273
   60SAPC  H13S 4635   6.404   1.992   9.394 -2.7820 -1.9562  1.8641
   60SAPC  C214 4636   6.493   1.833   9.289  0.3388 -0.3380 -0.4142
   60SAPC  H14R 4637   6.586   1.774   9.281  0.9743  0.0276  3.5702
   60SAPC  C215 4638   6.417   1.829   9.178  0.0156  0.2483  0.4526
   60SAPC  H15R 4639   6.461   1.778   9.091  2.6411  2.2051  0.5523
   60SAPC  C216 4640   6.285   1.894   9.151  0.2238 -0.5252  0.3409
   60SAPC  H16R 4641   6.255   1.942   9.247 -1.4607  1.4208 -1.1165
   60SAPC  H16S 4642   6.207   1.824   9.117  1.0368 -0.0157 -2.6817
   60SAPC  C217 4643   6.294   2.023   9.058 -0.5574  0.1312  0.5596
   60SAPC  H17R 4644   6.313   1.992   8.953  2.7169 -0.6439  1.3213
   60SAPC  H17S 4645   6.373   2.092   9.093 -1.3982  0.3239  2.1267
   60SAPC  C218 4646   6.160   2.101   9.062 -0.3010  0.3542 -0.4704
   60SAPC  H18R 4647   6.183   2.206   9.037  1.0070 -0.2494 -1.8662
   60SAPC  H18S 4648   6.128   2.109   9.168  1.2886 -2.6411  0.3096
   60SAPC  C219 4649   6.043   2.047   8.976 -0.8774  0.6245 -0.0956
   60SAPC  H19R 4650   5.953   2.110   8.987 -0.8843  0.6137 -0.0942
   60SAPC  H19S 4651   6.022   1.942   9.006 -0.9868  1.1712  1.8129
   60SAPC  C220 4652   6.091   2.041   8.829 -0.1050  0.5544 -0.0777
   60SAPC  H20R 4653   6.157   2.125   8.801 -1.0158  1.3721  0.1961
   60SAPC  H20S 4654   6.006   2.036   8.758  0.0608 -0.4214 -0.2260
   60SAPC  H20T 4655   6.145   1.944   8.817  0.4271  0.7625  0.5850
   60SAPC   C33 4656   6.302   2.435   9.719  0.7806  0.5742  0.4071
   60SAPC   H3X 4657   6.267   2.331   9.738 -1.7348  1.1872 -0.5870
   60SAPC   H3Y 4658   6.409   2.444   9.693 -0.0722  2.3122 -2.6489
   60SAPC   C34 4659   6.228   2.480   9.596  0.4167  0.3662  0.1893
   60SAPC   H4X 4660   6.227   2.590   9.583 -1.6650  0.0088 -3.2809
   60SAPC   H4Y 4661   6.121   2.453   9.605  0.6564 -1.3426 -1.8982
   60SAPC   C35 4662   6.270   2.415   9.470  0.6364 -0.2810  0.0704
   60SAPC   H5X 4663   6.184   2.407   9.399 -1.1468  0.5947  2.0830
   60SAPC   H5Y 4664   6.302   2.312   9.498 -1.0998  0.0743  3.5934
   60SAPC   C36 4665   6.368   2.501   9.386 -0.3689  0.2668  1.1711
   60SAPC   H6X 4666   6.455   2.540   9.443  0.9857 -1.5847  0.4010
   60SAPC   H6Y 4667   6.315   2.596   9.362  0.6806  0.4780 -0.4039
   60SAPC   C37 4668   6.423   2.431   9.266 -0.6462 -0.8231  1.0989
   60SAPC   H7X 4669   6.351   2.371   9.206  2.1239  1.8223 -5.3746
   60SAPC   H7Y 4670   6.510   2.365   9.284  0.8895  0.9173  0.2062
   60SAPC   C38 4671   6.497   2.521   9.159 -0.0034  0.4891 -0.1451
   60SAPC   H8X 4672   6.590   2.546   9.214  0.7619 -4.7387  1.1927
   60SAPC   H8Y 4673   6.432   2.608   9.138  0.0580  0.4070 -0.6935
   60SAPC   C39 4674   6.522   2.466   9.014  0.4625 -0.0429  0.2214
   60SAPC   H9X 4675   6.435   2.420   8.963  0.0198  0.2534  0.7050
   60SAPC   H9Y 4676   6.598   2.389   9.041 -2.9856 -3.2025  1.3525
   60SAPC  C310 4677   6.581   2.574   8.913  0.5928  0.4972  0.2038
   60SAPC  H10X 4678   6.687   2.596   8.940  1.1985  1.6366 -2.9080
   60SAPC  H10Y 4679   6.520   2.666   8.924  1.9663  1.5075 -0.5648
   60SAPC  C311 4680   6.558   2.534   8.769  0.0392  0.1025  0.5276
   60SAPC  H11X 4681   6.595   2.611   8.698  3.0116 -2.1959 -0.5254
   60SAPC  H11Y 4682   6.449   2.521   8.752 -0.1577  1.9208  0.2695
   60SAPC  C312 4683   6.624   2.402   8.726  0.0647  0.4062  0.0378
   60SAPC  H12X 4684   6.626   2.320   8.801 -1.8955  1.8017  1.6668
   60SAPC  H12Y 4685   6.730   2.436   8.718  0.0884  1.0747  2.7452
   60SAPC  C313 4686   6.581   2.361   8.589 -0.4751  0.2636 -0.0023
   60SAPC  H13X 4687   6.575   2.445   8.516  3.7363 -1.0137 -1.9650
   60SAPC  H13Y 4688   6.478   2.322   8.596 -0.1483 -0.1228  4.2518
   60SAPC  C314 4689   6.674   2.244   8.542 -0.4242 -0.4093 -0.0878
   60SAPC  H14X 4690   6.671   2.168   8.623  2.2937  0.9321  1.3524
   60SAPC  H14Y 4691   6.778   2.283   8.530 -0.2496 -0.8279  0.0648
   60SAPC  C315 4692   6.642   2.192   8.399  0.2073 -0.5427  0.4049
   60SAPC  H15X 4693   6.694   2.095   8.390 -0.5742 -0.7860 -1.7883
   60SAPC  H15Y 4694   6.667   2.262   8.317 -2.6829 -1.0506 -0.9829
   60SAPC  C316 4695   6.496   2.155   8.372  0.0760  0.3330  0.3242
   60SAPC  H16X 4696   6.487   2.141   8.262  2.6952 -1.9328  0.3411
   60SAPC  H16Y 4697   6.427   2.239   8.391 -0.9003 -0.2972 -0.3844
   60SAPC  C317 4698   6.449   2.037   8.458 -0.0175 -0.0030  0.6621
   60SAPC  H17X 4699   6.467   2.069   8.562 -0.7782  1.6210  0.3222
   60SAPC  H17Y 4700   6.518   1.956   8.427  0.6502 -0.5137  3.4403
   60SAPC  C318 4701   6.302   2.005   8.448  0.3232 -0.4312  0.5788
   60SAPC  H18X 4702   6.235   2.091   8.471  1.8504  1.3272 -1.2974
   60SAPC  H18Y 4703   6.258   1.909   8.481 -3.3599  0.8967 -0.1371
   60SAPC  H18Z 4704   6.282   2.000   8.339 -2.3891 -1.6847  1.0886
   61SAPC     N 4705   0.097   0.628  11.106  0.7049 -0.2594 -0.1837
   61SAPC   C12 4706   0.040   0.717  10.987 -0.6505 -0.2393  0.6503
   61SAPC  H12A 4707  -0.018   0.654  10.921 -0.7131  1.6122 -1.1272
   61SAPC  H12B 4708   0.125   0.747  10.926 -1.2989  1.8817  0.7474
   61SAPC   C13 4709   0.180   0.719  11.192  0.2241  0.2707 -0.3218
   61SAPC  H13A 4710   0.234   0.657  11.262 -2.0774 -0.6736  0.7021
   61SAPC  H13B 4711   0.248   0.771  11.128 -1.1172  2.0746 -0.3303
   61SAPC  H13C 4712   0.117   0.787  11.248 -1.1341 -1.4613  0.3235
   61SAPC   C14 4713  -0.013   0.559  11.184 -0.4602  0.3717  0.0123
   61SAPC  H14A 4714  -0.076   0.487  11.135  1.5531 -0.7731 -0.9739
   61SAPC  H14B 4715   0.026   0.515  11.275  1.8565  1.7288 -0.2783
   61SAPC  H14C 4716  -0.092   0.628  11.211 -1.6999 -0.3998 -1.5592
   61SAPC   C15 4717   0.184   0.522  11.055 -0.1612 -0.8637 -0.0910
   61SAPC  H15A 4718   0.258   0.580  11.001 -1.2414  1.3805  0.7780
   61SAPC  H15B 4719   0.233   0.471  11.137  2.1924  0.7922 -0.4187
   61SAPC  H15C 4720   0.126   0.451  10.998 -0.7460 -0.1893 -0.3474
   61SAPC   C11 4721  -0.052   0.842  11.010  0.1051 -0.0548 -0.1499
   61SAPC  H11A 4722  -0.012   0.903  11.094  1.8183 -1.1090 -0.1753
   61SAPC  H11B 4723  -0.147   0.795  11.042  0.4197 -1.3251 -1.0548
   61SAPC     P 4724   0.041   1.000  10.831  0.0312 -0.4911  0.0542
   61SAPC   O13 4725  -0.001   1.143  10.830 -0.1226  0.2189 -0.5523
   61SAPC   O14 4726   0.170   0.975  10.911 -0.1543  0.8331 -0.1542
   61SAPC   O12 4727  -0.076   0.910  10.893  0.4160 -0.5467  0.6169
   61SAPC   O11 4728   0.062   0.952  10.684  0.2862 -0.3930 -0.2008
   61SAPC    C1 4729  -0.048   0.936  10.590 -0.6859 -0.0276 -0.1598
   61SAPC    HA 4730  -0.145   0.981  10.619 -0.7726 -0.3436  0.0338
   61SAPC    HB 4731  -0.022   0.975  10.489 -1.0740 -0.9978 -0.6433
   61SAPC    C2 4732  -0.070   0.789  10.565 -0.2116  0.1783 -0.0673
   61SAPC    HS 4733  -0.078   0.749  10.668  0.5857  0.1819  0.0013
   61SAPC   O21 4734   0.051   0.730  10.514  0.1964 -0.3921  0.3685
   61SAPC   C21 4735   0.046   0.606  10.490  0.3337 -0.4316  0.1951
   61SAPC   O22 4736  -0.032   0.526  10.545 -0.2423  0.4290 -0.3243
   61SAPC   C22 4737   0.147   0.583  10.383 -0.4874  0.5001  0.5667
   61SAPC   H2R 4738   0.118   0.652  10.301 -1.6088  1.9727  2.1722
   61SAPC   H2S 4739   0.243   0.604  10.435  0.4386 -2.9155  0.4046
   61SAPC    C3 4740  -0.189   0.748  10.483 -0.2301 -0.4447 -0.4382
   61SAPC    HX 4741  -0.279   0.810  10.504 -1.1065 -2.3684  1.7546
   61SAPC    HY 4742  -0.226   0.647  10.513  0.3029 -0.3653  0.5093
   61SAPC   O31 4743  -0.160   0.748  10.344 -0.4930  0.1835 -0.0179
   61SAPC   C31 4744  -0.196   0.857  10.280 -0.1023  0.3865  0.6865
   61SAPC   O32 4745  -0.255   0.952  10.324 -0.8946 -1.0846  0.0243
   61SAPC   C32 4746  -0.164   0.836  10.133 -0.2284  0.3127 -1.5795
   61SAPC   H2X 4747  -0.260   0.863  10.083 -1.8357 -2.4463 -0.0958
   61SAPC   H2Y 4748  -0.140   0.729  10.115  0.8913 -0.0035  1.5632
   61SAPC   C23 4749   0.165   0.434  10.348  0.0089  0.1368  0.1349
   61SAPC   H3R 4750   0.121   0.365  10.423  1.5732 -0.7610  0.2543
   61SAPC   H3S 4751   0.276   0.431  10.344  0.0248  1.7646 -1.2902
   61SAPC   C24 4752   0.106   0.409  10.211 -0.2714 -0.0394  0.4036
   61SAPC   H4R 4753   0.140   0.492  10.145  1.7314 -1.4994 -0.4490
   61SAPC   H4S 4754  -0.003   0.414  10.230 -0.6870 -3.3391 -0.7822
   61SAPC   C25 4755   0.160   0.280  10.154  0.6455 -0.0638 -0.0195
   61SAPC   H5R 4756   0.191   0.200  10.223  0.2623 -0.3098 -0.1292
   61SAPC   C26 4757   0.181   0.257  10.024 -0.0048 -0.2825  0.8099
   61SAPC   H6R 4758   0.230   0.164   9.992 -0.0397 -0.0611  0.0991
   61SAPC   C27 4759   0.154   0.341   9.900  0.3657 -0.5294  0.6862
   61SAPC   H7R 4760   0.137   0.277   9.811  0.8283  0.0500  0.1723
   61SAPC   H7S 4761   0.248   0.392   9.868 -0.9699  1.0949 -0.7134
   61SAPC   C28 4762   0.040   0.435   9.890 -0.1556 -0.4356  0.1651
   61SAPC   H8R 4763  -0.049   0.405   9.948 -0.8446  0.7390 -0.2503
   61SAPC   C29 4764   0.046   0.560   9.840 -0.3105 -0.2047 -0.2938
   61SAPC   H9R 4765  -0.044   0.624   9.844  0.3581  0.7500 -0.2824
   61SAPC  C210 4766   0.171   0.614   9.766  0.0256 -0.4215 -0.4628
   61SAPC  H10R 4767   0.257   0.572   9.821 -2.4765 -3.7279  1.1590
   61SAPC  H10S 4768   0.164   0.725   9.762 -0.3232 -0.3797  1.0761
   61SAPC  C211 4769   0.181   0.556   9.625  0.5187  0.1855 -0.1199
   61SAPC  H11R 4770   0.145   0.454   9.606 -1.2029  1.1282 -2.0438
   61SAPC  C212 4771   0.243   0.614   9.519 -0.0475 -1.1259  0.4395
   61SAPC  H12R 4772   0.222   0.558   9.426 -1.2517  0.2938 -0.1609
   61SAPC  C213 4773   0.308   0.747   9.506 -0.1733  0.1950  0.5590
   61SAPC  H13R 4774   0.290   0.798   9.603  0.0150  1.0409  0.1507
   61SAPC  H13S 4775   0.256   0.814   9.434  1.0753  1.1639  0.5469
   61SAPC  C214 4776   0.461   0.732   9.472 -0.0014  0.0074 -0.3659
   61SAPC  H14R 4777   0.521   0.664   9.534  1.7463  0.5989 -1.3554
   61SAPC  C215 4778   0.527   0.796   9.371 -0.6089  0.1330  0.1528
   61SAPC  H15R 4779   0.634   0.773   9.356 -0.6773  0.6368 -1.1536
   61SAPC  C216 4780   0.471   0.898   9.268 -0.7181  0.6939 -0.9760
   61SAPC  H16R 4781   0.501   1.003   9.288 -1.9152  0.6240  1.3876
   61SAPC  H16S 4782   0.360   0.895   9.272 -0.6401 -3.2655  1.9289
   61SAPC  C217 4783   0.530   0.868   9.129 -0.6494 -0.2652 -0.9588
   61SAPC  H17R 4784   0.473   0.779   9.093 -2.0491 -0.5546  1.8344
   61SAPC  H17S 4785   0.639   0.849   9.136 -0.3334  2.2154  2.4353
   61SAPC  C218 4786   0.499   0.985   9.037 -0.5549 -0.1610 -0.2973
   61SAPC  H18R 4787   0.589   1.050   9.038 -0.4432 -0.2330 -2.7892
   61SAPC  H18S 4788   0.418   1.049   9.077  1.1408  1.2374  0.9643
   61SAPC  C219 4789   0.464   0.943   8.892 -0.2993 -0.6893 -0.3573
   61SAPC  H19R 4790   0.396   0.856   8.892  0.5201 -1.3317 -0.7091
   61SAPC  H19S 4791   0.556   0.913   8.837  1.1175 -1.6032  2.4310
   61SAPC  C220 4792   0.381   1.054   8.811 -0.2292  0.5196 -0.1873
   61SAPC  H20R 4793   0.353   1.033   8.706  1.5178 -0.7957 -0.3990
   61SAPC  H20S 4794   0.439   1.149   8.810  1.7348 -0.6168  1.2225
   61SAPC  H20T 4795   0.286   1.069   8.867 -0.7043 -0.5688 -0.6978
   61SAPC   C33 4796  -0.046   0.925  10.103 -0.8198  0.6245  0.0299
   61SAPC   H3X 4797   0.043   0.895  10.163 -0.0961  3.2219  0.3300
   61SAPC   H3Y 4798  -0.062   1.028  10.142 -1.8869  0.4293  0.1048
   61SAPC   C34 4799  -0.030   0.937   9.951  0.7144 -0.9528  0.1073
   61SAPC   H4X 4800  -0.128   0.959   9.904  0.3153 -0.0836  1.3309
   61SAPC   H4Y 4801  -0.006   0.837   9.909  1.0578 -0.6936 -0.3213
   61SAPC   C35 4802   0.080   1.033   9.905 -0.5572 -0.5793 -1.1341
   61SAPC   H5X 4803   0.174   0.977   9.923  1.0833  2.0984 -1.1191
   61SAPC   H5Y 4804   0.088   1.118   9.976  1.0010 -2.6624  1.2544
   61SAPC   C36 4805   0.068   1.064   9.757  0.1866 -0.6556  0.9711
   61SAPC   H6X 4806  -0.026   1.119   9.737  0.2533 -1.4391 -1.6216
   61SAPC   H6Y 4807   0.062   0.965   9.709  0.6308 -1.6963  3.0070
   61SAPC   C37 4808   0.185   1.146   9.691 -0.7766 -0.0938  0.0857
   61SAPC   H7X 4809   0.267   1.117   9.761  0.2447  1.3421 -0.4813
   61SAPC   H7Y 4810   0.158   1.252   9.713  0.7929 -0.1591  2.6387
   61SAPC   C38 4811   0.222   1.117   9.545  0.3409  0.4189 -0.0650
   61SAPC   H8X 4812   0.205   1.009   9.524  1.5806 -0.0659  1.2970
   61SAPC   H8Y 4813   0.332   1.128   9.533  0.5426 -1.1949  0.1931
   61SAPC   C39 4814   0.143   1.202   9.451  1.1899  0.2734  0.5808
   61SAPC   H9X 4815   0.160   1.308   9.479  1.4945  1.0674 -2.3930
   61SAPC   H9Y 4816   0.033   1.186   9.456  1.3769 -0.8715  1.1251
   61SAPC  C310 4817   0.178   1.178   9.301 -0.1952  0.3514  0.4880
   61SAPC  H10X 4818   0.164   1.069   9.288 -2.8052  0.4840  1.8053
   61SAPC  H10Y 4819   0.282   1.203   9.270  0.1187  0.2618  1.4586
   61SAPC  C311 4820   0.075   1.234   9.206  0.4728 -0.8813 -0.8629
   61SAPC  H11X 4821   0.051   1.341   9.221 -1.8006 -1.2811 -1.5160
   61SAPC  H11Y 4822  -0.022   1.185   9.230 -1.7800  1.6535 -4.4253
   61SAPC  C312 4823   0.101   1.210   9.056  0.0895 -0.1222  0.3118
   61SAPC  H12X 4824   0.126   1.104   9.034 -1.4072 -0.0051 -2.0368
   61SAPC  H12Y 4825   0.193   1.266   9.028  0.6409 -0.8376  0.6607
   61SAPC  C313 4826  -0.020   1.257   8.973  0.2105  0.3668 -0.0374
   61SAPC  H13X 4827  -0.007   1.242   8.864 -0.4196 -1.3990  0.1113
   61SAPC  H13Y 4828  -0.037   1.364   9.001 -3.8673 -0.2297  0.0438
   61SAPC  C314 4829  -0.150   1.183   9.004  0.7340  0.3902  0.2622
   61SAPC  H14X 4830  -0.176   1.204   9.111  0.9613  2.3055 -0.0422
   61SAPC  H14Y 4831  -0.142   1.072   9.001  0.4477  0.4063 -1.5747
   61SAPC  C315 4832  -0.275   1.213   8.917 -0.6825 -0.9832 -0.0018
   61SAPC  H15X 4833  -0.254   1.287   8.837 -1.8344  0.6774  1.1941
   61SAPC  H15Y 4834  -0.349   1.255   8.989 -0.2492 -3.7737  2.1427
   61SAPC  C316 4835  -0.332   1.078   8.855 -0.3120  0.4662  0.4168
   61SAPC  H16X 4836  -0.339   1.006   8.940  0.7044  1.4413  1.3429
   61SAPC  H16Y 4837  -0.256   1.034   8.786  2.0924  3.6530  0.9318
   61SAPC  C317 4838  -0.462   1.085   8.789  0.7831 -0.0939  0.5379
   61SAPC  H17X 4839  -0.456   1.154   8.702 -0.0565 -0.5270  0.1316
   61SAPC  H17Y 4840  -0.544   1.118   8.856 -0.2158  0.6489 -1.0153
   61SAPC  C318 4841  -0.510   0.946   8.745  0.5601  0.0165 -0.2553
   61SAPC  H18X 4842  -0.429   0.911   8.678  1.3519  2.7965 -0.8226
   61SAPC  H18Y 4843  -0.607   0.947   8.690 -0.7551 -1.7876  1.9450
   61SAPC  H18Z 4844  -0.507   0.877   8.831  1.3803  1.5850  1.0027
   62SAPC     N 4845   0.590   0.075  10.883 -0.4889 -0.2236  0.2797
   62SAPC   C12 4846   0.600   0.198  10.790 -0.8432 -0.2182  0.1988
   62SAPC  H12A 4847   0.589   0.159  10.689  2.0206 -1.9079  0.4689
   62SAPC  H12B 4848   0.696   0.246  10.793 -1.1382  0.3637  0.3096
   62SAPC   C13 4849   0.484  -0.013  10.834 -0.3030  0.0105 -0.4678
   62SAPC  H13A 4850   0.395   0.047  10.842 -0.5217 -0.3083 -0.4760
   62SAPC  H13B 4851   0.498  -0.054  10.735  2.3325  0.3937 -0.2869
   62SAPC  H13C 4852   0.467  -0.092  10.906  0.7244  2.0537  2.0886
   62SAPC   C14 4853   0.720   0.008  10.865 -0.9431  0.1297  0.2825
   62SAPC  H14A 4854   0.752  -0.013  10.765 -3.3124 -1.5128 -0.1795
   62SAPC  H14B 4855   0.793   0.076  10.907 -0.7501  0.2111 -0.1913
   62SAPC  H14C 4856   0.718  -0.086  10.919 -0.4608 -1.3583 -2.2113
   62SAPC   C15 4857   0.561   0.099  11.028 -0.2451  0.0834 -0.3773
   62SAPC  H15A 4858   0.469   0.155  11.024  0.0941  0.7477  0.7558
   62SAPC  H15B 4859   0.562   0.007  11.083 -1.8399  0.2962  0.0314
   62SAPC  H15C 4860   0.630   0.170  11.071 -0.4099  0.8158 -1.2913
   62SAPC   C11 4861   0.496   0.310  10.803 -0.5920  0.0187 -0.1697
   62SAPC  H11A 4862   0.530   0.383  10.727  1.2886  0.1924  0.8080
   62SAPC  H11B 4863   0.509   0.355  10.904 -1.2793 -0.8310  0.3053
   62SAPC     P 4864   0.249   0.322  10.705  0.0623  0.1866 -0.1806
   62SAPC   O13 4865   0.125   0.327  10.785 -0.1801 -0.3906 -0.1277
   62SAPC   O14 4866   0.284   0.451  10.647  0.1485  0.4327 -0.3807
   62SAPC   O12 4867   0.367   0.264  10.790  0.3259 -0.0192  0.4288
   62SAPC   O11 4868   0.236   0.213  10.593  0.0305 -0.4493  0.4797
   62SAPC    C1 4869   0.275   0.077  10.610  0.8130 -0.7167  0.1289
   62SAPC    HA 4870   0.384   0.072  10.589  1.0458  0.5717  0.9773
   62SAPC    HB 4871   0.258   0.037  10.713 -0.6570 -2.4836 -0.7783
   62SAPC    C2 4872   0.200  -0.004  10.509 -0.5699  0.3058  0.1764
   62SAPC    HS 4873   0.215  -0.111  10.534 -1.8369  0.5582  2.1499
   62SAPC   O21 4874   0.234   0.031  10.370  0.6664 -0.0045  0.2578
   62SAPC   C21 4875   0.308  -0.059  10.313  0.4617  0.3372  0.0561
   62SAPC   O22 4876   0.361  -0.157  10.368 -0.2525  0.3079 -0.0647
   62SAPC   C22 4877   0.327  -0.021  10.168  0.4158 -0.3327 -0.2429
   62SAPC   H2R 4878   0.225  -0.004  10.130  0.2417  2.0833  1.2054
   62SAPC   H2S 4879   0.368   0.080  10.148 -3.1723  1.6064  1.7081
   62SAPC    C3 4880   0.045   0.023  10.520  0.3985  0.0781  0.6755
   62SAPC    HX 4881   0.036   0.126  10.479 -3.4566 -0.4798 -0.0108
   62SAPC    HY 4882   0.018   0.021  10.628  1.1122 -2.2609  0.8516
   62SAPC   O31 4883  -0.039  -0.072  10.458  0.1055 -0.5733  0.2642
   62SAPC   C31 4884  -0.114  -0.022  10.360  0.0639  0.0433 -0.4850
   62SAPC   O32 4885  -0.122   0.098  10.333 -0.8462 -0.1480  0.0474
   62SAPC   C32 4886  -0.186  -0.138  10.289 -0.1744 -0.5354 -0.0105
   62SAPC   H2X 4887  -0.275  -0.170  10.348  0.2440 -1.1598  0.2937
   62SAPC   H2Y 4888  -0.122  -0.228  10.281 -1.1166 -1.2319  0.1015
   62SAPC   C23 4889   0.421  -0.121  10.093 -0.4263  0.4906  0.3792
   62SAPC   H3R 4890   0.381  -0.224  10.078  0.2121  0.3743 -0.5721
   62SAPC   H3S 4891   0.523  -0.125  10.137 -1.6946 -0.6315  3.3140
   62SAPC   C24 4892   0.427  -0.068   9.947  0.1410  0.2255 -0.4879
   62SAPC   H4R 4893   0.514  -0.117   9.900 -0.2837 -0.5896 -0.4225
   62SAPC   H4S 4894   0.474   0.033   9.957  2.3741 -0.6380 -2.0228
   62SAPC   C25 4895   0.301  -0.080   9.864 -0.6513 -0.7252 -0.1441
   62SAPC   H5R 4896   0.224  -0.138   9.917  0.0485 -0.5993  1.0390
   62SAPC   C26 4897   0.270  -0.014   9.750 -0.6309 -0.6250  0.2367
   62SAPC   H6R 4898   0.164  -0.021   9.718 -0.4622  0.6321 -0.6152
   62SAPC   C27 4899   0.355   0.075   9.668  0.0526 -0.3882 -0.2003
   62SAPC   H7R 4900   0.401   0.007   9.593 -0.3417 -0.1775 -0.6357
   62SAPC   H7S 4901   0.450   0.111   9.714  0.0574 -0.2022 -0.3525
   62SAPC   C28 4902   0.287   0.187   9.588 -0.0260 -0.1495  0.3549
   62SAPC   H8R 4903   0.292   0.288   9.632  2.3644 -0.0565 -0.0514
   62SAPC   C29 4904   0.213   0.174   9.475  0.6049  0.2159 -0.1831
   62SAPC   H9R 4905   0.183   0.261   9.414  0.2122  0.5615  0.5069
   62SAPC  C210 4906   0.194   0.040   9.411 -0.1445 -0.1746  0.3570
   62SAPC  H10R 4907   0.172  -0.045   9.479  0.5666  0.5499  1.4856
   62SAPC  H10S 4908   0.292   0.010   9.368 -0.2954 -0.4341  0.1862
   62SAPC  C211 4909   0.097   0.033   9.300  0.1938 -0.3152 -0.2744
   62SAPC  H11R 4910   0.010  -0.027   9.329  0.1301  0.5329  1.3485
   62SAPC  C212 4911   0.125   0.071   9.174 -0.2161  0.4399  0.9240
   62SAPC  H12R 4912   0.046   0.064   9.098  0.1319 -1.3792  0.7088
   62SAPC  C213 4913   0.252   0.139   9.125 -0.4167  0.6397 -0.5466
   62SAPC  H13R 4914   0.275   0.112   9.020  3.5455 -0.1653  0.4775
   62SAPC  H13S 4915   0.333   0.102   9.190  1.0203  0.2592 -2.5115
   62SAPC  C214 4916   0.238   0.292   9.125  0.4486  0.5550 -0.9783
   62SAPC  H14R 4917   0.141   0.333   9.093 -0.5370  0.2750  1.5085
   62SAPC  C215 4918   0.344   0.378   9.142 -0.4415  0.1468 -0.5184
   62SAPC  H15R 4919   0.338   0.488   9.134 -2.8164  0.2085  1.4510
   62SAPC  C216 4920   0.484   0.328   9.152  0.3139 -0.9066 -0.7504
   62SAPC  H16R 4921   0.490   0.226   9.196  1.1541 -0.6539 -0.2601
   62SAPC  H16S 4922   0.539   0.395   9.221  0.7075 -0.9054 -1.0668
   62SAPC  C217 4923   0.543   0.340   9.008 -0.3892 -0.7926 -0.4893
   62SAPC  H17R 4924   0.475   0.289   8.936 -1.6871 -0.5603  0.5527
   62SAPC  H17S 4925   0.640   0.287   9.004 -0.3064 -0.6216 -0.8289
   62SAPC  C218 4926   0.572   0.481   8.956 -0.4491  0.3836  0.1520
   62SAPC  H18R 4927   0.615   0.531   9.046 -0.2019 -3.3233  2.1915
   62SAPC  H18S 4928   0.476   0.534   8.940 -0.5494 -0.3933 -2.0254
   62SAPC  C219 4929   0.669   0.471   8.833 -0.7432  0.0725 -0.3572
   62SAPC  H19R 4930   0.614   0.419   8.752 -0.8000  0.0705 -0.3176
   62SAPC  H19S 4931   0.765   0.426   8.866 -0.9742  0.5884  1.0589
   62SAPC  C220 4932   0.692   0.610   8.781 -0.1378 -0.0142  0.5297
   62SAPC  H20R 4933   0.745   0.611   8.683 -0.8677  2.1285  0.1166
   62SAPC  H20S 4934   0.735   0.671   8.863 -0.6751  0.9668  0.1061
   62SAPC  H20T 4935   0.593   0.659   8.765  0.0740 -0.0982 -1.1187
   62SAPC   C33 4936  -0.219  -0.102  10.145  0.2796 -0.4039  0.2235
   62SAPC   H3X 4937  -0.275  -0.007  10.161 -0.4429 -0.9554  1.0353
   62SAPC   H3Y 4938  -0.290  -0.170  10.093 -1.1518  1.2620 -0.0759
   62SAPC   C34 4939  -0.093  -0.074  10.064  0.5264  0.1953  0.9269
   62SAPC   H4X 4940  -0.034  -0.165  10.039  0.5175  0.5068 -0.2624
   62SAPC   H4Y 4941  -0.025  -0.014  10.127  0.8721 -0.8234  1.5422
   62SAPC   C35 4942  -0.126   0.013   9.937 -0.5288  0.1735 -0.5569
   62SAPC   H5X 4943  -0.028   0.018   9.886  0.6723 -0.6357  1.6131
   62SAPC   H5Y 4944  -0.142   0.119   9.968  1.1372  0.0808  0.6572
   62SAPC   C36 4945  -0.228  -0.048   9.842  0.8794  0.3267  1.3641
   62SAPC   H6X 4946  -0.329  -0.075   9.881 -0.3507  1.4610 -0.9345
   62SAPC   H6Y 4947  -0.185  -0.141   9.800 -0.3594  0.8005 -1.0778
   62SAPC   C37 4948  -0.251   0.059   9.725 -0.1356  1.2991 -0.4703
   62SAPC   H7X 4949  -0.301   0.150   9.764  0.8706  1.6091  0.1088
   62SAPC   H7Y 4950  -0.318   0.004   9.655  1.2383 -1.8930  0.6266
   62SAPC   C38 4951  -0.121   0.100   9.647 -0.0288  0.5233 -0.2912
   62SAPC   H8X 4952  -0.073   0.004   9.616  0.4411  0.9376 -0.8374
   62SAPC   H8Y 4953  -0.055   0.160   9.713 -0.2006  0.1487  0.2265
   62SAPC   C39 4954  -0.149   0.186   9.524 -0.7238 -0.1392 -0.0494
   62SAPC   H9X 4955  -0.057   0.221   9.473  0.5159 -1.5071  1.2014
   62SAPC   H9Y 4956  -0.208   0.278   9.547  1.1107  1.1627 -0.4339
   62SAPC  C310 4957  -0.231   0.121   9.408 -0.4772 -0.9691 -0.9763
   62SAPC  H10X 4958  -0.331   0.106   9.455 -0.0325  1.3484  0.7897
   62SAPC  H10Y 4959  -0.191   0.023   9.373  3.7797 -0.4687  2.1165
   62SAPC  C311 4960  -0.255   0.222   9.289 -0.6149 -0.5315  0.0048
   62SAPC  H11X 4961  -0.156   0.264   9.261 -0.9935  0.9984  0.9371
   62SAPC  H11Y 4962  -0.316   0.306   9.327  1.1702  0.6071  0.4222
   62SAPC  C312 4963  -0.329   0.150   9.170  0.3921 -0.3390  0.1605
   62SAPC  H12X 4964  -0.392   0.068   9.212  0.5331  0.4990  2.0628
   62SAPC  H12Y 4965  -0.260   0.103   9.096  0.6636  1.8776 -1.0596
   62SAPC  C313 4966  -0.412   0.239   9.079  0.2361 -0.0142 -0.2266
   62SAPC  H13X 4967  -0.454   0.326   9.135 -1.2058  0.6001 -2.2048
   62SAPC  H13Y 4968  -0.488   0.175   9.030 -1.1115 -0.7167  2.6805
   62SAPC  C314 4969  -0.317   0.303   8.981  0.0262  0.1765 -0.0283
   62SAPC  H14X 4970  -0.285   0.228   8.906 -0.6580 -1.6854  1.5105
   62SAPC  H14Y 4971  -0.225   0.345   9.027  0.5212 -0.3248 -0.5573
   62SAPC  C315 4972  -0.373   0.421   8.912  0.3595  0.5227  0.3230
   62SAPC  H15X 4973  -0.383   0.508   8.980 -2.0884  0.8132 -0.3684
   62SAPC  H15Y 4974  -0.477   0.400   8.879  1.0074 -0.7298 -1.0167
   62SAPC  C316 4975  -0.281   0.454   8.789  0.2845  0.2314  0.2508
   62SAPC  H16X 4976  -0.275   0.365   8.723 -0.3970  0.5563 -0.2557
   62SAPC  H16Y 4977  -0.180   0.498   8.806 -0.4003  2.2303 -0.7233
   62SAPC  C317 4978  -0.346   0.572   8.717  0.0247  0.5282  0.0696
   62SAPC  H17X 4979  -0.346   0.670   8.769 -2.8703 -1.4455  4.0509
   62SAPC  H17Y 4980  -0.453   0.559   8.690  0.1938 -0.0249 -0.3536
   62SAPC  C318 4981  -0.277   0.594   8.583 -0.1540 -0.4871 -0.3786
   62SAPC  H18X 4982  -0.167   0.600   8.599 -0.3024  1.5482  0.0747
   62SAPC  H18Y 4983  -0.314   0.692   8.545  1.3229 -0.0805 -0.7902
   62SAPC  H18Z 4984  -0.304   0.507   8.519  0.2438 -0.9457  0.0741
   63SAPC     N 4985   3.800   5.613   6.188  0.2846  0.2978 -0.3215
   63SAPC   C12 4986   3.808   5.641   6.335  0.5467 -0.2044 -0.2774
   63SAPC  H12A 4987   3.740   5.571   6.381  1.2228 -0.4855  0.3126
   63SAPC  H12B 4988   3.772   5.741   6.353  0.3513 -0.5430  1.3524
   63SAPC   C13 4989   3.658   5.617   6.144  0.2495 -0.7939  0.1156
   63SAPC  H13A 4990   3.605   5.701   6.187  1.1763 -0.5145  0.7170
   63SAPC  H13B 4991   3.651   5.640   6.039  2.0657 -2.5757 -0.4315
   63SAPC  H13C 4992   3.592   5.537   6.175 -2.6670  1.8568  1.0163
   63SAPC   C14 4993   3.887   5.716   6.121  0.4316  0.2823  0.4543
   63SAPC  H14A 4994   3.896   5.708   6.014 -0.5370 -2.2565  0.5292
   63SAPC  H14B 4995   3.840   5.812   6.139 -0.0670  0.0733  0.2759
   63SAPC  H14C 4996   3.990   5.722   6.154  0.5083  1.1437  0.0796
   63SAPC   C15 4997   3.854   5.473   6.166  0.1584 -0.1215  0.4036
   63SAPC  H15A 4998   3.845   5.442   6.063 -1.9957  2.7436 -0.3489
   63SAPC  H15B 4999   3.961   5.483   6.182  0.2003 -1.5927  1.1304
   63SAPC  H15C 5000   3.806   5.398   6.227 -0.7954 -1.4305 -1.8845
   63SAPC   C11 5001   3.937   5.632   6.422 -0.2866 -0.1397  0.2495
   63SAPC  H11A 5002   3.976   5.528   6.414  2.2221  0.7527  0.3044
   63SAPC  H11B 5003   3.914   5.652   6.529 -0.8677  2.1932 -0.2626
   63SAPC     P 5004   4.110   5.832   6.444  0.0340 -0.4149  0.1246
   63SAPC   O13 5005   4.200   5.904   6.347  0.2003  0.1705 -0.0058
   63SAPC   O14 5006   4.011   5.918   6.517  0.2970 -0.7058  0.6872
   63SAPC   O12 5007   4.031   5.726   6.366 -1.0396 -0.1119 -0.2260
   63SAPC   O11 5008   4.196   5.748   6.548  0.1014  0.1897 -0.1701
   63SAPC    C1 5009   4.155   5.731   6.687 -0.1013 -0.3248  0.3682
   63SAPC    HA 5010   4.047   5.748   6.705 -0.4188 -0.4518 -1.3319
   63SAPC    HB 5011   4.162   5.623   6.714  2.0854  0.3759  2.8034
   63SAPC    C2 5012   4.249   5.817   6.781 -0.0279 -0.3530 -0.5592
   63SAPC    HS 5013   4.214   5.801   6.886  0.7691 -1.1215 -0.3993
   63SAPC   O21 5014   4.248   5.957   6.745  0.1591 -0.1068 -0.5159
   63SAPC   C21 5015   4.136   6.014   6.787 -0.1215  0.4329  0.2223
   63SAPC   O22 5016   4.049   5.960   6.853  0.1085  0.1089  0.4637
   63SAPC   C22 5017   4.147   6.163   6.763  0.4655 -0.0347 -0.4614
   63SAPC   H2R 5018   4.189   6.210   6.855  1.3400 -0.1709 -0.7914
   63SAPC   H2S 5019   4.211   6.184   6.674  0.8302  1.0502  0.0494
   63SAPC    C3 5020   4.388   5.752   6.781  0.2847 -0.0230 -0.2137
   63SAPC    HX 5021   4.422   5.762   6.675  0.5892 -1.3889 -0.2587
   63SAPC    HY 5022   4.387   5.642   6.793  1.1158 -0.0410 -0.2378
   63SAPC   O31 5023   4.480   5.802   6.880  0.1079  0.2135  0.3442
   63SAPC   C31 5024   4.600   5.837   6.845  0.3517  0.0991 -0.2219
   63SAPC   O32 5025   4.651   5.833   6.734 -0.0458  0.1296  0.2292
   63SAPC   C32 5026   4.673   5.900   6.958  0.1825 -0.1528 -0.2894
   63SAPC   H2X 5027   4.775   5.856   6.954  0.7224  1.1401 -0.9432
   63SAPC   H2Y 5028   4.639   5.866   7.058 -3.3564  1.8519 -0.7094
   63SAPC   C23 5029   4.019   6.253   6.730  0.5222 -0.0011  0.1697
   63SAPC   H3R 5030   3.961   6.192   6.658  0.2306  0.0166  0.3887
   63SAPC   H3S 5031   4.057   6.349   6.687  0.6059 -0.2086 -0.2205
   63SAPC   C24 5032   3.927   6.287   6.853  0.6218 -0.4855  0.7109
   63SAPC   H4R 5033   3.888   6.197   6.905  2.0442 -0.8345  1.2102
   63SAPC   H4S 5034   3.840   6.342   6.811  1.5587 -1.0473 -2.0955
   63SAPC   C25 5035   3.999   6.375   6.953 -0.6472  0.3553 -0.0760
   63SAPC   H5R 5036   4.107   6.360   6.968 -0.4856  0.9475 -0.6290
   63SAPC   C26 5037   3.948   6.479   7.024  0.3876 -0.5766 -1.0121
   63SAPC   H6R 5038   4.013   6.534   7.094 -1.5268  0.6058 -0.1247
   63SAPC   C27 5039   3.800   6.516   7.015  0.1021 -0.2700  0.7512
   63SAPC   H7R 5040   3.794   6.574   7.110  2.3848  1.3557 -0.0658
   63SAPC   H7S 5041   3.719   6.442   7.031 -2.9901  2.3926 -1.8319
   63SAPC   C28 5042   3.748   6.602   6.902  0.2075 -0.6439 -0.8953
   63SAPC   H8R 5043   3.753   6.544   6.809 -1.3288  0.4861 -1.6949
   63SAPC   C29 5044   3.736   6.735   6.904 -0.1238  0.4658  0.1631
   63SAPC   H9R 5045   3.690   6.780   6.814 -1.3656  0.5268  0.8165
   63SAPC  C210 5046   3.755   6.833   7.017  0.6091  0.9925  0.5399
   63SAPC  H10R 5047   3.701   6.784   7.101  2.3336 -0.4645  0.8341
   63SAPC  H10S 5048   3.702   6.927   6.993  0.4651  1.1403  1.4045
   63SAPC  C211 5049   3.903   6.863   7.049  0.4943 -0.1621 -0.3449
   63SAPC  H11R 5050   3.965   6.874   6.959  1.6454  0.0431  0.4596
   63SAPC  C212 5051   3.969   6.875   7.163  0.3752  0.7567  0.0924
   63SAPC  H12R 5052   4.077   6.894   7.155  0.0270  2.4775 -0.8156
   63SAPC  C213 5053   3.895   6.839   7.296  0.1958  0.1633  0.3068
   63SAPC  H13R 5054   3.828   6.751   7.283  1.5972 -1.2228  2.2501
   63SAPC  H13S 5055   3.829   6.926   7.319 -1.8006 -0.7184 -1.8686
   63SAPC  C214 5056   3.993   6.804   7.404 -0.3967 -0.1734 -0.0664
   63SAPC  H14R 5057   4.072   6.745   7.356 -0.7560 -1.1937  0.5884
   63SAPC  C215 5058   4.011   6.854   7.527  0.3094 -0.0263 -0.0164
   63SAPC  H15R 5059   4.090   6.808   7.589  2.3337  1.6244 -1.3196
   63SAPC  C216 5060   3.920   6.959   7.588  0.1623 -0.1919 -0.2383
   63SAPC  H16R 5061   3.856   7.005   7.509 -0.4728  0.1511  0.4747
   63SAPC  H16S 5062   3.978   7.043   7.630  0.5223 -0.9647  0.8294
   63SAPC  C217 5063   3.829   6.908   7.700 -0.2256 -0.2258  0.4779
   63SAPC  H17R 5064   3.777   6.815   7.666  0.2530  0.0069 -0.9161
   63SAPC  H17S 5065   3.750   6.981   7.727  0.0904 -0.3127  1.6627
   63SAPC  C218 5066   3.918   6.864   7.826  0.1919 -0.1486 -0.4213
   63SAPC  H18R 5067   3.968   6.951   7.874  3.2453 -2.3336  0.5896
   63SAPC  H18S 5068   3.998   6.794   7.792 -1.9012 -2.2287 -1.1473
   63SAPC  C219 5069   3.832   6.804   7.934 -0.2994 -0.8036 -0.0866
   63SAPC  H19R 5070   3.771   6.725   7.886  1.6915 -0.0538 -4.0462
   63SAPC  H19S 5071   3.760   6.879   7.972  0.6068 -0.3191  0.7183
   63SAPC  C220 5072   3.902   6.744   8.055 -0.5637 -0.2942  0.3844
   63SAPC  H20R 5073   3.831   6.709   8.133 -3.3763  0.4295 -1.7823
   63SAPC  H20S 5074   3.978   6.811   8.100  1.7564 -1.6784 -1.3418
   63SAPC  H20T 5075   3.964   6.657   8.025 -1.9480 -1.2668  0.2781
   63SAPC   C33 5076   4.691   6.057   6.952  0.9211  0.6132  0.7198
   63SAPC   H3X 5077   4.726   6.088   6.851 -0.7362  1.1767  0.3060
   63SAPC   H3Y 5078   4.759   6.093   7.031  1.5363  2.1779 -0.4980
   63SAPC   C34 5079   4.556   6.122   6.982 -0.2557  0.1040 -0.5536
   63SAPC   H4X 5080   4.498   6.085   6.895 -0.7498  0.4665 -0.3809
   63SAPC   H4Y 5081   4.562   6.233   6.971  3.4273 -0.0395 -0.5199
   63SAPC   C35 5082   4.478   6.077   7.107 -0.5639 -0.1132 -0.0787
   63SAPC   H5X 5083   4.551   6.070   7.190  0.3166 -2.8505 -1.0245
   63SAPC   H5Y 5084   4.433   5.976   7.094 -0.7008  0.2114 -2.3458
   63SAPC   C36 5085   4.356   6.171   7.141 -0.6950  0.1315 -0.5568
   63SAPC   H6X 5086   4.328   6.218   7.044  2.4597 -1.2871 -2.2414
   63SAPC   H6Y 5087   4.392   6.256   7.202 -0.6412 -0.3025  0.0166
   63SAPC   C37 5088   4.245   6.088   7.207  0.0394 -0.0248  0.4073
   63SAPC   H7X 5089   4.223   6.000   7.143  1.2009  0.2753 -0.4257
   63SAPC   H7Y 5090   4.156   6.154   7.198  0.4544  0.2232 -2.3206
   63SAPC   C38 5091   4.292   6.046   7.345  0.1744 -0.2215  0.5119
   63SAPC   H8X 5092   4.402   6.030   7.350  0.3096  0.5108 -0.0152
   63SAPC   H8Y 5093   4.239   5.950   7.362 -0.6976  0.2998  0.7360
   63SAPC   C39 5094   4.228   6.137   7.451 -0.4165 -0.0039 -0.2670
   63SAPC   H9X 5095   4.118   6.127   7.465 -0.4574 -1.3425 -1.5023
   63SAPC   H9Y 5096   4.251   6.243   7.428 -0.3608 -0.1321 -0.8116
   63SAPC  C310 5097   4.292   6.104   7.591 -0.4885 -1.1558  0.0098
   63SAPC  H10X 5098   4.268   6.186   7.662 -0.8382 -1.1767 -0.0860
   63SAPC  H10Y 5099   4.403   6.099   7.591 -0.2241  3.1399 -0.9928
   63SAPC  C311 5100   4.233   5.974   7.659 -0.0564 -0.2232 -0.1163
   63SAPC  H11X 5101   4.243   5.883   7.597  0.0313 -1.8596  2.2065
   63SAPC  H11Y 5102   4.126   6.004   7.669 -0.2235 -1.0986  0.7869
   63SAPC  C312 5103   4.300   5.944   7.796 -0.1148 -0.3051 -0.4683
   63SAPC  H12X 5104   4.278   6.036   7.855 -1.6764  0.4443 -2.1756
   63SAPC  H12Y 5105   4.411   5.945   7.790 -0.1631 -1.5251 -1.6500
   63SAPC  C313 5106   4.239   5.820   7.864 -0.1963  0.7203 -0.0742
   63SAPC  H13X 5107   4.278   5.734   7.806 -3.5383 -0.6218 -0.4337
   63SAPC  H13Y 5108   4.130   5.840   7.853 -0.0127  2.1677  0.5836
   63SAPC  C314 5109   4.275   5.816   8.011  0.0499  0.0849 -0.2173
   63SAPC  H14X 5110   4.206   5.754   8.073 -1.1867 -0.3110 -1.9615
   63SAPC  H14Y 5111   4.278   5.921   8.047 -1.5435 -0.3898  1.3916
   63SAPC  C315 5112   4.419   5.760   8.037  0.3974 -0.8153 -1.0574
   63SAPC  H15X 5113   4.496   5.824   7.989 -0.5272 -0.8038 -2.5576
   63SAPC  H15Y 5114   4.421   5.657   7.995  2.3490 -1.0163 -0.5249
   63SAPC  C316 5115   4.464   5.747   8.188  0.3161 -0.6354  0.5273
   63SAPC  H16X 5116   4.431   5.831   8.252  0.3208  1.2854 -1.9325
   63SAPC  H16Y 5117   4.573   5.727   8.197  0.2420 -2.3356 -2.0179
   63SAPC  C317 5118   4.408   5.612   8.250 -0.5296 -0.5134  0.0487
   63SAPC  H17X 5119   4.450   5.531   8.186  2.3108 -0.6350  1.9772
   63SAPC  H17Y 5120   4.299   5.616   8.231 -0.6780 -0.1679  0.9330
   63SAPC  C318 5121   4.442   5.594   8.399 -0.6888  0.6596  0.1572
   63SAPC  H18X 5122   4.549   5.614   8.419 -0.8056  0.3096  1.1640
   63SAPC  H18Y 5123   4.413   5.492   8.431  0.5399 -0.4575 -2.2472
   63SAPC  H18Z 5124   4.391   5.666   8.467  0.2512  1.9303 -0.4680
   64SAPC     N 5125   6.477   6.150   5.894  0.4198 -0.5532 -0.2181
   64SAPC   C12 5126   6.405   6.203   6.019 -0.5675  0.6801  0.0422
   64SAPC  H12A 5127   6.463   6.288   6.052 -2.1393  1.3164  1.2350
   64SAPC  H12B 5128   6.417   6.125   6.093 -2.3766  1.1687  0.8685
   64SAPC   C13 5129   6.404   6.036   5.833 -0.3371  0.6587  0.0444
   64SAPC  H13A 5130   6.385   5.957   5.905  0.1875  1.7799  1.4310
   64SAPC  H13B 5131   6.307   6.064   5.795 -0.0602 -0.3868 -1.4865
   64SAPC  H13C 5132   6.463   6.000   5.750  0.1776 -1.3286  1.2358
   64SAPC   C14 5133   6.475   6.254   5.785 -0.9244 -0.0021 -0.1356
   64SAPC  H14A 5134   6.533   6.340   5.817  1.3157 -1.7840  0.7401
   64SAPC  H14B 5135   6.514   6.208   5.696 -3.0619  2.0231 -2.1700
   64SAPC  H14C 5136   6.376   6.297   5.778 -0.2002  1.7312  0.0467
   64SAPC   C15 5137   6.611   6.100   5.922  0.2905  0.2620  0.3416
   64SAPC  H15A 5138   6.607   6.021   5.995  1.0088  0.3436  0.4709
   64SAPC  H15B 5139   6.644   6.052   5.830  0.0609  0.9820 -0.1179
   64SAPC  H15C 5140   6.683   6.176   5.948 -0.0236  0.1695  1.4945
   64SAPC   C11 5141   6.260   6.248   6.003  0.6449 -0.7551  0.6268
   64SAPC  H11A 5142   6.222   6.258   6.107  0.9348 -1.7672  0.8350
   64SAPC  H11B 5143   6.195   6.169   5.960 -0.2852 -1.5821  3.4191
   64SAPC     P 5144   6.238   6.517   5.985  0.2308 -0.1205 -0.0037
   64SAPC   O13 5145   6.379   6.566   6.001 -0.0956 -0.1878  0.4745
   64SAPC   O14 5146   6.139   6.596   5.909 -0.4071 -0.0055 -0.6691
   64SAPC   O12 5147   6.244   6.370   5.925 -0.4286 -0.6372 -0.0213
   64SAPC   O11 5148   6.186   6.488   6.125 -0.1175 -0.1093  0.2081
   64SAPC    C1 5149   6.048   6.458   6.159 -1.1317  0.4372  0.5277
   64SAPC    HA 5150   5.978   6.513   6.092 -1.1058  0.3653  0.4411
   64SAPC    HB 5151   6.019   6.351   6.145  0.5017  0.0246  0.1086
   64SAPC    C2 5152   6.019   6.493   6.305  0.2473 -0.5243 -0.8094
   64SAPC    HS 5153   6.050   6.599   6.319 -2.0606 -0.0371  0.8007
   64SAPC   O21 5154   6.090   6.406   6.397  0.4733 -0.0534 -0.9956
   64SAPC   C21 5155   6.213   6.438   6.424  0.0159  0.1764  0.2688
   64SAPC   O22 5156   6.268   6.540   6.387  0.4237 -0.2940 -0.2692
   64SAPC   C22 5157   6.279   6.337   6.513 -0.2092 -0.2442 -0.1627
   64SAPC   H2R 5158   6.238   6.346   6.616  0.5452 -0.8273  0.1906
   64SAPC   H2S 5159   6.251   6.237   6.475 -0.3079  0.1802 -1.2232
   64SAPC    C3 5160   5.875   6.473   6.345  0.0268 -0.1387  0.7317
   64SAPC    HX 5161   5.873   6.362   6.349 -2.0289 -0.1104  1.1450
   64SAPC    HY 5162   5.794   6.502   6.274 -1.1667 -1.8463  1.3656
   64SAPC   O31 5163   5.855   6.531   6.476 -0.4523  0.0040 -0.3472
   64SAPC   C31 5164   5.831   6.660   6.463  0.5207 -0.0719 -0.1356
   64SAPC   O32 5165   5.820   6.717   6.359 -0.0407  0.3626  0.2021
   64SAPC   C32 5166   5.845   6.739   6.592 -0.7753 -0.4829  0.4505
   64SAPC   H2X 5167   5.742   6.762   6.625 -1.3484  0.5296 -1.9656
   64SAPC   H2Y 5168   5.905   6.831   6.575  1.2382 -2.3917 -3.3389
   64SAPC   C23 5169   6.433   6.344   6.524  0.1498 -0.1312 -1.2150
   64SAPC   H3R 5170   6.473   6.441   6.488 -1.4356  0.4572 -1.4121
   64SAPC   H3S 5171   6.480   6.272   6.453  0.6449 -0.8608 -0.1651
   64SAPC   C24 5172   6.494   6.315   6.670  0.0183 -0.4046 -0.0172
   64SAPC   H4R 5173   6.605   6.306   6.667  0.1425  1.3048 -0.7055
   64SAPC   H4S 5174   6.462   6.212   6.697 -1.4863 -0.2996 -1.3299
   64SAPC   C25 5175   6.462   6.403   6.775  0.1582 -0.6090  0.1562
   64SAPC   H5R 5176   6.420   6.499   6.739  1.6784 -1.2626 -3.5772
   64SAPC   C26 5177   6.473   6.385   6.910  0.1427 -0.0909  0.9928
   64SAPC   H6R 5178   6.458   6.473   6.974 -2.4407 -0.9108  1.5820
   64SAPC   C27 5179   6.521   6.260   6.987 -0.0935  0.5255 -0.1200
   64SAPC   H7R 5180   6.562   6.290   7.085  0.0017 -2.2343  0.7366
   64SAPC   H7S 5181   6.610   6.213   6.940 -1.5592 -1.4604 -0.9836
   64SAPC   C28 5182   6.418   6.152   7.016 -0.0751 -0.1015  0.2620
   64SAPC   H8R 5183   6.377   6.110   6.922 -1.1708 -2.8606  1.8921
   64SAPC   C29 5184   6.388   6.086   7.130 -0.5837 -0.0647 -0.4060
   64SAPC   H9R 5185   6.314   6.005   7.120 -0.2463 -0.1289 -2.7376
   64SAPC  C210 5186   6.449   6.112   7.268 -0.5132  1.0926  0.6102
   64SAPC  H10R 5187   6.465   6.222   7.272 -0.6092  1.1190  0.3168
   64SAPC  H10S 5188   6.545   6.056   7.273 -2.0203 -1.6771 -0.3922
   64SAPC  C211 5189   6.351   6.075   7.377 -0.2177 -0.1952 -0.0779
   64SAPC  H11R 5190   6.251   6.043   7.346  1.1669 -4.4015 -0.4478
   64SAPC  C212 5191   6.375   6.076   7.514  0.7503  0.3956 -0.0217
   64SAPC  H12R 5192   6.291   6.058   7.583 -0.2810  1.2888 -1.0099
   64SAPC  C213 5193   6.508   6.124   7.568 -0.2979  0.2796 -0.4254
   64SAPC  H13R 5194   6.582   6.158   7.492  0.8796  1.8842  1.3844
   64SAPC  H13S 5195   6.569   6.048   7.621 -0.1490 -0.1426 -1.2052
   64SAPC  C214 5196   6.482   6.240   7.659 -0.1573 -0.4801 -1.0113
   64SAPC  H14R 5197   6.486   6.338   7.608 -0.5473 -0.6661 -1.4082
   64SAPC  C215 5198   6.460   6.237   7.791  0.4549 -0.0267 -0.0436
   64SAPC  H15R 5199   6.463   6.335   7.841 -1.4633  1.1164 -2.0795
   64SAPC  C216 5200   6.472   6.116   7.884  0.0575 -0.0543 -0.2852
   64SAPC  H16R 5201   6.521   6.033   7.828  1.1811  1.3380 -1.4066
   64SAPC  H16S 5202   6.370   6.081   7.907  0.5990 -3.0300 -2.0916
   64SAPC  C217 5203   6.554   6.139   8.013  0.0796  0.0312 -0.2985
   64SAPC  H17R 5204   6.509   6.228   8.061 -1.4581 -1.1321  0.4689
   64SAPC  H17S 5205   6.663   6.160   7.999  0.0882 -0.6227 -1.2715
   64SAPC  C218 5206   6.551   6.024   8.118 -0.1871 -0.3000  0.0486
   64SAPC  H18R 5207   6.618   6.057   8.200  0.1554 -0.2204 -0.2649
   64SAPC  H18S 5208   6.607   5.934   8.084 -0.7450 -1.1925  1.4340
   64SAPC  C219 5209   6.410   5.996   8.180  0.0258 -0.3067  0.5749
   64SAPC  H19R 5210   6.351   5.944   8.101  1.8363  1.9212 -2.3551
   64SAPC  H19S 5211   6.359   6.089   8.214 -0.3956 -0.7072  1.0529
   64SAPC  C220 5212   6.423   5.905   8.303  1.1967 -0.0982  0.1875
   64SAPC  H20R 5213   6.489   5.944   8.383  2.1776 -0.4206 -0.4461
   64SAPC  H20S 5214   6.453   5.805   8.266  1.4784  0.1763 -0.3434
   64SAPC  H20T 5215   6.322   5.900   8.349  0.6331 -0.6150 -1.0678
   64SAPC   C33 5216   5.919   6.659   6.710  0.2009  0.4056 -0.5387
   64SAPC   H3X 5217   5.891   6.552   6.713 -0.3129  0.5776  1.3008
   64SAPC   H3Y 5218   5.873   6.688   6.807  0.7154 -0.7933  0.0653
   64SAPC   C34 5219   6.069   6.677   6.711  0.1429 -0.2258  0.0926
   64SAPC   H4X 5220   6.076   6.788   6.711 -1.7067 -0.0883  0.6638
   64SAPC   H4Y 5221   6.102   6.637   6.613 -1.8387  0.8895 -1.0489
   64SAPC   C35 5222   6.145   6.606   6.823 -0.5152  0.4297  0.3163
   64SAPC   H5X 5223   6.255   6.617   6.819 -0.2826 -1.3058  1.1719
   64SAPC   H5Y 5224   6.133   6.495   6.826 -1.7550  0.2819 -4.9247
   64SAPC   C36 5225   6.101   6.649   6.968 -0.2772 -0.6552  0.1803
   64SAPC   H6X 5226   6.006   6.600   6.999  0.4176 -1.9650  0.2798
   64SAPC   H6Y 5227   6.087   6.759   6.972 -0.9526 -0.6863 -1.1565
   64SAPC   C37 5228   6.210   6.616   7.073 -0.2250  0.0032  0.3114
   64SAPC   H7X 5229   6.300   6.677   7.046  0.6287 -0.9907  0.8577
   64SAPC   H7Y 5230   6.243   6.510   7.062 -0.9102 -0.2815  0.9937
   64SAPC   C38 5231   6.166   6.651   7.208  0.5490 -0.1743  0.5813
   64SAPC   H8X 5232   6.060   6.621   7.215  0.1826  1.1738  0.7784
   64SAPC   H8Y 5233   6.157   6.761   7.220 -1.9677 -0.0770 -1.6417
   64SAPC   C39 5234   6.250   6.589   7.321  0.7047 -0.5395 -0.2954
   64SAPC   H9X 5235   6.351   6.636   7.329 -0.3552  1.9030 -0.7987
   64SAPC   H9Y 5236   6.272   6.484   7.295  1.0411 -1.1493  2.3164
   64SAPC  C310 5237   6.186   6.613   7.462  0.3281 -0.5198  0.5846
   64SAPC  H10X 5238   6.081   6.579   7.478  0.7220 -0.8496  2.5918
   64SAPC  H10Y 5239   6.170   6.722   7.469 -1.5123 -0.6043 -1.6691
   64SAPC  C311 5240   6.282   6.574   7.575  0.9361 -0.2914 -0.0045
   64SAPC  H11X 5241   6.383   6.620   7.579  0.9016 -0.0368 -1.7299
   64SAPC  H11Y 5242   6.303   6.465   7.577  2.3635 -0.0681 -1.1576
   64SAPC  C312 5243   6.200   6.613   7.705 -0.2520  0.0966  0.7627
   64SAPC  H12X 5244   6.113   6.544   7.710 -0.0765  0.0022  4.7809
   64SAPC  H12Y 5245   6.175   6.721   7.697  0.1838  0.1603  0.2715
   64SAPC  C313 5246   6.276   6.591   7.836  0.1655  0.1268  0.4460
   64SAPC  H13X 5247   6.342   6.678   7.858  0.9229  0.1284 -1.6632
   64SAPC  H13Y 5248   6.344   6.507   7.811  1.3138  1.0424  0.4614
   64SAPC  C314 5249   6.182   6.568   7.953 -0.3310 -0.9881  0.0447
   64SAPC  H14X 5250   6.113   6.656   7.960 -1.3194 -1.6610 -1.0918
   64SAPC  H14Y 5251   6.246   6.571   8.044 -0.2839 -0.3781 -0.0068
   64SAPC  C315 5252   6.098   6.443   7.958 -0.2474 -0.5352  0.0905
   64SAPC  H15X 5253   6.030   6.437   7.870 -1.4539  0.3609  0.9489
   64SAPC  H15Y 5254   6.017   6.445   8.034 -0.1427 -0.0543  0.1890
   64SAPC  C316 5255   6.167   6.316   7.995  0.2842  0.2091 -0.1169
   64SAPC  H16X 5256   6.254   6.340   8.061 -1.6551  1.5163  2.0574
   64SAPC  H16Y 5257   6.213   6.284   7.900 -1.5703 -1.9702 -0.3103
   64SAPC  C317 5258   6.074   6.212   8.052  0.1409 -0.1664 -0.4019
   64SAPC  H17X 5259   6.140   6.123   8.054  1.0960  0.5379 -0.5892
   64SAPC  H17Y 5260   5.987   6.188   7.986  0.1486 -0.5635 -0.2742
   64SAPC  C318 5261   6.021   6.228   8.199 -0.0465  0.6931 -0.6937
   64SAPC  H18X 5262   6.114   6.249   8.257  0.4147  0.7943 -1.4663
   64SAPC  H18Y 5263   5.962   6.138   8.225  2.4378 -1.0569 -0.9733
   64SAPC  H18Z 5264   5.963   6.322   8.205  1.1615  1.4215 -0.0955
   65SAPC     N 5265   6.347   1.166   5.916  0.0321  0.0261  0.0297
   65SAPC   C12 5266   6.429   1.181   6.044  0.3745  0.1298  0.1046
   65SAPC  H12A 5267   6.452   1.085   6.088 -2.4080 -1.1164 -1.0389
   65SAPC  H12B 5268   6.371   1.230   6.121  1.3851  0.8199  0.4464
   65SAPC   C13 5269   6.443   1.131   5.807  0.4632 -0.1023  0.0845
   65SAPC  H13A 5270   6.390   1.113   5.715  1.7409  1.4934 -0.9808
   65SAPC  H13B 5271   6.506   1.218   5.802 -0.3645  0.5343  0.4826
   65SAPC  H13C 5272   6.500   1.042   5.828  0.2428 -0.3926 -0.5422
   65SAPC   C14 5273   6.258   1.042   5.940 -0.8816  0.3947  0.6059
   65SAPC  H14A 5274   6.180   1.041   5.865  0.2387 -1.5673 -0.5732
   65SAPC  H14B 5275   6.319   0.953   5.940  0.8761  1.5705  0.0984
   65SAPC  H14C 5276   6.218   1.050   6.040 -0.4436 -0.5414  0.8597
   65SAPC   C15 5277   6.268   1.276   5.875  0.1607 -0.0983 -0.2762
   65SAPC  H15A 5278   6.204   1.317   5.951  1.8105  2.4239 -0.1743
   65SAPC  H15B 5279   6.336   1.359   5.859 -1.2957  1.2946  0.5418
   65SAPC  H15C 5280   6.220   1.246   5.783  1.7520 -1.7451 -0.5920
   65SAPC   C11 5281   6.559   1.266   6.029  0.2754 -0.0235  0.4409
   65SAPC  H11A 5282   6.631   1.201   5.976  1.0236  0.7602  0.4878
   65SAPC  H11B 5283   6.596   1.275   6.134 -0.1625  0.9222  0.5197
   65SAPC     P 5284   6.512   1.524   6.040 -0.2041  0.1596 -0.0886
   65SAPC   O13 5285   6.649   1.568   6.073 -0.2553 -0.3828  0.0290
   65SAPC   O14 5286   6.425   1.615   5.967 -0.3975 -0.2880  0.1765
   65SAPC   O12 5287   6.536   1.392   5.961  0.8818 -0.0718  0.3180
   65SAPC   O11 5288   6.442   1.469   6.171 -0.0053  0.2070 -0.3274
   65SAPC    C1 5289   6.310   1.527   6.205 -0.9214  0.5523  0.6198
   65SAPC    HA 5290   6.232   1.531   6.126 -0.2438 -1.4512 -0.1759
   65SAPC    HB 5291   6.267   1.454   6.276 -0.1808 -1.0400 -0.5358
   65SAPC    C2 5292   6.312   1.671   6.275  0.1158 -0.6453  0.4506
   65SAPC    HS 5293   6.312   1.741   6.189  1.2994 -0.5469  0.5315
   65SAPC   O21 5294   6.432   1.682   6.356  0.3930  0.4263 -0.2105
   65SAPC   C21 5295   6.474   1.810   6.359 -0.1759  0.2473  0.4878
   65SAPC   O22 5296   6.427   1.904   6.301  0.3890 -0.4934  0.1497
   65SAPC   C22 5297   6.596   1.818   6.444 -0.5174  0.1325  1.0785
   65SAPC   H2R 5298   6.623   1.714   6.472 -3.4560 -1.0063 -0.1482
   65SAPC   H2S 5299   6.682   1.856   6.385 -2.2688  0.2596 -1.4952
   65SAPC    C3 5300   6.184   1.692   6.368  0.1227 -0.3836  0.1524
   65SAPC    HX 5301   6.099   1.681   6.297  1.0869  0.3390 -1.1166
   65SAPC    HY 5302   6.187   1.797   6.402  1.4295  0.1876 -1.6819
   65SAPC   O31 5303   6.163   1.595   6.482  0.1761 -0.4922 -0.6620
   65SAPC   C31 5304   6.054   1.527   6.498  0.1018 -0.0778  0.6560
   65SAPC   O32 5305   5.946   1.551   6.439 -0.2084  0.4580  0.1935
   65SAPC   C32 5306   6.055   1.414   6.599 -0.2423  0.8167 -0.0788
   65SAPC   H2X 5307   6.140   1.434   6.668  1.2149 -1.5360 -1.1546
   65SAPC   H2Y 5308   6.082   1.321   6.545  1.6936  0.1735  1.9458
   65SAPC   C23 5309   6.589   1.920   6.557 -0.2948  0.4704  0.5620
   65SAPC   H3R 5310   6.543   2.008   6.506 -0.8441 -0.3388 -0.3610
   65SAPC   H3S 5311   6.689   1.950   6.595  0.6757  0.2440 -1.6967
   65SAPC   C24 5312   6.503   1.868   6.679 -0.3761 -1.2955  0.0766
   65SAPC   H4R 5313   6.563   1.792   6.733 -2.0230 -2.5394  0.1941
   65SAPC   H4S 5314   6.408   1.830   6.637 -0.1711 -0.4876 -1.1378
   65SAPC   C25 5315   6.503   1.986   6.773  0.5921  0.7331 -0.2859
   65SAPC   H5R 5316   6.426   2.060   6.748  0.5448  0.6968 -0.2480
   65SAPC   C26 5317   6.591   2.011   6.876 -0.6175 -0.0468 -0.3748
   65SAPC   H6R 5318   6.595   2.112   6.921 -2.3419  0.4500 -1.2810
   65SAPC   C27 5319   6.707   1.928   6.917 -0.4584  0.0101 -0.2478
   65SAPC   H7R 5320   6.756   1.882   6.828  0.7078 -0.3956  0.5904
   65SAPC   H7S 5321   6.663   1.842   6.971 -1.4063  0.4363 -0.3337
   65SAPC   C28 5322   6.817   1.978   7.004  0.6051 -0.0123  0.1533
   65SAPC   H8R 5323   6.899   2.025   6.947 -0.3043  1.3714 -0.0269
   65SAPC   C29 5324   6.827   1.972   7.141  0.3407  0.5544 -0.6245
   65SAPC   H9R 5325   6.905   2.029   7.193  0.2710 -1.3061  1.5973
   65SAPC  C210 5326   6.709   1.923   7.229  0.3977 -1.0176 -0.7345
   65SAPC  H10R 5327   6.742   1.855   7.309 -1.1589 -0.8023  0.1068
   65SAPC  H10S 5328   6.645   1.861   7.162 -2.8203  3.5552 -2.1913
   65SAPC  C211 5329   6.645   2.053   7.271 -0.2064 -0.0407  0.6812
   65SAPC  H11R 5330   6.600   2.116   7.192  1.1664 -0.4178 -0.4088
   65SAPC  C212 5331   6.646   2.104   7.398 -0.1326 -0.1677  0.4509
   65SAPC  H12R 5332   6.593   2.197   7.424  0.2801  0.6680 -1.6625
   65SAPC  C213 5333   6.707   2.046   7.522 -0.0929 -0.7710  0.8526
   65SAPC  H13R 5334   6.806   2.092   7.547  0.4990 -0.7945 -1.3928
   65SAPC  H13S 5335   6.732   1.940   7.501  0.5677 -0.5466  0.4916
   65SAPC  C214 5336   6.617   2.055   7.634 -0.1241  0.5119 -0.5901
   65SAPC  H14R 5337   6.510   2.032   7.618  0.0250 -0.5041 -0.1949
   65SAPC  C215 5338   6.647   2.101   7.755  0.5837 -0.0784  0.3986
   65SAPC  H15R 5339   6.574   2.105   7.837  1.0406  0.0940  0.8001
   65SAPC  C216 5340   6.784   2.148   7.799 -0.0479  0.7125  0.3581
   65SAPC  H16R 5341   6.770   2.218   7.884 -1.5604 -0.3570  0.9962
   65SAPC  H16S 5342   6.839   2.203   7.719 -1.5470  1.6146 -0.0730
   65SAPC  C217 5343   6.858   2.032   7.851  0.1473 -0.0513  0.3394
   65SAPC  H17R 5344   6.870   1.950   7.777  1.1514 -0.4188  0.8978
   65SAPC  H17S 5345   6.803   1.995   7.940  1.1146 -0.9633  0.5724
   65SAPC  C218 5346   6.999   2.071   7.892  0.1887  0.4774  0.2295
   65SAPC  H18R 5347   7.045   2.143   7.821  2.8777 -3.1041 -1.8491
   65SAPC  H18S 5348   7.065   1.982   7.884  2.3900  2.0472  0.5882
   65SAPC  C219 5349   7.009   2.134   8.033 -0.0620  0.3046  0.2011
   65SAPC  H19R 5350   6.944   2.223   8.044 -0.3054 -0.0490  1.7225
   65SAPC  H19S 5351   7.114   2.166   8.051  0.0374  0.1762 -0.1429
   65SAPC  C220 5352   6.968   2.029   8.146  0.7928  0.1467  0.2018
   65SAPC  H20R 5353   6.963   2.072   8.248  1.3548  0.7264 -0.0139
   65SAPC  H20S 5354   7.046   1.950   8.140  1.6878  1.0328  0.1314
   65SAPC  H20T 5355   6.870   1.980   8.128  1.2360 -0.7970  0.3414
   65SAPC   C33 5356   5.922   1.393   6.672 -0.6154 -0.1869  0.3621
   65SAPC   H3X 5357   5.844   1.349   6.607 -0.1924  0.1265 -0.3728
   65SAPC   H3Y 5358   5.900   1.497   6.705 -2.2344 -0.3151 -0.2772
   65SAPC   C34 5359   5.939   1.291   6.793 -0.1139  0.0430  1.0684
   65SAPC   H4X 5360   5.935   1.181   6.774 -2.1584  0.1847  0.5308
   65SAPC   H4Y 5361   5.847   1.322   6.848  0.3887  0.4538  1.6853
   65SAPC   C35 5362   6.048   1.317   6.896  0.0164 -1.2726 -0.1364
   65SAPC   H5X 5363   6.071   1.425   6.905  1.1766 -1.2952 -2.5251
   65SAPC   H5Y 5364   6.140   1.273   6.850  0.6575 -0.6491  0.5448
   65SAPC   C36 5365   6.024   1.260   7.035  0.0194 -0.2926  0.0771
   65SAPC   H6X 5366   5.967   1.164   7.027 -0.8071  0.4651 -3.8523
   65SAPC   H6Y 5367   5.960   1.342   7.075  0.7193 -0.2196  1.0640
   65SAPC   C37 5368   6.153   1.233   7.123  0.5728  0.0911  0.0888
   65SAPC   H7X 5369   6.216   1.324   7.126 -0.0036  0.5061 -0.2528
   65SAPC   H7Y 5370   6.212   1.158   7.067 -1.8632 -0.6269 -1.6238
   65SAPC   C38 5371   6.119   1.199   7.269  0.2039 -0.3749  0.4897
   65SAPC   H8X 5372   6.055   1.108   7.272  1.4436 -1.3975 -2.2306
   65SAPC   H8Y 5373   6.064   1.284   7.314 -2.1354 -2.3198  1.4189
   65SAPC   C39 5374   6.242   1.173   7.358 -0.4516 -0.0591 -0.0180
   65SAPC   H9X 5375   6.298   1.268   7.371  3.8345 -2.4808  0.2189
   65SAPC   H9Y 5376   6.320   1.105   7.316 -0.2223 -0.8809  1.6966
   65SAPC  C310 5377   6.192   1.130   7.496  0.2491 -0.4752 -0.1307
   65SAPC  H10X 5378   6.159   1.025   7.481  1.4026 -0.8650 -0.0154
   65SAPC  H10Y 5379   6.100   1.185   7.522 -0.5194 -1.9563  0.3285
   65SAPC  C311 5380   6.287   1.143   7.610  0.0180 -0.1640  0.8120
   65SAPC  H11X 5381   6.310   1.252   7.619 -0.5575  0.0591 -0.3387
   65SAPC  H11Y 5382   6.390   1.108   7.587 -0.5205 -0.5811 -1.0243
   65SAPC  C312 5383   6.239   1.085   7.744  0.3854 -0.1025 -0.2886
   65SAPC  H12X 5384   6.227   0.975   7.733 -1.0910  0.1175 -0.9606
   65SAPC  H12Y 5385   6.137   1.120   7.770  0.7797 -0.3602  1.7101
   65SAPC  C313 5386   6.332   1.122   7.855  0.1338 -0.0517  0.3627
   65SAPC  H13X 5387   6.435   1.104   7.816  0.1767 -0.3939  0.6271
   65SAPC  H13Y 5388   6.316   1.048   7.937 -1.6388  1.7511  1.6813
   65SAPC  C314 5389   6.309   1.249   7.929  0.2147  0.1643 -0.4439
   65SAPC  H14X 5390   6.206   1.241   7.971  1.1367 -0.8168  1.7469
   65SAPC  H14Y 5391   6.308   1.335   7.859  1.4276  1.4768  1.0928
   65SAPC  C315 5392   6.408   1.288   8.031 -0.4173  0.4354  0.5385
   65SAPC  H15X 5393   6.383   1.389   8.069 -2.2238  0.4686 -0.6411
   65SAPC  H15Y 5394   6.514   1.277   7.999 -0.0229 -1.9975  2.5270
   65SAPC  C316 5395   6.406   1.196   8.152  0.3310 -0.9925  0.1409
   65SAPC  H16X 5396   6.426   1.091   8.123  1.5473 -1.1482  1.4715
   65SAPC  H16Y 5397   6.309   1.196   8.207  0.6662  1.2824  0.8029
   65SAPC  C317 5398   6.506   1.246   8.265  0.7563 -0.4398  0.3489
   65SAPC  H17X 5399   6.590   1.283   8.202 -0.7253 -0.9703 -2.0230
   65SAPC  H17Y 5400   6.533   1.157   8.326  1.6307 -1.1426 -1.0366
   65SAPC  C318 5401   6.454   1.359   8.352 -0.2194  0.4006 -0.1214
   65SAPC  H18X 5402   6.422   1.443   8.287  0.2713 -0.0960 -1.0112
   65SAPC  H18Y 5403   6.538   1.401   8.412 -0.2387 -0.2963  0.3961
   65SAPC  H18Z 5404   6.368   1.326   8.414 -0.2119  0.7078  0.0533
   66SAPC     N 5405   3.993   1.168   5.851 -0.0303 -0.1900  0.6372
   66SAPC   C12 5406   3.901   1.092   5.950 -0.2025  0.9024 -0.8266
   66SAPC  H12A 5407   3.848   1.016   5.896  0.8314 -1.6172  1.5995
   66SAPC  H12B 5408   3.827   1.157   5.993  0.3061  2.2304 -1.9077
   66SAPC   C13 5409   4.046   1.286   5.922  0.1318  0.5664 -0.2568
   66SAPC  H13A 5410   4.103   1.346   5.851 -1.4871  0.8522 -1.3362
   66SAPC  H13B 5411   3.968   1.344   5.969  0.6492 -0.2967  1.6996
   66SAPC  H13C 5412   4.103   1.250   6.006 -0.8892  1.8822  1.0379
   66SAPC   C14 5413   4.105   1.085   5.805 -0.0028 -0.5180  0.9583
   66SAPC  H14A 5414   4.158   1.046   5.890  0.6062 -2.0065 -0.0691
   66SAPC  H14B 5415   4.077   0.997   5.749  1.6007  1.2743 -2.8739
   66SAPC  H14C 5416   4.180   1.134   5.744  0.5264 -0.4911  1.6297
   66SAPC   C15 5417   3.914   1.219   5.731  0.3189 -0.1907  0.1818
   66SAPC  H15A 5418   3.862   1.145   5.671 -0.9370  1.9393 -1.4009
   66SAPC  H15B 5419   3.831   1.282   5.760 -0.0317 -0.5294 -0.0710
   66SAPC  H15C 5420   3.976   1.272   5.661  1.5438 -2.5146 -0.5458
   66SAPC   C11 5421   3.974   1.023   6.068 -0.1193  0.2034  0.2870
   66SAPC  H11A 5422   3.915   0.998   6.159 -0.8441 -1.0134 -0.5080
   66SAPC  H11B 5423   4.043   1.097   6.115  3.8240 -2.1448 -1.6370
   66SAPC     P 5424   3.988   0.769   5.994 -0.1838  0.5279  0.4016
   66SAPC   O13 5425   3.904   0.760   5.872 -0.1822  0.0206  0.3922
   66SAPC   O14 5426   4.101   0.672   6.000  0.6436 -0.6344  0.1039
   66SAPC   O12 5427   4.044   0.912   6.020  0.4534  0.3357  0.3943
   66SAPC   O11 5428   3.901   0.749   6.121  0.4896  0.0399 -0.2153
   66SAPC    C1 5429   3.896   0.649   6.225 -0.5843 -0.2916  0.8690
   66SAPC    HA 5430   3.795   0.603   6.222 -0.0529 -1.4651  0.4169
   66SAPC    HB 5431   3.966   0.565   6.205  0.1760  0.1545  1.6008
   66SAPC    C2 5432   3.919   0.707   6.363 -0.2772  0.2352 -0.2883
   66SAPC    HS 5433   3.914   0.625   6.438 -3.6922 -0.5355 -1.2641
   66SAPC   O21 5434   3.823   0.817   6.388 -0.3269 -0.1945 -0.1198
   66SAPC   C21 5435   3.712   0.783   6.442 -0.5155  0.3505 -0.1946
   66SAPC   O22 5436   3.670   0.670   6.469  0.1984 -0.3208 -0.2157
   66SAPC   C22 5437   3.639   0.908   6.471 -0.5104 -0.0518  0.3678
   66SAPC   H2R 5438   3.696   0.995   6.431 -0.4017 -0.2947 -0.0079
   66SAPC   H2S 5439   3.543   0.902   6.416  0.3693  1.0554 -1.3078
   66SAPC    C3 5440   4.064   0.764   6.359 -0.8561 -0.1388 -1.1772
   66SAPC    HX 5441   4.063   0.855   6.296  1.9299 -0.1808 -1.3149
   66SAPC    HY 5442   4.131   0.696   6.303 -0.1746 -0.1967 -0.2913
   66SAPC   O31 5443   4.112   0.787   6.496 -0.1803  0.5246  0.3157
   66SAPC   C31 5444   4.092   0.891   6.563  0.8224 -0.1072  0.4301
   66SAPC   O32 5445   4.035   0.988   6.521  0.0344  0.1652  0.0364
   66SAPC   C32 5446   4.157   0.881   6.703  0.5351  0.1048  0.4748
   66SAPC   H2X 5447   4.265   0.890   6.681  0.4543  2.8895  0.9736
   66SAPC   H2Y 5448   4.124   0.789   6.757  1.1247  1.3824  3.1165
   66SAPC   C23 5449   3.606   0.911   6.617  0.4732 -0.4937 -0.1153
   66SAPC   H3R 5450   3.539   0.827   6.647  1.9175 -1.9019 -0.7424
   66SAPC   H3S 5451   3.539   0.998   6.635 -0.6859 -1.2176 -0.8761
   66SAPC   C24 5452   3.722   0.947   6.706 -0.2087 -0.7691  0.1201
   66SAPC   H4R 5453   3.759   1.048   6.679  1.9019 -1.1672  1.4219
   66SAPC   H4S 5454   3.796   0.871   6.674 -0.4325  0.0430 -2.4472
   66SAPC   C25 5455   3.699   0.939   6.855 -0.2276 -0.0623  0.7044
   66SAPC   H5R 5456   3.653   1.035   6.883  1.4406  1.1537 -0.5973
   66SAPC   C26 5457   3.752   0.856   6.948 -0.2516 -0.0693 -0.6207
   66SAPC   H6R 5458   3.721   0.865   7.053 -1.9407 -1.9046 -0.9459
   66SAPC   C27 5459   3.847   0.740   6.914  0.3111 -0.4132  0.7448
   66SAPC   H7R 5460   3.920   0.724   6.996 -0.7091 -0.0579  1.7424
   66SAPC   H7S 5461   3.907   0.765   6.825 -0.0073  0.7849  0.8559
   66SAPC   C28 5462   3.775   0.618   6.872  0.3080  0.3464 -0.4751
   66SAPC   H8R 5463   3.754   0.617   6.764  1.8203  1.9437 -0.7992
   66SAPC   C29 5464   3.719   0.537   6.961 -0.6990 -0.3305 -0.2717
   66SAPC   H9R 5465   3.657   0.451   6.929  1.0146 -1.6032 -0.2370
   66SAPC  C210 5466   3.721   0.558   7.110 -0.4703 -0.7842 -0.7825
   66SAPC  H10R 5467   3.629   0.611   7.143  0.1722 -0.4464  0.5159
   66SAPC  H10S 5468   3.805   0.623   7.142 -1.5963  0.6277 -0.6401
   66SAPC  C211 5469   3.715   0.446   7.200 -0.8517  0.5530 -0.0477
   66SAPC  H11R 5470   3.689   0.351   7.150  1.5658 -1.0282  1.5384
   66SAPC  C212 5471   3.740   0.427   7.334  0.0731  0.1282  0.8339
   66SAPC  H12R 5472   3.736   0.325   7.375 -1.6328 -1.2156 -2.4990
   66SAPC  C213 5473   3.780   0.535   7.432  1.1307 -0.4271  0.0132
   66SAPC  H13R 5474   3.807   0.633   7.385 -2.5392  0.3026 -0.7881
   66SAPC  H13S 5475   3.870   0.503   7.489  1.0063 -0.2363  0.3200
   66SAPC  C214 5476   3.672   0.554   7.536 -0.2652 -0.1660 -0.3822
   66SAPC  H14R 5477   3.573   0.520   7.503 -0.2872  1.1361 -1.7139
   66SAPC  C215 5478   3.687   0.602   7.659  0.0759 -0.3840 -0.7000
   66SAPC  H15R 5479   3.593   0.627   7.710  0.8036  0.0738  0.4445
   66SAPC  C216 5480   3.809   0.645   7.734  0.1729 -0.2762 -0.4664
   66SAPC  H16R 5481   3.874   0.710   7.672 -1.8326  2.6891  0.4728
   66SAPC  H16S 5482   3.866   0.558   7.774  2.3344  1.8481  1.1485
   66SAPC  C217 5483   3.772   0.722   7.864  0.0829  0.7185 -0.3216
   66SAPC  H17R 5484   3.705   0.650   7.917  1.4392  1.1273  2.0169
   66SAPC  H17S 5485   3.715   0.815   7.845 -1.4191  0.1198  1.1593
   66SAPC  C218 5486   3.890   0.723   7.962  0.1773  0.3867  0.3149
   66SAPC  H18R 5487   3.976   0.774   7.914  1.1515 -0.8125  0.7617
   66SAPC  H18S 5488   3.923   0.621   7.990  0.4280  0.0178 -1.3027
   66SAPC  C219 5489   3.856   0.795   8.098 -0.3505  0.7177 -0.3512
   66SAPC  H19R 5490   3.785   0.730   8.154  1.8841  1.0140  2.9413
   66SAPC  H19S 5491   3.805   0.889   8.070 -2.7625  0.0702  1.7304
   66SAPC  C220 5492   3.979   0.803   8.188  0.0758  0.1709  0.3386
   66SAPC  H20R 5493   3.949   0.854   8.282 -1.7091  1.0102 -0.6556
   66SAPC  H20S 5494   4.056   0.863   8.135 -0.5577 -1.9590 -3.1306
   66SAPC  H20T 5495   4.014   0.701   8.213 -0.0256 -0.5090 -2.1244
   66SAPC   C33 5496   4.117   1.004   6.785 -0.1835 -0.0839 -0.1354
   66SAPC   H3X 5497   4.008   1.018   6.801 -0.2284  0.9980 -1.2622
   66SAPC   H3Y 5498   4.145   1.092   6.723 -0.3991 -1.4344 -2.1866
   66SAPC   C34 5499   4.194   1.011   6.919  1.0115  0.3482  0.2819
   66SAPC   H4X 5500   4.178   1.110   6.967 -0.3826  0.2247  0.1146
   66SAPC   H4Y 5501   4.299   0.981   6.901  0.5943 -1.3794  0.6243
   66SAPC   C35 5502   4.132   0.917   7.026  0.1768  0.4017  0.5434
   66SAPC   H5X 5503   4.129   0.811   6.991  0.3716 -0.4099  2.8896
   66SAPC   H5Y 5504   4.029   0.945   7.055  0.8302  4.1419 -0.5213
   66SAPC   C36 5505   4.208   0.927   7.163  0.0097 -0.7023  0.9624
   66SAPC   H6X 5506   4.217   1.036   7.181 -1.0358 -0.5771  0.8009
   66SAPC   H6Y 5507   4.301   0.868   7.153  0.1406 -0.2896 -0.3397
   66SAPC   C37 5508   4.126   0.874   7.281 -0.1726 -0.0947  0.1673
   66SAPC   H7X 5509   4.084   0.775   7.251  0.6985 -0.8928  1.4860
   66SAPC   H7Y 5510   4.032   0.925   7.308  0.3873  0.6213  0.7806
   66SAPC   C38 5511   4.198   0.844   7.417  0.6135 -0.1508 -0.2856
   66SAPC   H8X 5512   4.243   0.938   7.456 -0.6207  0.7377 -0.9628
   66SAPC   H8Y 5513   4.277   0.771   7.391 -1.8631 -2.8013 -0.6484
   66SAPC   C39 5514   4.120   0.783   7.536 -0.1330 -0.4493  1.0042
   66SAPC   H9X 5515   4.052   0.705   7.494 -1.2458  0.3626  1.2613
   66SAPC   H9Y 5516   4.053   0.868   7.559 -1.1531 -1.3439  1.4152
   66SAPC  C310 5517   4.212   0.734   7.645  0.7701 -0.0563 -0.1747
   66SAPC  H10X 5518   4.289   0.670   7.596  0.9614 -0.0472  0.1121
   66SAPC  H10Y 5519   4.157   0.681   7.725  1.3717 -0.5163 -0.0638
   66SAPC  C311 5520   4.282   0.844   7.734  0.0613  0.0861  0.0745
   66SAPC  H11X 5521   4.204   0.915   7.768  0.8158  0.5090  0.9249
   66SAPC  H11Y 5522   4.348   0.915   7.679 -0.1312  0.9266  0.9202
   66SAPC  C312 5523   4.357   0.775   7.855 -0.2227  0.0397 -0.1434
   66SAPC  H12X 5524   4.450   0.738   7.808 -0.3376 -0.2224 -0.1667
   66SAPC  H12Y 5525   4.303   0.689   7.899 -0.1338  0.1666  0.2146
   66SAPC  C313 5526   4.401   0.868   7.971 -0.3626  0.0731  0.9018
   66SAPC  H13X 5527   4.327   0.946   8.000 -0.0441  0.6930  0.0465
   66SAPC  H13Y 5528   4.486   0.926   7.930 -0.0940  0.9321  2.5991
   66SAPC  C314 5529   4.436   0.793   8.098  0.3718 -0.0403  0.1889
   66SAPC  H14X 5530   4.500   0.703   8.085  1.7596  0.9783 -0.0759
   66SAPC  H14Y 5531   4.338   0.762   8.140 -0.3634  0.5846 -1.0535
   66SAPC  C315 5532   4.506   0.889   8.203 -0.1822  0.4291 -0.2459
   66SAPC  H15X 5533   4.437   0.968   8.240 -1.6334 -1.1122  0.4247
   66SAPC  H15Y 5534   4.587   0.943   8.149  1.5439 -0.8959  0.9503
   66SAPC  C316 5535   4.576   0.821   8.317 -0.4390  0.2526  0.3364
   66SAPC  H16X 5536   4.645   0.893   8.367 -1.5809  1.1707  0.6162
   66SAPC  H16Y 5537   4.634   0.737   8.274  0.7424  1.7921 -1.1195
   66SAPC  C317 5538   4.472   0.763   8.425  0.6977  0.3371 -1.3547
   66SAPC  H17X 5539   4.401   0.692   8.378  0.2169 -0.1976  0.1526
   66SAPC  H17Y 5540   4.400   0.841   8.459  3.8045  3.0742 -0.7893
   66SAPC  C318 5541   4.542   0.716   8.547 -0.0131  0.4409  0.1841
   66SAPC  H18X 5542   4.475   0.661   8.616  0.0098  0.4881  0.2445
   66SAPC  H18Y 5543   4.583   0.798   8.611  3.3305 -0.2906 -0.9157
   66SAPC  H18Z 5544   4.627   0.652   8.515 -2.2692 -3.2403  1.2993
   67SAPC     N 5545   6.087   2.682   5.887 -0.0357  0.4290 -0.4897
   67SAPC   C12 5546   6.095   2.670   6.032  0.8356 -0.4135  0.2448
   67SAPC  H12A 5547   6.124   2.568   6.054  1.7490 -0.4423 -1.0420
   67SAPC  H12B 5548   5.997   2.689   6.072  0.3389 -1.2296 -0.5647
   67SAPC   C13 5549   6.030   2.818   5.847 -0.4671  0.6908  0.0625
   67SAPC  H13A 5550   6.105   2.893   5.868 -2.3831  2.4858  0.5915
   67SAPC  H13B 5551   5.998   2.825   5.744 -2.0243  1.4286  0.5887
   67SAPC  H13C 5552   5.945   2.842   5.909 -0.3778  1.4780 -0.1063
   67SAPC   C14 5553   6.222   2.682   5.833  0.1655  0.6108  0.3457
   67SAPC  H14A 5554   6.282   2.598   5.864 -0.8291  0.2932  1.4310
   67SAPC  H14B 5555   6.226   2.687   5.725  1.9792 -1.0956  0.3076
   67SAPC  H14C 5556   6.276   2.767   5.874  1.4518 -0.0173 -0.0099
   67SAPC   C15 5557   6.006   2.575   5.823 -0.5674  0.4369 -0.5263
   67SAPC  H15A 5558   6.055   2.479   5.823 -0.5311  0.4480  0.5839
   67SAPC  H15B 5559   5.918   2.554   5.882  1.9182 -0.1476  3.1387
   67SAPC  H15C 5560   5.971   2.596   5.723  0.9191 -0.0215 -1.1436
   67SAPC   C11 5561   6.195   2.758   6.111  0.1425  0.1412 -0.4986
   67SAPC  H11A 5562   6.296   2.744   6.066  0.6380 -1.9234  1.1817
   67SAPC  H11B 5563   6.217   2.702   6.204  2.0547  0.3698 -0.7855
   67SAPC     P 5564   6.040   2.930   6.229 -0.3721 -0.4389 -0.2702
   67SAPC   O13 5565   6.054   3.070   6.281 -0.3534  0.5485  0.3920
   67SAPC   O14 5566   5.908   2.893   6.171 -0.8144  0.3595  0.0545
   67SAPC   O12 5567   6.148   2.892   6.124 -0.3376 -0.2085 -0.3955
   67SAPC   O11 5568   6.080   2.834   6.347  0.2825  0.1339  0.5468
   67SAPC    C1 5569   5.986   2.727   6.397 -0.5294 -0.3124  0.1147
   67SAPC    HA 5570   5.934   2.682   6.310 -1.1448 -0.6073  0.6211
   67SAPC    HB 5571   6.043   2.651   6.455 -0.1009  0.1992  0.3645
   67SAPC    C2 5572   5.880   2.785   6.492  0.8585 -0.1235  0.0956
   67SAPC    HS 5573   5.809   2.846   6.434 -0.5680  3.0766  4.8947
   67SAPC   O21 5574   5.950   2.867   6.594  0.0757 -0.4752 -0.2787
   67SAPC   C21 5575   5.870   2.953   6.661  0.0505 -0.0509 -0.7428
   67SAPC   O22 5576   5.746   2.963   6.652  0.2802  0.3358 -0.1163
   67SAPC   C22 5577   5.958   3.023   6.772  0.0620  0.0211 -0.0748
   67SAPC   H2R 5578   6.059   2.985   6.745 -1.2817 -2.3195 -2.0846
   67SAPC   H2S 5579   5.943   3.132   6.758 -1.3144 -0.1860 -0.2447
   67SAPC    C3 5580   5.809   2.666   6.568  0.3187 -1.0659  0.4635
   67SAPC    HX 5581   5.764   2.599   6.491  1.0402  0.6739 -1.5367
   67SAPC    HY 5582   5.719   2.710   6.616  0.4169 -0.6035  0.2332
   67SAPC   O31 5583   5.890   2.587   6.656  0.1105  0.2766 -0.1544
   67SAPC   C31 5584   5.818   2.479   6.721 -0.4601 -0.8491  0.6224
   67SAPC   O32 5585   5.712   2.443   6.679 -0.4497 -1.0340  0.1954
   67SAPC   C32 5586   5.899   2.419   6.838  0.3813  0.1376  0.1824
   67SAPC   H2X 5587   6.000   2.414   6.794  0.0080  0.6399 -0.7592
   67SAPC   H2Y 5588   5.867   2.313   6.846  0.4925 -0.3124 -3.8880
   67SAPC   C23 5589   5.921   2.976   6.916  0.4299 -0.2847  0.0217
   67SAPC   H3R 5590   6.006   2.989   6.986 -0.2113  2.1029  0.4155
   67SAPC   H3S 5591   5.897   2.868   6.909 -1.0093  0.0404 -0.4367
   67SAPC   C24 5592   5.794   3.053   6.968  0.3209 -0.2015  0.4773
   67SAPC   H4R 5593   5.723   3.049   6.882 -0.8182 -3.1698  1.4650
   67SAPC   H4S 5594   5.826   3.158   6.984 -1.4189  0.3325  0.5632
   67SAPC   C25 5595   5.724   2.983   7.080  0.3128 -0.3908  0.4728
   67SAPC   H5R 5596   5.682   2.883   7.062 -0.3137  0.0453 -0.5186
   67SAPC   C26 5597   5.755   3.016   7.207 -0.0913  0.2220  0.4736
   67SAPC   H6R 5598   5.699   2.969   7.289  3.0215 -4.1142  0.2524
   67SAPC   C27 5599   5.848   3.125   7.254 -0.7333 -0.2423 -0.4484
   67SAPC   H7R 5600   5.798   3.211   7.303 -3.4510 -1.5311 -0.8408
   67SAPC   H7S 5601   5.900   3.174   7.170  1.5188 -2.0042 -0.1528
   67SAPC   C28 5602   5.947   3.070   7.355  0.5641  0.1673  0.1043
   67SAPC   H8R 5603   6.044   3.043   7.310  2.3531  4.1293  1.3666
   67SAPC   C29 5604   5.937   3.059   7.492  0.0997 -0.4645 -0.2540
   67SAPC   H9R 5605   6.028   3.012   7.533 -0.0706  0.9885  1.9476
   67SAPC  C210 5606   5.812   3.075   7.577  0.2673 -0.0240  0.1619
   67SAPC  H10R 5607   5.761   3.165   7.536  0.5601 -0.3432 -0.8979
   67SAPC  H10S 5608   5.849   3.113   7.675  0.3163  0.0835  0.1025
   67SAPC  C211 5609   5.709   2.962   7.593  0.2787 -0.1010 -0.4394
   67SAPC  H11R 5610   5.690   2.918   7.494 -0.8131 -2.5163  0.8067
   67SAPC  C212 5611   5.634   2.922   7.691 -0.7878  0.7952  0.3685
   67SAPC  H12R 5612   5.548   2.856   7.673 -0.9501  1.2203 -0.4302
   67SAPC  C213 5613   5.644   2.976   7.830  0.2536 -0.1694  0.2687
   67SAPC  H13R 5614   5.542   3.012   7.857 -0.4330 -1.5034 -0.4493
   67SAPC  H13S 5615   5.715   3.060   7.848  0.8925 -1.1508  2.4234
   67SAPC  C214 5616   5.676   2.850   7.914  0.4152 -0.4788  0.2056
   67SAPC  H14R 5617   5.764   2.795   7.877 -0.4217 -1.5782 -0.1510
   67SAPC  C215 5618   5.612   2.826   8.030  0.9198  0.6705 -0.7405
   67SAPC  H15R 5619   5.653   2.745   8.093  0.3916  0.3803 -0.7732
   67SAPC  C216 5620   5.500   2.912   8.089  0.3024  0.5118 -0.1299
   67SAPC  H16R 5621   5.424   2.847   8.138  1.1856  0.1443  0.7521
   67SAPC  H16S 5622   5.439   2.965   8.012 -0.7465 -0.2598  0.1549
   67SAPC  C217 5623   5.534   3.008   8.199 -0.6806  0.6525  0.1225
   67SAPC  H17R 5624   5.443   3.062   8.234  0.7303  1.7630  2.1449
   67SAPC  H17S 5625   5.607   3.084   8.165 -1.4886  1.0388 -0.7923
   67SAPC  C218 5626   5.603   2.951   8.325 -0.6053  0.4587 -0.2734
   67SAPC  H18R 5627   5.704   2.907   8.307  0.2044  2.1921 -0.1422
   67SAPC  H18S 5628   5.544   2.862   8.352  0.9559 -0.3856  0.3831
   67SAPC  C219 5629   5.596   3.051   8.443 -0.0490  0.1985 -0.0169
   67SAPC  H19R 5630   5.502   3.110   8.432 -0.2859 -0.1437  0.1504
   67SAPC  H19S 5631   5.679   3.124   8.437 -0.6227  0.7103 -2.1532
   67SAPC  C220 5632   5.612   2.978   8.576  0.9639 -0.0500  0.1642
   67SAPC  H20R 5633   5.584   3.043   8.661  0.9815 -0.1943  0.2790
   67SAPC  H20S 5634   5.720   2.957   8.586  0.8770 -1.2584 -1.2701
   67SAPC  H20T 5635   5.556   2.882   8.575  1.7490 -0.5093 -1.2645
   67SAPC   C33 5636   5.902   2.505   6.964 -0.1616 -0.4997  0.1163
   67SAPC   H3X 5637   5.912   2.615   6.954 -1.6781 -0.3331  0.1943
   67SAPC   H3Y 5638   5.994   2.479   7.019  0.8561 -1.6574 -2.0696
   67SAPC   C34 5639   5.785   2.489   7.053  0.2747  0.3489 -0.5394
   67SAPC   H4X 5640   5.767   2.381   7.071  1.9603  0.1932  0.2519
   67SAPC   H4Y 5641   5.690   2.502   6.995 -0.2371  1.4600  0.5367
   67SAPC   C35 5642   5.781   2.565   7.190 -0.0225  0.9207  0.2695
   67SAPC   H5X 5643   5.823   2.667   7.181  0.0865  0.9234  0.7521
   67SAPC   H5Y 5644   5.856   2.514   7.255 -0.1058  1.4266  0.7706
   67SAPC   C36 5645   5.644   2.581   7.264  0.1742 -0.4100  0.1921
   67SAPC   H6X 5646   5.566   2.510   7.228 -2.7063  1.7656  1.9673
   67SAPC   H6Y 5647   5.597   2.677   7.232  0.9314 -1.0152 -2.9144
   67SAPC   C37 5648   5.640   2.583   7.422  0.5639 -0.0931 -0.2610
   67SAPC   H7X 5649   5.531   2.594   7.444  0.3406 -1.0200 -0.8929
   67SAPC   H7Y 5650   5.694   2.676   7.450 -1.9357  1.1147  0.7254
   67SAPC   C38 5651   5.693   2.455   7.485  0.1192  0.4530  0.0217
   67SAPC   H8X 5652   5.802   2.432   7.477  0.1122 -0.0785  1.2384
   67SAPC   H8Y 5653   5.636   2.362   7.462 -0.4308  0.8828 -0.3709
   67SAPC   C39 5654   5.677   2.458   7.637  0.6122 -0.5019 -0.5526
   67SAPC   H9X 5655   5.572   2.469   7.673  0.1336 -2.3012 -1.3412
   67SAPC   H9Y 5656   5.730   2.548   7.675  0.3902 -0.0452 -1.3163
   67SAPC  C310 5657   5.725   2.317   7.699 -0.2891  0.0659 -0.0717
   67SAPC  H10X 5658   5.832   2.298   7.676  0.0496  1.5873  0.2039
   67SAPC  H10Y 5659   5.666   2.237   7.648 -0.5145  0.3226 -0.2154
   67SAPC  C311 5660   5.700   2.300   7.845  0.1259  0.1675 -0.1935
   67SAPC  H11X 5661   5.733   2.198   7.872  0.4967 -0.5117 -3.0413
   67SAPC  H11Y 5662   5.591   2.309   7.865  0.1179  0.1919 -0.2507
   67SAPC  C312 5663   5.779   2.411   7.917  0.1750 -0.0882 -0.7896
   67SAPC  H12X 5664   5.722   2.506   7.919  0.2952 -0.0258 -0.3863
   67SAPC  H12Y 5665   5.874   2.425   7.859  0.5412  1.5848  0.1782
   67SAPC  C313 5666   5.824   2.370   8.054 -0.4743 -0.0149  1.1636
   67SAPC  H13X 5667   5.883   2.277   8.044  1.5564  1.3709 -0.0465
   67SAPC  H13Y 5668   5.735   2.354   8.119 -1.4250  1.0500  0.1535
   67SAPC  C314 5669   5.908   2.479   8.118  0.2284 -0.4142 -0.3798
   67SAPC  H14X 5670   5.843   2.569   8.128 -1.0649 -1.6289  2.4873
   67SAPC  H14Y 5671   5.983   2.515   8.044  1.5198 -0.3024  0.9588
   67SAPC  C315 5672   5.962   2.429   8.244 -0.1341  0.4351  0.5945
   67SAPC  H15X 5673   6.009   2.329   8.247 -0.1445  0.4027 -0.2355
   67SAPC  H15Y 5674   5.879   2.430   8.317  0.4079  2.5483  1.2181
   67SAPC  C316 5675   6.072   2.528   8.300  0.1839 -0.2360  0.2282
   67SAPC  H16X 5676   6.035   2.616   8.355  1.1377  0.4371 -0.1963
   67SAPC  H16Y 5677   6.112   2.571   8.206 -1.0054 -0.2390 -0.2868
   67SAPC  C317 5678   6.173   2.451   8.389 -0.0379 -0.7786 -0.8825
   67SAPC  H17X 5679   6.252   2.521   8.422  0.0721 -1.1321 -0.3975
   67SAPC  H17Y 5680   6.214   2.381   8.313 -0.5006 -0.0586 -1.8111
   67SAPC  C318 5681   6.107   2.379   8.504  0.5428  0.2093 -0.2714
   67SAPC  H18X 5682   6.030   2.307   8.468  0.9682  0.3000 -1.3841
   67SAPC  H18Y 5683   6.058   2.450   8.574 -0.0058 -0.2177 -0.2152
   67SAPC  H18Z 5684   6.188   2.332   8.565  0.0255 -2.7509 -1.7812
   68SAPC     N 5685   4.052   2.029   6.359 -0.0540 -0.5175  0.4373
   68SAPC   C12 5686   4.081   1.885   6.414  0.1405  0.0441 -0.5392
   68SAPC  H12A 5687   4.010   1.813   6.376 -1.7528  2.8912 -2.6043
   68SAPC  H12B 5688   4.062   1.885   6.520 -0.2129  1.4495 -0.5927
   68SAPC   C13 5689   4.161   2.125   6.398  0.7094  0.0116  0.4426
   68SAPC  H13A 5690   4.191   2.139   6.501  1.4886  1.2690  0.0585
   68SAPC  H13B 5691   4.251   2.103   6.342  0.4323  1.7677 -0.7356
   68SAPC  H13C 5692   4.132   2.221   6.357 -3.2329 -1.5574 -0.7027
   68SAPC   C14 5693   4.054   2.018   6.212  0.0457 -0.3764  0.4005
   68SAPC  H14A 5694   4.067   2.119   6.176 -0.3790 -0.3165  0.4120
   68SAPC  H14B 5695   4.143   1.960   6.190  1.4901  0.8115  2.9351
   68SAPC  H14C 5696   3.976   1.958   6.166 -2.0675  2.3468  0.3345
   68SAPC   C15 5697   3.916   2.074   6.410 -0.8734  0.8248  0.6250
   68SAPC  H15A 5698   3.909   2.075   6.518  0.1202 -3.4644  0.8343
   68SAPC  H15B 5699   3.895   2.171   6.369 -1.4143  0.0361 -1.0019
   68SAPC  H15C 5700   3.837   2.013   6.367 -0.1014  0.4606 -0.2959
   68SAPC   C11 5701   4.225   1.833   6.399 -0.2725  0.1811 -0.1727
   68SAPC  H11A 5702   4.232   1.758   6.480  3.5622  2.7737  2.0479
   68SAPC  H11B 5703   4.304   1.907   6.422 -0.4585 -0.1685  1.6196
   68SAPC     P 5704   4.185   1.637   6.216  0.4971 -0.0509  0.4592
   68SAPC   O13 5705   4.036   1.638   6.229 -0.1721  0.3373 -0.0322
   68SAPC   O14 5706   4.243   1.631   6.080  0.2176 -0.7008 -0.4974
   68SAPC   O12 5707   4.247   1.776   6.268  0.0476 -0.1005  0.3908
   68SAPC   O11 5708   4.244   1.522   6.316  0.5820  0.1956  0.0126
   68SAPC    C1 5709   4.389   1.517   6.296  0.4261 -0.4017  0.2018
   68SAPC    HA 5710   4.413   1.474   6.196  0.5687  0.4367 -0.1333
   68SAPC    HB 5711   4.439   1.615   6.311 -0.3998  0.1813 -0.7260
   68SAPC    C2 5712   4.461   1.423   6.402  0.1960  0.0428  0.2711
   68SAPC    HS 5713   4.564   1.409   6.363  0.8351  2.2365  1.0564
   68SAPC   O21 5714   4.387   1.300   6.421  0.0883  0.1887 -0.7151
   68SAPC   C21 5715   4.369   1.226   6.321 -0.1952 -0.0329  0.1216
   68SAPC   O22 5716   4.417   1.235   6.207 -0.0125 -0.5182  0.2220
   68SAPC   C22 5717   4.297   1.110   6.365 -0.3058 -0.2106  0.0572
   68SAPC   H2R 5718   4.267   1.120   6.471 -0.4644  0.3925 -0.0451
   68SAPC   H2S 5719   4.205   1.104   6.304 -0.1241  2.5141 -0.5780
   68SAPC    C3 5720   4.485   1.491   6.541 -0.1680  0.4419  0.0857
   68SAPC    HX 5721   4.544   1.425   6.608 -0.8286 -1.3127 -1.0424
   68SAPC    HY 5722   4.379   1.499   6.572  0.2233  0.8619  1.3584
   68SAPC   O31 5723   4.553   1.611   6.513 -0.1977  0.0515  0.0357
   68SAPC   C31 5724   4.516   1.716   6.584 -0.1858 -0.3149  0.3177
   68SAPC   O32 5725   4.432   1.719   6.672  0.1683  0.1171  0.0816
   68SAPC   C32 5726   4.589   1.842   6.533  0.4394 -0.2733 -0.0218
   68SAPC   H2X 5727   4.527   1.871   6.445 -2.9850 -3.4906  1.2280
   68SAPC   H2Y 5728   4.691   1.809   6.504  0.2884  0.2092 -1.1692
   68SAPC   C23 5729   4.382   0.981   6.346  0.0982 -0.7987 -0.8447
   68SAPC   H3R 5730   4.442   0.989   6.253 -0.0720  0.5502 -0.8412
   68SAPC   H3S 5731   4.313   0.895   6.331  1.3811 -2.3166  1.6709
   68SAPC   C24 5732   4.481   0.938   6.459  0.5583  0.7915  0.4670
   68SAPC   H4R 5733   4.535   0.850   6.419  1.3676  0.8285  1.4688
   68SAPC   H4S 5734   4.415   0.909   6.545 -0.9869  0.3055 -0.8544
   68SAPC   C25 5735   4.579   1.053   6.485 -0.8557 -0.2675  0.1038
   68SAPC   H5R 5736   4.622   1.091   6.391 -0.5474  0.4507  0.5268
   68SAPC   C26 5737   4.609   1.122   6.600 -0.0528 -0.7572  0.1992
   68SAPC   H6R 5738   4.685   1.201   6.603 -2.3288  1.6376 -2.0879
   68SAPC   C27 5739   4.541   1.098   6.734  0.2376  1.2280  0.1928
   68SAPC   H7R 5740   4.430   1.103   6.723 -0.0795 -2.8535  0.8409
   68SAPC   H7S 5741   4.580   1.175   6.804  0.9270 -0.1691  1.3730
   68SAPC   C28 5742   4.579   0.953   6.784 -0.0180 -0.3990 -0.2673
   68SAPC   H8R 5743   4.566   0.875   6.708  3.1742 -0.3902 -0.9094
   68SAPC   C29 5744   4.624   0.913   6.906  0.3729 -0.2948  0.2496
   68SAPC   H9R 5745   4.638   0.808   6.938 -0.9126 -0.4189  0.4534
   68SAPC  C210 5746   4.647   1.016   7.012 -0.2968 -0.3057  0.7520
   68SAPC  H10R 5747   4.547   1.032   7.057 -0.4573  1.7460 -0.2725
   68SAPC  H10S 5748   4.683   1.111   6.966  0.1175 -1.5767 -1.6495
   68SAPC  C211 5749   4.749   0.972   7.112 -0.4995  0.1477 -0.2511
   68SAPC  H11R 5750   4.851   0.967   7.072 -0.7071 -0.2866 -0.7234
   68SAPC  C212 5751   4.732   0.944   7.244  0.2164 -0.6440  0.2716
   68SAPC  H12R 5752   4.827   0.931   7.298  1.5291  0.3302 -1.7401
   68SAPC  C213 5753   4.601   0.960   7.318  0.0917  0.7670  0.4218
   68SAPC  H13R 5754   4.505   0.962   7.262  0.4656 -1.8427 -0.3711
   68SAPC  H13S 5755   4.604   1.063   7.360  0.7595  0.9680 -0.1272
   68SAPC  C214 5756   4.594   0.863   7.436 -0.2068 -0.7501  0.1060
   68SAPC  H14R 5757   4.539   0.773   7.404  0.8590 -1.2030 -0.4595
   68SAPC  C215 5758   4.649   0.863   7.561  0.4658 -0.3021 -0.4361
   68SAPC  H15R 5759   4.630   0.778   7.629  0.0682 -2.6043 -3.3364
   68SAPC  C216 5760   4.737   0.974   7.620  0.4439  0.2994 -0.7288
   68SAPC  H16R 5761   4.718   0.987   7.729  1.0387 -1.6046 -0.3706
   68SAPC  H16S 5762   4.711   1.070   7.571  0.5731 -0.2833 -1.9568
   68SAPC  C217 5763   4.889   0.947   7.604 -0.6855 -0.8952  0.3727
   68SAPC  H17R 5764   4.914   0.953   7.496  2.2117  0.7931  1.0751
   68SAPC  H17S 5765   4.914   0.848   7.649  0.0262  0.0644  2.1173
   68SAPC  C218 5766   4.980   1.045   7.681  0.0462  0.3690 -0.2433
   68SAPC  H18R 5767   4.958   1.143   7.632 -0.5148  1.2683  1.7566
   68SAPC  H18S 5768   5.082   1.002   7.668 -0.4311 -0.8544  0.0635
   68SAPC  C219 5769   4.972   1.043   7.835 -0.7453 -0.5015  0.1434
   68SAPC  H19R 5770   4.970   0.941   7.879  0.9330 -0.3922  0.5250
   68SAPC  H19S 5771   4.874   1.092   7.853 -0.5251  0.3019 -0.7481
   68SAPC  C220 5772   5.076   1.115   7.917  0.0649  0.0966  0.1669
   68SAPC  H20R 5773   5.042   1.128   8.022  1.6135  3.0222  0.3675
   68SAPC  H20S 5774   5.085   1.222   7.887  0.9588  0.1897  0.7379
   68SAPC  H20T 5775   5.173   1.060   7.910 -0.5014 -0.7063 -1.5993
   68SAPC   C33 5776   4.603   1.962   6.646  1.0155  0.0678 -0.2822
   68SAPC   H3X 5777   4.501   1.983   6.683  0.9102  1.1550 -1.1389
   68SAPC   H3Y 5778   4.636   2.057   6.599  2.3260 -1.0069 -1.5793
   68SAPC   C34 5779   4.686   1.915   6.757 -0.1502 -0.1706  0.1535
   68SAPC   H4X 5780   4.785   1.878   6.720  0.6159  0.9127  1.0902
   68SAPC   H4Y 5781   4.638   1.826   6.802 -0.3995 -0.4170 -0.6006
   68SAPC   C35 5782   4.704   2.015   6.882 -0.1311  0.3817  0.5267
   68SAPC   H5X 5783   4.602   2.047   6.913  0.1031  1.3486  0.3158
   68SAPC   H5Y 5784   4.753   2.106   6.841  2.5329  0.6897  4.1299
   68SAPC   C36 5785   4.779   1.968   6.999 -0.1691 -0.2295  0.0295
   68SAPC   H6X 5786   4.796   2.057   7.064 -2.7569 -0.2927  0.8409
   68SAPC   H6Y 5787   4.880   1.932   6.969 -0.0584 -0.2015  0.3641
   68SAPC   C37 5788   4.703   1.882   7.090 -0.5820 -0.2035 -0.1146
   68SAPC   H7X 5789   4.687   1.778   7.053  2.0669 -0.7252  0.1570
   68SAPC   H7Y 5790   4.600   1.924   7.097 -0.4482  0.0076  0.6647
   68SAPC   C38 5791   4.755   1.894   7.239  0.6556  0.6414 -0.0609
   68SAPC   H8X 5792   4.782   1.996   7.275  1.5334  1.0083 -1.7325
   68SAPC   H8Y 5793   4.851   1.838   7.240  0.4459  0.2873  1.0755
   68SAPC   C39 5794   4.656   1.823   7.328 -0.9038 -0.1868 -0.2918
   68SAPC   H9X 5795   4.697   1.719   7.327  0.9643  0.5426 -2.0588
   68SAPC   H9Y 5796   4.550   1.834   7.298 -1.1991 -1.5211  0.2125
   68SAPC  C310 5797   4.658   1.872   7.480 -0.0386 -0.4202  0.2029
   68SAPC  H10X 5798   4.602   1.968   7.494  3.4475  1.3485  2.5931
   68SAPC  H10Y 5799   4.760   1.900   7.513 -0.2711 -0.3390  0.8583
   68SAPC  C311 5800   4.598   1.761   7.568 -0.6415 -0.3911  0.5862
   68SAPC  H11X 5801   4.656   1.666   7.578  1.5454  0.8742  0.4030
   68SAPC  H11Y 5802   4.506   1.720   7.522 -1.1179  0.3461  0.8664
   68SAPC  C312 5803   4.573   1.814   7.711  0.5508  0.4080 -0.0774
   68SAPC  H12X 5804   4.525   1.914   7.705  2.1491  1.3595  2.1922
   68SAPC  H12Y 5805   4.667   1.825   7.770  1.3544  0.9205 -1.4313
   68SAPC  C313 5806   4.486   1.721   7.797  0.0643  0.5070 -0.5042
   68SAPC  H13X 5807   4.541   1.627   7.817 -1.9979 -0.6890 -0.2222
   68SAPC  H13Y 5808   4.400   1.690   7.733  0.4085  1.3848 -1.4183
   68SAPC  C314 5809   4.435   1.787   7.920 -1.0678  0.3166  0.7096
   68SAPC  H14X 5810   4.348   1.852   7.895  0.3167  1.2076 -2.0131
   68SAPC  H14Y 5811   4.520   1.837   7.970  0.9315  0.0039 -2.2158
   68SAPC  C315 5812   4.384   1.687   8.028  0.8702 -0.2758 -0.5981
   68SAPC  H15X 5813   4.437   1.591   8.044 -0.0400 -0.7698 -0.5152
   68SAPC  H15Y 5814   4.285   1.647   8.000 -0.0092  2.3155 -1.3489
   68SAPC  C316 5815   4.392   1.745   8.170 -0.1111  0.4005 -0.1482
   68SAPC  H16X 5816   4.312   1.821   8.177 -1.0894 -0.6832  0.7289
   68SAPC  H16Y 5817   4.489   1.797   8.183  1.5376 -1.8773 -2.7012
   68SAPC  C317 5818   4.378   1.634   8.285  0.5301 -0.0204 -0.3902
   68SAPC  H17X 5819   4.406   1.694   8.374  1.4852 -1.5065  0.3333
   68SAPC  H17Y 5820   4.458   1.559   8.267 -1.2821 -1.7930 -1.2492
   68SAPC  C318 5821   4.245   1.567   8.299  0.1214  0.0705  0.6488
   68SAPC  H18X 5822   4.221   1.531   8.196  0.0639 -0.4001  0.8284
   68SAPC  H18Y 5823   4.172   1.638   8.342  0.4404  0.4538  0.5547
   68SAPC  H18Z 5824   4.249   1.469   8.352 -0.0207 -0.0480  0.4438
   69SLPC     N 5825   2.126   6.730  10.823  0.6506  0.4551  0.5269
   69SLPC   C13 5826   2.053   6.864  10.853  0.0469 -0.0461  0.1581
   69SLPC  H13A 5827   1.953   6.855  10.813 -0.6623 -1.2431  2.1259
   69SLPC  H13B 5828   2.035   6.885  10.957  2.7022  0.5613  0.5390
   69SLPC  H13C 5829   2.101   6.951  10.811 -0.7903  0.2898 -0.1133
   69SLPC   C14 5830   2.249   6.724  10.903 -0.2405  0.7096  0.3485
   69SLPC  H14A 5831   2.229   6.732  11.009  0.6216  0.8211  0.5108
   69SLPC  H14B 5832   2.302   6.630  10.890  1.1599  1.6660 -0.9618
   69SLPC  H14C 5833   2.313   6.804  10.868 -0.1683  0.2907 -0.5022
   69SLPC   C15 5834   2.157   6.699  10.675  0.2875 -0.1482 -0.4852
   69SLPC  H15A 5835   2.221   6.773  10.630 -1.2130 -0.3108 -2.9902
   69SLPC  H15B 5836   2.211   6.606  10.670  0.8989  0.2320 -0.9723
   69SLPC  H15C 5837   2.060   6.684  10.630 -1.0525  1.6727  1.6796
   69SLPC   C12 5838   2.028   6.619  10.862  0.0521  0.3100 -0.8679
   69SLPC  H12A 5839   2.080   6.529  10.835 -0.3672 -0.7073  1.6199
   69SLPC  H12B 5840   1.931   6.627  10.814 -1.1040 -2.5340  0.8564
   69SLPC   C11 5841   1.989   6.618  11.013  0.4965 -0.5522  0.4414
   69SLPC  H11A 5842   2.080   6.633  11.075  0.6579 -1.0864  0.3323
   69SLPC  H11B 5843   1.950   6.521  11.053 -2.2902 -0.1664 -1.2021
   69SLPC     P 5844   1.747   6.697  11.010  0.0092 -0.6495  0.3252
   69SLPC   O13 5845   1.699   6.612  11.123  0.0787  0.4271 -0.2019
   69SLPC   O14 5846   1.667   6.826  10.999 -0.2188 -0.4030 -0.1489
   69SLPC   O12 5847   1.896   6.728  11.039 -0.0519  0.1615  0.1771
   69SLPC   O11 5848   1.748   6.620  10.876 -0.3866 -0.4393 -0.5275
   69SLPC    C1 5849   1.640   6.540  10.824 -0.2154 -0.6041  0.3530
   69SLPC    HA 5850   1.636   6.445  10.883  0.2892 -1.3879 -0.8563
   69SLPC    HB 5851   1.546   6.599  10.825  0.7600  0.9837 -0.3571
   69SLPC    C2 5852   1.653   6.504  10.670  0.1320 -0.2462 -0.5085
   69SLPC    HS 5853   1.755   6.464  10.654  0.4377 -0.8630  2.6209
   69SLPC   O21 5854   1.640   6.626  10.600 -0.0824 -0.5232  0.2939
   69SLPC   C21 5855   1.751   6.696  10.581  0.1824 -0.5724  0.6179
   69SLPC   O22 5856   1.868   6.657  10.597 -0.6845 -0.3295  0.5006
   69SLPC   C22 5857   1.720   6.829  10.510  0.4967 -0.3810 -0.3390
   69SLPC   H2R 5858   1.620   6.835  10.462 -0.8437  2.1498  2.6075
   69SLPC   H2S 5859   1.714   6.895  10.599  1.6327 -0.9757  0.1885
   69SLPC    C3 5860   1.551   6.390  10.631 -0.8100  0.4672  0.1465
   69SLPC    HX 5861   1.453   6.406  10.682 -0.0230 -0.4983  2.0112
   69SLPC    HY 5862   1.591   6.301  10.684  2.4582  1.9537  0.3386
   69SLPC   O31 5863   1.533   6.366  10.491 -0.5609  0.5307 -0.3016
   69SLPC   C31 5864   1.632   6.311  10.418  0.2817 -0.0670  0.6880
   69SLPC   O32 5865   1.741   6.282  10.473  0.1536  0.3241  0.3604
   69SLPC   C32 5866   1.598   6.338  10.269 -0.0088 -0.2613 -0.2772
   69SLPC   H2X 5867   1.565   6.444  10.257 -1.3328 -0.3468  2.2740
   69SLPC   H2Y 5868   1.515   6.279  10.225 -0.3303  0.2894 -0.4235
   69SLPC   C23 5869   1.833   6.905  10.433 -0.4449 -0.4695  0.8021
   69SLPC   H3R 5870   1.926   6.924  10.490  1.0651  1.1446 -2.1001
   69SLPC   H3S 5871   1.798   7.006  10.404  1.1303 -0.3674 -0.8780
   69SLPC   C24 5872   1.892   6.837  10.310 -0.1393  0.3243  0.0364
   69SLPC   H4R 5873   1.933   6.742  10.351 -1.5247  0.4097  1.6451
   69SLPC   H4S 5874   1.970   6.904  10.268  0.4724  0.3589  1.1967
   69SLPC   C25 5875   1.783   6.815  10.201  0.6422  0.3562  0.9802
   69SLPC   H5R 5876   1.718   6.903  10.183  0.2766  0.0038  0.5820
   69SLPC   H5S 5877   1.717   6.729  10.226 -1.3366  1.7193  0.4860
   69SLPC   C26 5878   1.851   6.773  10.071 -0.6690  0.0019  0.1950
   69SLPC   H6R 5879   1.896   6.672  10.080 -1.5190 -0.2528  1.6256
   69SLPC   H6S 5880   1.935   6.846  10.062  0.9038 -1.7548  0.2307
   69SLPC   C27 5881   1.749   6.793   9.955 -0.1436 -0.0903 -0.0555
   69SLPC   H7R 5882   1.718   6.899   9.947 -0.1476 -0.1292 -0.5380
   69SLPC   H7S 5883   1.667   6.721   9.978  0.2129 -0.6604 -0.5432
   69SLPC   C28 5884   1.805   6.755   9.826  0.1488 -0.0642  0.8087
   69SLPC   H8R 5885   1.865   6.662   9.833  1.4486  0.6087 -0.8612
   69SLPC   H8S 5886   1.871   6.844   9.812  0.0142  0.1034  1.2263
   69SLPC   C29 5887   1.718   6.735   9.708 -0.0898  0.2959 -0.4520
   69SLPC   H9R 5888   1.619   6.697   9.739  0.0214  0.0382 -0.4135
   69SLPC  C210 5889   1.755   6.747   9.577  0.0570 -0.5732  0.0844
   69SLPC  H10R 5890   1.684   6.724   9.497  0.7366 -2.6624  0.0440
   69SLPC  C211 5891   1.888   6.772   9.509 -0.4019 -0.0560 -0.1008
   69SLPC  H11R 5892   1.975   6.784   9.578 -0.1636  1.5410 -0.6498
   69SLPC  H11S 5893   1.880   6.872   9.461  1.1430  0.5362  0.8035
   69SLPC  C212 5894   1.927   6.652   9.418  0.1648 -0.4771 -0.1117
   69SLPC  H12R 5895   1.918   6.550   9.457  0.1875 -0.5822 -0.3841
   69SLPC  C213 5896   1.969   6.661   9.294 -0.1211 -0.3133 -0.1212
   69SLPC  H13R 5897   1.992   6.570   9.236 -0.6287 -0.7341  0.3414
   69SLPC  C214 5898   1.973   6.792   9.223 -0.0649 -0.1023 -0.0919
   69SLPC  H14R 5899   2.076   6.807   9.186 -0.4533 -0.1184 -1.2076
   69SLPC  H14S 5900   1.943   6.883   9.278  2.0039  0.5696 -0.0404
   69SLPC  C215 5901   1.870   6.787   9.101 -0.0009 -0.4980  0.5957
   69SLPC  H15R 5902   1.856   6.892   9.069  0.6670 -0.2083  1.2468
   69SLPC  H15S 5903   1.768   6.751   9.126 -1.4992  2.6475 -0.7813
   69SLPC  C216 5904   1.939   6.703   8.985 -0.2652 -0.6107 -0.6971
   69SLPC  H16R 5905   1.945   6.596   9.012 -1.4339 -0.9820 -1.8838
   69SLPC  H16S 5906   2.044   6.729   8.958  0.3782 -2.0952  0.2897
   69SLPC  C217 5907   1.859   6.692   8.853  0.1243 -0.1908 -0.5788
   69SLPC  H17R 5908   1.871   6.789   8.799  0.5484  1.1397  1.8238
   69SLPC  H17S 5909   1.750   6.677   8.871  0.7799 -2.4101  1.8710
   69SLPC  C218 5910   1.914   6.582   8.768 -0.6526  0.3478  0.0007
   69SLPC  H18R 5911   1.942   6.488   8.819  3.2628  0.0844 -2.4652
   69SLPC  H18S 5912   2.002   6.610   8.706 -0.7298 -2.4738 -1.4364
   69SLPC  H18T 5913   1.834   6.545   8.700 -1.0641  0.0988  0.6189
   69SLPC   C33 5914   1.719   6.330  10.168  0.0397 -0.3166  0.6534
   69SLPC   H3X 5915   1.743   6.223  10.153  0.6259 -0.2177  0.8560
   69SLPC   H3Y 5916   1.814   6.369  10.213  1.6028 -2.1200 -1.0007
   69SLPC   C34 5917   1.693   6.399  10.022 -0.4195  0.1790 -0.3622
   69SLPC   H4X 5918   1.788   6.397   9.964 -1.5948  0.9287 -2.3549
   69SLPC   H4Y 5919   1.645   6.499  10.027  2.0952  1.4175 -0.2187
   69SLPC   C35 5920   1.588   6.312   9.955  0.2756 -0.3470  0.3047
   69SLPC   H5X 5921   1.495   6.313  10.016  0.5730  1.2120  0.7440
   69SLPC   H5Y 5922   1.623   6.208   9.938 -0.5159 -1.2328  3.7387
   69SLPC   C36 5923   1.553   6.363   9.813  0.1501  0.5983 -0.7161
   69SLPC   H6X 5924   1.507   6.464   9.813  0.9403  0.9579 -1.1526
   69SLPC   H6Y 5925   1.473   6.297   9.773 -0.3993  1.0918 -0.4269
   69SLPC   C37 5926   1.662   6.364   9.711  0.2704 -0.4044 -0.1661
   69SLPC   H7X 5927   1.704   6.261   9.710 -1.3157 -1.1264  2.3000
   69SLPC   H7Y 5928   1.737   6.445   9.729 -2.3743  2.1722 -0.3864
   69SLPC   C38 5929   1.605   6.376   9.565 -0.1161  0.0764 -0.3493
   69SLPC   H8X 5930   1.580   6.483   9.547 -1.6569  0.2206  2.2774
   69SLPC   H8Y 5931   1.517   6.311   9.542 -0.5404 -1.1737  4.3499
   69SLPC   C39 5932   1.709   6.326   9.469 -0.9278  0.5538 -0.7264
   69SLPC   H9X 5933   1.735   6.218   9.480  0.1706  0.5947 -2.7690
   69SLPC   H9Y 5934   1.808   6.373   9.490 -0.8505 -0.1238  0.5154
   69SLPC  C310 5935   1.661   6.358   9.330  0.1228  0.1661  0.3563
   69SLPC  H10X 5936   1.654   6.469   9.318 -0.4923  0.1048  0.1083
   69SLPC  H10Y 5937   1.566   6.303   9.313  0.1597 -0.1069  1.0206
   69SLPC  C311 5938   1.758   6.310   9.219  0.1809 -0.3303 -0.0243
   69SLPC  H11X 5939   1.795   6.206   9.231 -2.8407 -1.6952 -1.8087
   69SLPC  H11Y 5940   1.842   6.380   9.237  0.6895 -0.8248 -0.4440
   69SLPC  C312 5941   1.712   6.342   9.081 -0.5031 -0.9730  0.1518
   69SLPC  H12X 5942   1.796   6.326   9.010 -2.0678  0.8668 -2.1670
   69SLPC  H12Y 5943   1.674   6.446   9.073  0.2898 -0.7363 -0.5934
   69SLPC  C313 5944   1.597   6.253   9.028 -0.3506  0.0993 -0.1690
   69SLPC  H13X 5945   1.512   6.255   9.100 -1.2707  3.9066 -1.2509
   69SLPC  H13Y 5946   1.633   6.150   9.008 -0.2881 -0.2182  1.5321
   69SLPC  C314 5947   1.546   6.304   8.891  0.0932  0.4619  0.5769
   69SLPC  H14X 5948   1.627   6.293   8.815 -1.0233  2.6322 -0.9869
   69SLPC  H14Y 5949   1.514   6.410   8.899  0.3312  0.6315 -0.6186
   69SLPC  C315 5950   1.434   6.226   8.824 -0.4256 -0.4374 -0.7064
   69SLPC  H15X 5951   1.391   6.280   8.737  1.7690 -0.4939 -1.8505
   69SLPC  H15Y 5952   1.347   6.211   8.893 -1.0153 -1.1328 -1.5918
   69SLPC  C316 5953   1.497   6.090   8.759  0.6710  0.3607 -0.1581
   69SLPC  H16X 5954   1.584   6.049   8.814  0.5384  1.2264  0.7046
   69SLPC  H16Y 5955   1.529   6.119   8.657  0.3804 -1.3042 -0.7481
   69SLPC  C317 5956   1.380   5.987   8.730  0.1076  0.9294  0.4258
   69SLPC  H17X 5957   1.360   5.964   8.837  0.3734 -0.9432  0.0825
   69SLPC  H17Y 5958   1.420   5.907   8.664  3.0522  1.0128  2.0293
   69SLPC  C318 5959   1.253   6.049   8.662 -0.1460  0.2588  0.4284
   69SLPC  H18X 5960   1.196   6.122   8.722  0.3028  0.5487  0.5088
   69SLPC  H18Y 5961   1.185   5.967   8.632 -0.8038  1.2531 -0.8606
   69SLPC  H18Z 5962   1.287   6.095   8.567 -0.1278  0.2062  0.4115
   70SLPC     N 5963   2.672   4.085  10.974 -0.1294 -0.9268 -0.0663
   70SLPC   C13 5964   2.757   3.971  11.024 -1.3338 -0.4651 -0.0475
   70SLPC  H13A 5965   2.816   3.928  10.944 -0.6570 -0.5217  0.4756
   70SLPC  H13B 5966   2.822   4.011  11.100  0.2735 -2.3095 -0.4196
   70SLPC  H13C 5967   2.696   3.891  11.065 -0.8569 -0.4433  0.7165
   70SLPC   C14 5968   2.755   4.191  10.909 -0.3159 -0.2857  0.4277
   70SLPC  H14A 5969   2.689   4.257  10.854  0.6113 -0.8859 -1.4335
   70SLPC  H14B 5970   2.809   4.249  10.983  1.1595 -1.9115  0.6483
   70SLPC  H14C 5971   2.823   4.159  10.832 -0.6911  2.4553 -1.1183
   70SLPC   C15 5972   2.600   4.137  11.088  0.2449 -0.1963  0.0129
   70SLPC  H15A 5973   2.670   4.150  11.169 -0.0786  0.5881  0.1789
   70SLPC  H15B 5974   2.546   4.230  11.075  0.2616  0.1600  2.1562
   70SLPC  H15C 5975   2.528   4.063  11.118  0.5859 -1.1754 -1.5326
   70SLPC   C12 5976   2.579   4.020  10.874 -0.1670  0.1193 -1.0460
   70SLPC  H12A 5977   2.640   3.976  10.796  1.0615 -1.4179  0.7454
   70SLPC  H12B 5978   2.533   4.105  10.826  0.5105 -1.0451 -3.8626
   70SLPC   C11 5979   2.460   3.925  10.913  0.4191  0.5107 -0.2340
   70SLPC  H11A 5980   2.388   3.907  10.830  2.3802  0.3761 -1.9462
   70SLPC  H11B 5981   2.398   3.970  10.993  0.6046 -0.1623  0.2885
   70SLPC     P 5982   2.584   3.695  10.877  0.5711  0.0329 -0.5363
   70SLPC   O13 5983   2.730   3.698  10.907  0.9000 -0.1544 -0.6253
   70SLPC   O14 5984   2.508   3.568  10.899  1.3689  0.3721  0.6998
   70SLPC   O12 5985   2.518   3.810  10.964  0.1700 -0.1143  0.3346
   70SLPC   O11 5986   2.559   3.756  10.734  0.4237 -0.3586 -0.0759
   70SLPC    C1 5987   2.496   3.674  10.631  0.0295  0.4679  0.8877
   70SLPC    HA 5988   2.555   3.581  10.617 -1.8501 -0.8438  1.5260
   70SLPC    HB 5989   2.396   3.630  10.652 -0.5289  0.6838 -1.2121
   70SLPC    C2 5990   2.468   3.753  10.502 -0.1997 -0.3669 -0.4860
   70SLPC    HS 5991   2.419   3.688  10.426 -0.5322  0.3730 -0.9185
   70SLPC   O21 5992   2.591   3.808  10.451 -1.0841 -0.1332  0.5496
   70SLPC   C21 5993   2.660   3.718  10.380 -0.1060  0.8420 -0.3520
   70SLPC   O22 5994   2.625   3.605  10.359 -0.2696 -0.1447 -0.2733
   70SLPC   C22 5995   2.774   3.789  10.325  0.0275 -0.0140 -0.0957
   70SLPC   H2R 5996   2.805   3.883  10.375  0.2586 -0.0697 -0.1333
   70SLPC   H2S 5997   2.860   3.720  10.325  0.6983  0.8156 -0.2085
   70SLPC    C3 5998   2.369   3.870  10.535  0.4119  0.3844 -0.1376
   70SLPC    HX 5999   2.433   3.941  10.592 -0.0039  0.0292  0.7766
   70SLPC    HY 6000   2.292   3.824  10.600  1.7108 -0.3484  0.9021
   70SLPC   O31 6001   2.301   3.931  10.419  0.2472 -0.7797  0.5494
   70SLPC   C31 6002   2.368   4.025  10.355  0.6963 -0.7385  0.7714
   70SLPC   O32 6003   2.477   4.064  10.393 -0.0893 -0.0053  0.0544
   70SLPC   C32 6004   2.296   4.060  10.232  0.7058 -0.8273 -0.4551
   70SLPC   H2X 6005   2.313   4.165  10.202 -0.1854 -0.9352 -1.3596
   70SLPC   H2Y 6006   2.187   4.060  10.252  0.6794  2.7046 -0.3026
   70SLPC   C23 6007   2.728   3.835  10.186  0.0863  0.3440  0.3716
   70SLPC   H3R 6008   2.623   3.871  10.187 -0.8400 -2.2563  0.0037
   70SLPC   H3S 6009   2.726   3.744  10.122  0.0605 -1.2198  2.5647
   70SLPC   C24 6010   2.818   3.940  10.114 -0.2059 -0.1328  0.0547
   70SLPC   H4R 6011   2.915   3.888  10.099 -0.6382 -0.4794 -1.6439
   70SLPC   H4S 6012   2.839   4.027  10.179 -2.2632  0.1913  0.2982
   70SLPC   C25 6013   2.769   4.000   9.981 -0.6443  0.6347 -0.4463
   70SLPC   H5R 6014   2.695   3.930   9.937  1.6258 -1.8792 -0.3963
   70SLPC   H5S 6015   2.854   4.009   9.911 -0.4373 -2.6006 -0.6731
   70SLPC   C26 6016   2.691   4.137   9.984 -0.2863 -0.1504  0.3980
   70SLPC   H6R 6017   2.762   4.222   9.983 -3.5578  2.6921 -0.8864
   70SLPC   H6S 6018   2.615   4.143  10.065 -0.3818 -0.6837  0.3479
   70SLPC   C27 6019   2.591   4.152   9.860  0.9406 -1.3037  0.8278
   70SLPC   H7R 6020   2.542   4.053   9.845 -3.1528  0.6876  0.4262
   70SLPC   H7S 6021   2.660   4.157   9.773  1.8633 -2.6787  1.4392
   70SLPC   C28 6022   2.496   4.271   9.867  0.2167  0.7691 -0.1102
   70SLPC   H8R 6023   2.552   4.366   9.880 -0.2318  1.4035 -2.6373
   70SLPC   H8S 6024   2.434   4.250   9.957  0.6035  0.0123 -0.0183
   70SLPC   C29 6025   2.411   4.277   9.745 -0.0298 -0.6063  0.3698
   70SLPC   H9R 6026   2.400   4.175   9.705  1.0905  0.1217 -1.9122
   70SLPC  C210 6027   2.365   4.382   9.677  0.7781 -0.4428  0.4566
   70SLPC  H10R 6028   2.309   4.364   9.584 -0.6803 -1.0998  1.4392
   70SLPC  C211 6029   2.381   4.527   9.706 -0.0183  0.5544  0.4417
   70SLPC  H11R 6030   2.486   4.563   9.708  0.0978  0.3970 -1.7200
   70SLPC  H11S 6031   2.358   4.540   9.814 -2.2979 -0.8838  0.1843
   70SLPC  C212 6032   2.295   4.627   9.623 -0.1710  0.9976  0.1387
   70SLPC  H12R 6033   2.194   4.642   9.664 -0.5549  2.8689 -1.3817
   70SLPC  C213 6034   2.338   4.684   9.512 -0.3038  0.0475 -0.3668
   70SLPC  H13R 6035   2.272   4.755   9.460 -0.1308  0.3213 -0.2129
   70SLPC  C214 6036   2.467   4.659   9.447 -0.0958 -0.0998 -0.0155
   70SLPC  H14R 6037   2.514   4.572   9.497  0.3174  0.6003  0.8393
   70SLPC  H14S 6038   2.534   4.744   9.474 -0.7948 -0.0123  1.5235
   70SLPC  C215 6039   2.454   4.629   9.299 -0.3645 -0.0991 -0.2815
   70SLPC  H15R 6040   2.397   4.707   9.244 -1.1008 -0.8550 -0.6071
   70SLPC  H15S 6041   2.404   4.534   9.270 -2.5354  0.8683  0.1341
   70SLPC  C216 6042   2.591   4.617   9.226 -0.2494 -0.1829  0.2346
   70SLPC  H16R 6043   2.644   4.527   9.265  1.9016  0.6639 -0.6744
   70SLPC  H16S 6044   2.641   4.712   9.253 -0.4744  0.3174 -1.0750
   70SLPC  C217 6045   2.580   4.603   9.075 -0.0551  0.3906 -0.0168
   70SLPC  H17R 6046   2.553   4.698   9.024  2.0477  0.9675 -0.0711
   70SLPC  H17S 6047   2.497   4.528   9.074 -0.1270  0.4331 -2.4745
   70SLPC  C218 6048   2.697   4.530   9.011  0.5434 -0.1783  0.4561
   70SLPC  H18R 6049   2.695   4.545   8.901  0.2136 -0.9496  0.3538
   70SLPC  H18S 6050   2.696   4.421   9.031  1.7222  0.1740  2.5731
   70SLPC  H18T 6051   2.788   4.581   9.050  0.8067 -0.3681  0.0899
   70SLPC   C33 6052   2.312   3.963  10.116  0.5182  1.0274  0.3079
   70SLPC   H3X 6053   2.268   3.865  10.141  0.3648  1.0848  0.2643
   70SLPC   H3Y 6054   2.419   3.947  10.091  0.5193 -0.4790  1.2279
   70SLPC   C34 6055   2.237   3.998   9.986 -0.4768  0.5754  0.7001
   70SLPC   H4X 6056   2.264   4.099   9.949  0.9584  0.0883  0.3599
   70SLPC   H4Y 6057   2.128   3.996  10.009 -0.8578 -0.8671 -1.1255
   70SLPC   C35 6058   2.263   3.896   9.864 -0.2306 -0.1918  1.0557
   70SLPC   H5X 6059   2.221   3.795   9.884  0.3854 -0.5703  0.4568
   70SLPC   H5Y 6060   2.374   3.896   9.858 -0.3797  1.7307 -3.5125
   70SLPC   C36 6061   2.197   3.951   9.738  1.3691  0.0393  0.2815
   70SLPC   H6X 6062   2.205   3.861   9.673  1.2147 -0.8866  1.5308
   70SLPC   H6Y 6063   2.252   4.035   9.690  0.3891  0.3511 -0.3101
   70SLPC   C37 6064   2.054   3.977   9.766  0.2027  0.1862 -0.1069
   70SLPC   H7X 6065   2.043   4.066   9.833 -1.5753 -0.0041 -0.1099
   70SLPC   H7Y 6066   2.007   3.885   9.807  0.3057 -0.7552 -2.0558
   70SLPC   C38 6067   1.993   4.029   9.635 -0.9696 -0.8060 -0.4225
   70SLPC   H8X 6068   2.046   4.122   9.606  0.4297 -1.4669 -0.0171
   70SLPC   H8Y 6069   1.888   4.057   9.658 -0.6662  0.6340 -0.7926
   70SLPC   C39 6070   2.000   3.929   9.522 -0.2110  0.0103  0.4050
   70SLPC   H9X 6071   1.991   3.830   9.571 -0.8853  0.1197  0.5167
   70SLPC   H9Y 6072   2.095   3.955   9.471 -0.4858 -0.8436 -0.5753
   70SLPC  C310 6073   1.885   3.963   9.420  0.1350 -0.5555  0.6488
   70SLPC  H10X 6074   1.843   4.062   9.449 -1.0829 -0.5559 -1.0686
   70SLPC  H10Y 6075   1.797   3.899   9.441 -1.1928  0.7694 -0.8330
   70SLPC  C311 6076   1.926   3.960   9.272  0.0158 -0.3603 -0.1397
   70SLPC  H11X 6077   1.983   3.865   9.260 -1.3965 -1.1392 -0.8209
   70SLPC  H11Y 6078   1.996   4.043   9.250  1.5295 -1.7426 -0.7039
   70SLPC  C312 6079   1.811   3.974   9.172  0.3345  0.1918 -0.9014
   70SLPC  H12X 6080   1.745   4.060   9.196  1.5829  0.2552  2.6474
   70SLPC  H12Y 6081   1.741   3.888   9.187  0.9952 -0.3834 -1.0973
   70SLPC  C313 6082   1.853   3.991   9.025  0.7738  0.7314  0.2208
   70SLPC  H13X 6083   1.891   4.095   9.017 -0.0821  1.0076 -0.4383
   70SLPC  H13Y 6084   1.758   3.981   8.968  0.0472  1.1628  1.3426
   70SLPC  C314 6085   1.960   3.892   8.990  0.1462  0.1950 -0.2234
   70SLPC  H14X 6086   1.918   3.793   9.019 -1.6370  1.2255  0.7725
   70SLPC  H14Y 6087   2.054   3.896   9.050 -0.3046 -0.6787  0.5594
   70SLPC  C315 6088   1.977   3.884   8.835  0.4844  0.1124 -0.6668
   70SLPC  H15X 6089   1.886   3.845   8.786 -0.7517  2.1593 -0.0676
   70SLPC  H15Y 6090   2.051   3.801   8.828  0.8701  0.4110 -0.1997
   70SLPC  C316 6091   2.030   4.009   8.766  0.1474  0.3836  0.1230
   70SLPC  H16X 6092   2.117   4.047   8.823  0.0207 -0.6186  1.0071
   70SLPC  H16Y 6093   1.949   4.084   8.780 -0.4729 -0.6928  2.5839
   70SLPC  C317 6094   2.054   3.999   8.617  0.1243  0.1782  0.1009
   70SLPC  H17X 6095   2.072   4.094   8.561 -2.2105  1.2576  1.0956
   70SLPC  H17Y 6096   1.954   3.969   8.578  1.7546 -4.6924 -0.5771
   70SLPC  C318 6097   2.161   3.892   8.576  0.1671 -0.7942 -0.0893
   70SLPC  H18X 6098   2.254   3.913   8.634 -0.5702  0.9167  0.4908
   70SLPC  H18Y 6099   2.186   3.884   8.468  2.5914 -0.8563  0.4313
   70SLPC  H18Z 6100   2.135   3.788   8.607 -1.3266 -0.1245  0.9462
   71SLPC     N 6101   2.315   1.786  10.950  0.5889  0.2404  0.6041
   71SLPC   C13 6102   2.464   1.808  10.951  0.0864 -0.3727  0.1671
   71SLPC  H13A 6103   2.516   1.742  10.883 -2.2901 -1.9900 -0.1270
   71SLPC  H13B 6104   2.482   1.908  10.914 -0.4748 -0.4635 -0.3639
   71SLPC  H13C 6105   2.497   1.799  11.053  0.7131  0.5614  0.0557
   71SLPC   C14 6106   2.253   1.868  11.051  0.9920 -0.1148  0.6622
   71SLPC  H14A 6107   2.278   1.967  11.017  0.2429 -0.5924 -1.3750
   71SLPC  H14B 6108   2.146   1.861  11.037  0.9462 -0.1124  0.9878
   71SLPC  H14C 6109   2.296   1.864  11.150 -0.7722  1.3642  1.5154
   71SLPC   C15 6110   2.300   1.642  10.976  0.0500  0.6728 -0.2045
   71SLPC  H15A 6111   2.306   1.622  11.082  0.0623  0.8330 -0.1743
   71SLPC  H15B 6112   2.212   1.589  10.944  1.7666 -2.2613 -0.2308
   71SLPC  H15C 6113   2.376   1.587  10.923  0.6910 -1.4271  2.7436
   71SLPC   C12 6114   2.259   1.818  10.814 -0.4965 -0.2127 -0.4450
   71SLPC  H12A 6115   2.157   1.782  10.818 -0.2767 -0.6234  2.0431
   71SLPC  H12B 6116   2.312   1.756  10.743 -1.2504 -0.6495 -0.6327
   71SLPC   C11 6117   2.272   1.968  10.766  0.4250  0.3722  0.8609
   71SLPC  H11A 6118   2.220   1.975  10.668 -0.2040 -0.1820  1.1526
   71SLPC  H11B 6119   2.378   1.983  10.735 -0.1172 -0.2302 -1.3952
   71SLPC     P 6120   2.067   2.120  10.835 -0.0037  0.0578 -0.0744
   71SLPC   O13 6121   1.992   2.034  10.740 -0.1071  0.3206 -0.0740
   71SLPC   O14 6122   2.020   2.147  10.974  0.1995 -0.1107 -0.4943
   71SLPC   O12 6123   2.214   2.063  10.852 -0.6827 -0.1296 -0.0969
   71SLPC   O11 6124   2.084   2.260  10.781  0.3717  0.2152  0.0230
   71SLPC    C1 6125   2.193   2.299  10.696  0.6819 -0.1558 -0.2915
   71SLPC    HA 6126   2.233   2.401  10.717 -1.7815  1.0025 -0.9713
   71SLPC    HB 6127   2.279   2.229  10.696  0.4511 -0.4785  1.7847
   71SLPC    C2 6128   2.150   2.320  10.548 -0.2125  0.3852 -0.7255
   71SLPC    HS 6129   2.068   2.394  10.550 -0.0767  0.5255 -0.2476
   71SLPC   O21 6130   2.106   2.201  10.484  0.4257 -0.3532 -0.1418
   71SLPC   C21 6131   1.994   2.211  10.413 -0.1494  0.0758  0.9499
   71SLPC   O22 6132   1.935   2.314  10.390  0.0923  0.1374  0.0659
   71SLPC   C22 6133   1.945   2.073  10.377  0.1223  0.5789  0.5235
   71SLPC   H2R 6134   1.954   2.012  10.470 -0.4016 -1.0159 -0.4571
   71SLPC   H2S 6135   1.838   2.092  10.355  0.1776 -0.1496 -0.3907
   71SLPC    C3 6136   2.253   2.388  10.451 -0.0858 -0.1975  0.6024
   71SLPC    HX 6137   2.354   2.342  10.458 -0.3148 -1.0200 -1.2660
   71SLPC    HY 6138   2.283   2.491  10.480 -2.1851  0.3215  1.0131
   71SLPC   O31 6139   2.199   2.392  10.314 -0.1289 -0.1864  0.3661
   71SLPC   C31 6140   2.153   2.509  10.271  0.9493  0.0400 -0.2977
   71SLPC   O32 6141   2.148   2.610  10.335 -0.2472  0.2473  0.0575
   71SLPC   C32 6142   2.093   2.492  10.136 -0.2022  0.4804  0.0464
   71SLPC   H2X 6143   2.025   2.405  10.142  0.0993  0.2297 -0.1556
   71SLPC   H2Y 6144   2.169   2.472  10.057 -0.1204 -3.6361  1.0661
   71SLPC   C23 6145   2.026   2.012  10.256 -0.4049  0.1710 -1.3254
   71SLPC   H3R 6146   2.006   1.903  10.256 -0.3463  0.1189  1.5691
   71SLPC   H3S 6147   2.133   2.024  10.281 -1.2678 -0.2129  2.8887
   71SLPC   C24 6148   2.004   2.061  10.116 -0.2500 -0.3783 -0.2983
   71SLPC   H4R 6149   2.007   2.172  10.108 -1.2183 -0.4219 -1.4804
   71SLPC   H4S 6150   1.898   2.038  10.092 -0.5725  1.1253 -0.3382
   71SLPC   C25 6151   2.116   2.014  10.017  0.1835 -0.2430  0.0666
   71SLPC   H5R 6152   2.126   1.903  10.023  0.6365 -0.3248 -1.8138
   71SLPC   H5S 6153   2.209   2.058  10.060 -0.3082  1.6193 -0.7349
   71SLPC   C26 6154   2.094   2.062   9.877 -0.2962  0.1005 -0.0411
   71SLPC   H6R 6155   2.076   2.171   9.868 -3.2113 -0.1691  1.6436
   71SLPC   H6S 6156   1.998   2.019   9.840 -1.5757  1.5057  1.5560
   71SLPC   C27 6157   2.211   2.027   9.782  0.5398  0.0593 -0.0407
   71SLPC   H7R 6158   2.228   1.918   9.772 -1.3183 -0.2658  0.0534
   71SLPC   H7S 6159   2.299   2.066   9.836  0.9321 -2.1201  0.9179
   71SLPC   C28 6160   2.189   2.104   9.654 -0.2251 -0.1500 -0.1968
   71SLPC   H8R 6161   2.289   2.114   9.606  0.0540  2.9650  0.9649
   71SLPC   H8S 6162   2.164   2.210   9.673  2.3776  0.3108  0.8402
   71SLPC   C29 6163   2.093   2.038   9.560  0.1451 -0.2311 -0.4391
   71SLPC   H9R 6164   1.988   2.066   9.578 -0.2332 -0.8505 -1.5932
   71SLPC  C210 6165   2.121   1.968   9.449 -0.1768  1.2324  0.3643
   71SLPC  H10R 6166   2.038   1.922   9.394  0.5956 -0.8651  0.8931
   71SLPC  C211 6167   2.252   1.952   9.379  0.0368 -0.1204 -0.7727
   71SLPC  H11R 6168   2.240   1.864   9.312 -0.3003 -0.1822 -0.6294
   71SLPC  H11S 6169   2.319   1.920   9.462 -0.4052 -0.2470 -0.4671
   71SLPC  C212 6170   2.323   2.069   9.323 -0.5968 -1.0141  0.1669
   71SLPC  H12R 6171   2.387   2.125   9.394  0.6467  0.8230 -2.3383
   71SLPC  C213 6172   2.312   2.116   9.203 -0.3743  0.5558  0.5029
   71SLPC  H13R 6173   2.367   2.205   9.169  1.6170 -1.4355 -1.6698
   71SLPC  C214 6174   2.219   2.047   9.097 -0.4015 -0.5414 -0.1477
   71SLPC  H14R 6175   2.175   2.118   9.024 -4.1712 -1.9656  0.6114
   71SLPC  H14S 6176   2.129   1.996   9.138 -1.8410  2.6350  0.8163
   71SLPC  C215 6177   2.315   1.954   9.015 -0.0780 -0.1788  0.5406
   71SLPC  H15R 6178   2.355   1.867   9.072  0.4350 -0.3231 -0.0350
   71SLPC  H15S 6179   2.402   1.993   8.957  0.1288 -2.0201 -0.4401
   71SLPC  C216 6180   2.239   1.888   8.901  0.0650  0.0294  0.0646
   71SLPC  H16R 6181   2.229   1.964   8.821 -1.5521  2.7088  2.6768
   71SLPC  H16S 6182   2.138   1.859   8.937 -0.5096  0.6796 -0.9966
   71SLPC  C217 6183   2.303   1.759   8.848  0.7018  0.2083  0.2057
   71SLPC  H17R 6184   2.311   1.677   8.923  1.3712  1.5655  1.6387
   71SLPC  H17S 6185   2.405   1.783   8.810  1.3871  0.5107  2.1720
   71SLPC  C218 6186   2.241   1.697   8.725 -0.1417 -0.2482 -0.0492
   71SLPC  H18R 6187   2.196   1.777   8.662  0.4192  0.2103  0.1378
   71SLPC  H18S 6188   2.168   1.619   8.756 -0.6921  0.7775  1.2941
   71SLPC  H18T 6189   2.312   1.645   8.659  1.7616  1.4197  0.6425
   71SLPC   C33 6190   1.994   2.605  10.093  0.0967 -0.0071 -0.5371
   71SLPC   H3X 6191   2.043   2.705  10.098 -1.7942  0.8748  1.1095
   71SLPC   H3Y 6192   1.921   2.620  10.175 -1.0856  1.8890 -1.8855
   71SLPC   C34 6193   1.926   2.575   9.953  0.4968  0.2559  0.0836
   71SLPC   H4X 6194   1.858   2.662   9.944  0.4887  0.3697  1.1406
   71SLPC   H4Y 6195   1.860   2.490   9.980  0.2843  0.7895  1.2805
   71SLPC   C35 6196   2.019   2.559   9.838  0.2348  0.6620 -0.0862
   71SLPC   H5X 6197   2.076   2.464   9.849 -2.3615 -0.9291  0.0874
   71SLPC   H5Y 6198   2.089   2.644   9.848 -0.0225  0.8542  0.1015
   71SLPC   C36 6199   1.951   2.580   9.707  0.1879  0.9741  0.0446
   71SLPC   H6X 6200   2.027   2.611   9.632  0.5657 -0.4758 -0.1859
   71SLPC   H6Y 6201   1.879   2.664   9.717  0.3872  1.2733 -0.9108
   71SLPC   C37 6202   1.872   2.465   9.644 -0.5860  0.0605 -0.4141
   71SLPC   H7X 6203   1.776   2.458   9.699  0.0018  1.2073  0.7745
   71SLPC   H7Y 6204   1.931   2.371   9.651 -1.2484 -0.4852 -1.8573
   71SLPC   C38 6205   1.829   2.498   9.505  0.1242 -0.3458 -0.4707
   71SLPC   H8X 6206   1.800   2.408   9.446  1.0372 -0.0196 -1.4529
   71SLPC   H8Y 6207   1.908   2.553   9.449  0.3751  2.2339  2.2959
   71SLPC   C39 6208   1.704   2.587   9.510  0.7505  0.8653 -0.3263
   71SLPC   H9X 6209   1.727   2.676   9.571  0.1299  2.4902 -2.3968
   71SLPC   H9Y 6210   1.626   2.529   9.564  1.9700 -0.6861 -0.1827
   71SLPC  C310 6211   1.642   2.628   9.377  0.0721  0.3534  0.2839
   71SLPC  H10X 6212   1.714   2.680   9.310  1.3049 -0.6475  0.8150
   71SLPC  H10Y 6213   1.555   2.696   9.391  0.1552  0.8141 -1.2845
   71SLPC  C311 6214   1.593   2.505   9.299  0.1583  0.8982 -0.0468
   71SLPC  H11X 6215   1.517   2.445   9.354  0.7881  1.9363  1.9742
   71SLPC  H11Y 6216   1.671   2.429   9.278  0.4751  0.7329  1.7084
   71SLPC  C312 6217   1.534   2.537   9.157  0.7056  0.3822  0.1739
   71SLPC  H12X 6218   1.588   2.620   9.106 -0.8710 -0.2629 -2.6287
   71SLPC  H12Y 6219   1.427   2.563   9.170  0.4677  0.2692 -1.4041
   71SLPC  C313 6220   1.539   2.418   9.058  0.3090 -0.0331 -0.3377
   71SLPC  H13X 6221   1.511   2.326   9.114  0.2108 -0.5092 -1.1645
   71SLPC  H13Y 6222   1.644   2.411   9.025  0.8690 -1.2217  1.6041
   71SLPC  C314 6223   1.458   2.436   8.930 -0.2084  0.3475  0.2137
   71SLPC  H14X 6224   1.491   2.523   8.869 -1.4172  0.8096  0.2057
   71SLPC  H14Y 6225   1.351   2.437   8.957 -0.0461 -1.3494  0.9899
   71SLPC  C315 6226   1.476   2.317   8.833  0.0035  0.0497  0.2283
   71SLPC  H15X 6227   1.393   2.316   8.759 -0.7533  0.5034  1.0568
   71SLPC  H15Y 6228   1.465   2.224   8.893  1.9317 -0.9204 -0.8904
   71SLPC  C316 6229   1.607   2.312   8.756 -0.3819  0.6442 -0.8578
   71SLPC  H16X 6230   1.687   2.304   8.833  0.2343 -0.5850 -1.6075
   71SLPC  H16Y 6231   1.640   2.400   8.696  0.2174  0.9030 -0.1570
   71SLPC  C317 6232   1.615   2.196   8.660  0.1213 -0.3487 -0.5273
   71SLPC  H17X 6233   1.528   2.201   8.590  0.4876 -0.2360 -0.9733
   71SLPC  H17Y 6234   1.601   2.099   8.712 -3.5507 -1.7083 -3.8502
   71SLPC  C318 6235   1.734   2.205   8.572  0.7044 -0.2985 -0.7684
   71SLPC  H18X 6236   1.757   2.106   8.527  1.5284 -0.2019 -0.5602
   71SLPC  H18Y 6237   1.823   2.236   8.631 -1.2737  1.6698  1.2789
   71SLPC  H18Z 6238   1.717   2.280   8.491 -1.7618  0.8486  0.7453
   72SLPC     N 6239   3.491   0.717  11.098  0.3625  0.9277  0.1803
   72SLPC   C13 6240   3.487   0.804  11.219  0.0223  0.3645 -0.1849
   72SLPC  H13A 6241   3.583   0.813  11.269 -0.3345 -0.8414  0.7138
   72SLPC  H13B 6242   3.447   0.902  11.195  2.6342  1.7285  0.7442
   72SLPC  H13C 6243   3.423   0.759  11.292  2.2476 -1.2703  0.8258
   72SLPC   C14 6244   3.523   0.580  11.138 -1.1179  0.7575 -0.0050
   72SLPC  H14A 6245   3.631   0.574  11.148 -1.0587  2.0189  0.1245
   72SLPC  H14B 6246   3.471   0.545  11.225 -1.7411  0.2034 -0.5911
   72SLPC  H14C 6247   3.513   0.511  11.055  0.0194 -0.0379  0.4980
   72SLPC   C15 6248   3.575   0.759  10.987 -0.0379 -0.1643  0.1282
   72SLPC  H15A 6249   3.674   0.792  11.014 -0.6161  0.4019  1.5774
   72SLPC  H15B 6250   3.573   0.674  10.920  2.5097  0.0196 -0.2503
   72SLPC  H15C 6251   3.525   0.842  10.939  1.6777  1.2729  0.7813
   72SLPC   C12 6252   3.345   0.702  11.044  0.2303 -0.1225  0.0080
   72SLPC  H12A 6253   3.280   0.669  11.123  0.0187 -2.0816 -0.9442
   72SLPC  H12B 6254   3.357   0.622  10.972  2.4225  0.5854 -0.4708
   72SLPC   C11 6255   3.270   0.831  10.992 -0.6433  0.6810 -0.6564
   72SLPC  H11A 6256   3.257   0.896  11.082 -0.5800  1.4275 -1.1856
   72SLPC  H11B 6257   3.169   0.791  10.971 -0.5156 -2.3957  3.8225
   72SLPC     P 6258   3.302   0.859  10.734 -0.1638  0.2098  0.2034
   72SLPC   O13 6259   3.165   0.912  10.695  0.6822 -0.3091 -0.3257
   72SLPC   O14 6260   3.412   0.917  10.656  0.5449 -0.0715 -0.2424
   72SLPC   O12 6261   3.330   0.897  10.877 -0.1184 -0.6001  0.3181
   72SLPC   O11 6262   3.307   0.699  10.737  0.2746 -0.3762  0.6092
   72SLPC    C1 6263   3.412   0.616  10.708 -0.6087 -0.1367 -0.2733
   72SLPC    HA 6264   3.511   0.666  10.702 -1.6919  1.9664 -1.1325
   72SLPC    HB 6265   3.416   0.543  10.791 -1.8296  0.1492  0.0488
   72SLPC    C2 6266   3.385   0.524  10.585 -0.2434 -0.5248 -0.6897
   72SLPC    HS 6267   3.475   0.469  10.551  0.5088 -0.7398  1.5976
   72SLPC   O21 6268   3.337   0.601  10.479  0.1483  0.2545  0.1292
   72SLPC   C21 6269   3.433   0.671  10.412  0.8596  0.5758  0.3284
   72SLPC   O22 6270   3.553   0.672  10.434  0.1850 -0.1615  0.6599
   72SLPC   C22 6271   3.368   0.733  10.291 -0.8200 -0.0569 -0.4069
   72SLPC   H2R 6272   3.312   0.654  10.236 -1.5428  0.8203 -0.9352
   72SLPC   H2S 6273   3.288   0.800  10.328 -0.3914 -0.3415  1.0708
   72SLPC    C3 6274   3.273   0.423  10.627  0.8503 -0.8152 -0.1297
   72SLPC    HX 6275   3.201   0.497  10.665  0.0894 -0.1520 -2.7629
   72SLPC    HY 6276   3.292   0.344  10.703 -0.0790 -1.6850 -0.7889
   72SLPC   O31 6277   3.214   0.354  10.516 -0.0115 -0.2582 -0.3533
   72SLPC   C31 6278   3.111   0.414  10.452 -0.5308 -0.1900 -0.4243
   72SLPC   O32 6279   3.053   0.516  10.489  0.4732 -0.2803  0.1201
   72SLPC   C32 6280   3.087   0.332  10.327 -0.9270 -0.5117  0.0762
   72SLPC   H2X 6281   3.044   0.232  10.350 -0.7982 -0.7536 -0.6920
   72SLPC   H2Y 6282   3.184   0.310  10.277 -1.3427 -0.9664 -0.5449
   72SLPC   C23 6283   3.461   0.825  10.210 -0.0654  0.1313 -0.6280
   72SLPC   H3R 6284   3.548   0.764  10.177  0.2828  0.6407 -0.6608
   72SLPC   H3S 6285   3.512   0.899  10.276 -2.2095  1.4370 -0.3961
   72SLPC   C24 6286   3.394   0.878  10.085  0.5268  0.8240 -0.2871
   72SLPC   H4R 6287   3.335   0.796  10.038 -0.4423  1.4941 -0.2588
   72SLPC   H4S 6288   3.476   0.910  10.017  0.8965  1.2784  0.3721
   72SLPC   C25 6289   3.299   0.999  10.098  0.3078  0.3739  1.3064
   72SLPC   H5R 6290   3.357   1.086  10.136  0.6521  1.3094 -1.2476
   72SLPC   H5S 6291   3.230   0.965  10.178  0.3211 -0.7373  0.8573
   72SLPC   C26 6292   3.209   1.024   9.973  0.2959 -0.2394  0.3702
   72SLPC   H6R 6293   3.199   0.927   9.919 -1.0639 -0.2266  0.5731
   72SLPC   H6S 6294   3.262   1.099   9.910 -0.6861 -0.4245 -0.7035
   72SLPC   C27 6295   3.066   1.074   9.998 -0.1483 -0.5599  0.3476
   72SLPC   H7R 6296   3.070   1.152  10.077  0.7426  0.5115 -0.7461
   72SLPC   H7S 6297   2.997   0.998  10.042 -2.6566  2.0815  1.1056
   72SLPC   C28 6298   2.988   1.123   9.871 -0.6501 -0.6651  0.3298
   72SLPC   H8R 6299   2.886   1.159   9.896 -0.3372  0.4245  0.0622
   72SLPC   H8S 6300   2.964   1.034   9.810 -2.1319 -1.0125  1.3847
   72SLPC   C29 6301   3.067   1.226   9.790  0.4381  0.5284 -0.2822
   72SLPC   H9R 6302   3.084   1.317   9.850 -2.3330 -0.2404  1.7675
   72SLPC  C210 6303   3.113   1.214   9.662  0.5488  0.0171 -0.0920
   72SLPC  H10R 6304   3.169   1.298   9.619  2.9096 -1.9921 -1.0147
   72SLPC  C211 6305   3.107   1.092   9.578  0.4577  0.4731  0.4995
   72SLPC  H11R 6306   3.062   1.119   9.479 -3.9472  0.2215  2.3286
   72SLPC  H11S 6307   3.030   1.021   9.614 -0.4799  0.2286 -1.8534
   72SLPC  C212 6308   3.238   1.018   9.566 -0.5321  0.0544 -0.5403
   72SLPC  H12R 6309   3.301   1.035   9.655 -1.9656  0.2512  0.4554
   72SLPC  C213 6310   3.277   0.939   9.465  0.1286  0.8068 -0.4410
   72SLPC  H13R 6311   3.376   0.894   9.480  0.1927  1.3337  0.7687
   72SLPC  C214 6312   3.215   0.888   9.341  0.1211  0.0271  0.1244
   72SLPC  H14R 6313   3.107   0.871   9.361  0.2881 -1.9316 -0.5859
   72SLPC  H14S 6314   3.262   0.792   9.311  2.3102  0.8978  0.6610
   72SLPC  C215 6315   3.243   0.987   9.216  0.1644 -0.0876 -0.0085
   72SLPC  H15R 6316   3.352   0.994   9.196 -0.2215  2.9310 -1.2948
   72SLPC  H15S 6317   3.220   1.088   9.255 -1.1740  0.2152 -1.5561
   72SLPC  C216 6318   3.172   0.950   9.082 -0.8135 -0.1739 -0.4208
   72SLPC  H16R 6319   3.067   0.943   9.116  0.1641 -2.1555  2.3102
   72SLPC  H16S 6320   3.209   0.850   9.052 -0.7565 -0.7254  1.4278
   72SLPC  C217 6321   3.196   1.059   8.979  0.2152  0.2274 -0.4581
   72SLPC  H17R 6322   3.171   1.160   9.018 -1.2288 -0.9295  1.7363
   72SLPC  H17S 6323   3.136   1.034   8.889  0.2769 -1.2907 -0.0915
   72SLPC  C218 6324   3.340   1.046   8.929 -0.5766  0.4838  0.0634
   72SLPC  H18R 6325   3.370   0.943   8.900 -0.0667  0.4900  0.5583
   72SLPC  H18S 6326   3.410   1.086   9.005  1.9297 -1.0014 -1.3932
   72SLPC  H18T 6327   3.353   1.106   8.836  0.8138  2.3305  1.4172
   72SLPC   C33 6328   2.986   0.407  10.238 -0.0744  0.1986 -0.6432
   72SLPC   H3X 6329   2.893   0.434  10.293 -0.9781  1.8791 -2.8884
   72SLPC   H3Y 6330   2.950   0.341  10.156 -0.2161  0.1359 -0.5312
   72SLPC   C34 6331   3.054   0.533  10.175 -0.1956 -0.4470 -0.3202
   72SLPC   H4X 6332   3.138   0.497  10.111  0.1914  0.2082 -0.1866
   72SLPC   H4Y 6333   3.101   0.585  10.261 -0.4434  0.5959 -0.8136
   72SLPC   C35 6334   2.951   0.627  10.106  0.5840  0.5821  0.7314
   72SLPC   H5X 6335   2.909   0.695  10.183 -2.0994 -1.0931  0.8109
   72SLPC   H5Y 6336   2.867   0.564  10.069 -0.9485  1.1806  3.1024
   72SLPC   C36 6337   3.004   0.712   9.996 -0.6001 -0.6106 -0.3688
   72SLPC   H6X 6338   3.103   0.748  10.029 -1.4859 -1.2531  3.2561
   72SLPC   H6Y 6339   2.931   0.796   9.986  0.8622  0.6857 -0.3308
   72SLPC   C37 6340   2.996   0.637   9.860  0.6856  0.4069 -0.5769
   72SLPC   H7X 6341   2.894   0.597   9.840  0.6267  0.6614 -0.7891
   72SLPC   H7Y 6342   3.062   0.548   9.859  0.3634  0.1663 -1.7282
   72SLPC   C38 6343   3.005   0.726   9.730 -0.6004 -0.8522  0.0209
   72SLPC   H8X 6344   3.104   0.774   9.742 -0.3380 -1.1139 -1.1014
   72SLPC   H8Y 6345   2.925   0.803   9.719  0.2340  0.2020  1.1000
   72SLPC   C39 6346   3.017   0.638   9.610  0.6457 -0.2045  0.2969
   72SLPC   H9X 6347   3.090   0.557   9.630  1.8393  1.1757  1.6878
   72SLPC   H9Y 6348   3.054   0.712   9.535 -0.2584 -0.8001 -0.7624
   72SLPC  C310 6349   2.890   0.584   9.549 -0.1813 -0.3157  0.5405
   72SLPC  H10X 6350   2.812   0.663   9.543 -2.0129 -1.8937  2.8109
   72SLPC  H10Y 6351   2.839   0.513   9.617 -0.3948 -0.5418  0.1429
   72SLPC  C311 6352   2.918   0.503   9.419  0.0766 -0.4715 -0.1872
   72SLPC  H11X 6353   2.820   0.453   9.400 -0.3374 -0.2250  1.2740
   72SLPC  H11Y 6354   2.983   0.416   9.442  0.8103 -0.1054 -0.8613
   72SLPC  C312 6355   2.956   0.583   9.298  0.0045  0.3376  0.0536
   72SLPC  H12X 6356   3.050   0.640   9.315  1.6835 -2.2053 -0.4713
   72SLPC  H12Y 6357   2.879   0.658   9.267 -1.3062 -1.4189 -1.0499
   72SLPC  C313 6358   2.986   0.486   9.183  0.0976 -0.6393 -0.3211
   72SLPC  H13X 6359   2.894   0.426   9.167  1.0973 -2.6770  1.4623
   72SLPC  H13Y 6360   3.074   0.424   9.209  0.4659  0.0164  0.0255
   72SLPC  C314 6361   3.036   0.563   9.052 -0.7241  0.5458 -0.7587
   72SLPC  H14X 6362   3.125   0.625   9.077 -0.7624 -0.3090  1.6515
   72SLPC  H14Y 6363   2.958   0.634   9.017 -1.7681 -0.1875  0.0531
   72SLPC  C315 6364   3.048   0.477   8.927 -0.3046  0.2640 -0.1481
   72SLPC  H15X 6365   2.963   0.407   8.911  1.3694 -1.1261 -3.3860
   72SLPC  H15Y 6366   3.146   0.424   8.931 -0.3236  0.0797 -1.5866
   72SLPC  C316 6367   3.066   0.576   8.807 -0.2920  1.2698 -0.7381
   72SLPC  H16X 6368   3.152   0.642   8.830 -0.3334  1.3795 -0.8987
   72SLPC  H16Y 6369   2.966   0.625   8.809 -1.6344 -1.3878  0.5801
   72SLPC  C317 6370   3.080   0.506   8.672 -0.0449  0.1916  0.6780
   72SLPC  H17X 6371   2.987   0.447   8.657  0.4270  0.4777 -4.0780
   72SLPC  H17Y 6372   3.166   0.436   8.673  1.0762  1.5011 -1.1929
   72SLPC  C318 6373   3.094   0.600   8.554 -0.6088 -0.5206 -0.1328
   72SLPC  H18X 6374   3.080   0.547   8.458 -0.2142 -3.5403  1.4288
   72SLPC  H18Y 6375   3.188   0.655   8.576 -1.6678  1.4264 -0.2950
   72SLPC  H18Z 6376   3.022   0.683   8.570  0.6143 -0.0700  3.5031
   73SLPC     N 6377   4.229   6.124  11.240  0.5357 -0.1939  0.2846
   73SLPC   C13 6378   4.311   6.180  11.354 -0.3773  0.2935 -0.8523
   73SLPC  H13A 6379   4.280   6.275  11.394  0.6093 -0.8200  2.7406
   73SLPC  H13B 6380   4.319   6.114  11.439 -1.4172  0.4683 -0.6182
   73SLPC  H13C 6381   4.413   6.193  11.321 -0.7879 -0.3705 -2.4620
   73SLPC   C14 6382   4.089   6.103  11.288 -0.6622  1.4551  0.2932
   73SLPC  H14A 6383   4.090   6.019  11.355 -2.0978 -0.7500 -2.3464
   73SLPC  H14B 6384   4.051   6.197  11.326  0.8838  1.4828  1.8365
   73SLPC  H14C 6385   4.021   6.072  11.210 -0.4611  2.1506 -0.1648
   73SLPC   C15 6386   4.289   5.994  11.203  0.1409  0.5126 -1.0188
   73SLPC  H15A 6387   4.222   5.932  11.144  0.5216 -0.7093 -0.1822
   73SLPC  H15B 6388   4.380   6.005  11.146  1.0701  1.3828  0.6112
   73SLPC  H15C 6389   4.300   5.936  11.293 -1.8416 -0.3498 -1.2865
   73SLPC   C12 6390   4.229   6.222  11.127 -0.8130  0.1137 -0.8336
   73SLPC  H12A 6391   4.333   6.253  11.118 -0.8119  0.0340 -1.0934
   73SLPC  H12B 6392   4.172   6.309  11.156  0.5662  0.9557 -0.5542
   73SLPC   C11 6393   4.201   6.175  10.980  0.1127  0.3791 -0.0410
   73SLPC  H11A 6394   4.104   6.124  10.962  0.6504 -0.3369 -0.9341
   73SLPC  H11B 6395   4.283   6.102  10.963  1.6871  1.7847  1.2477
   73SLPC     P 6396   4.294   6.293  10.763 -0.2646 -0.0292 -0.3143
   73SLPC   O13 6397   4.234   6.402  10.678 -0.1149 -0.1003 -0.2576
   73SLPC   O14 6398   4.437   6.291  10.793  0.2721 -0.1997  0.2172
   73SLPC   O12 6399   4.209   6.290  10.891  0.6151 -0.6977 -0.6927
   73SLPC   O11 6400   4.263   6.146  10.711  0.0096 -0.2645  0.1553
   73SLPC    C1 6401   4.141   6.107  10.649  0.3833 -0.5977 -0.5717
   73SLPC    HA 6402   4.114   6.007  10.689  0.8478 -1.2898 -1.9710
   73SLPC    HB 6403   4.059   6.174  10.684  0.7221 -1.3298  1.7063
   73SLPC    C2 6404   4.148   6.111  10.495  0.7066  0.8692 -0.1143
   73SLPC    HS 6405   4.157   6.216  10.461 -0.9752  1.1828  0.3412
   73SLPC   O21 6406   4.031   6.042  10.448  0.2339  0.2016 -0.1792
   73SLPC   C21 6407   3.920   6.113  10.448 -0.9751 -0.7977  0.4277
   73SLPC   O22 6408   3.917   6.238  10.475  0.0278 -0.2490 -0.1017
   73SLPC   C22 6409   3.794   6.032  10.415 -0.1240  0.0854  0.4665
   73SLPC   H2R 6410   3.814   5.923  10.419 -3.6418 -0.6183  0.5712
   73SLPC   H2S 6411   3.726   6.041  10.503 -1.1531  2.4301 -0.5291
   73SLPC    C3 6412   4.267   6.028  10.439  0.6228  0.4852 -0.4950
   73SLPC    HX 6413   4.246   5.925  10.476 -3.0370  0.5053 -2.1840
   73SLPC    HY 6414   4.353   6.080  10.486 -0.3134  1.8343 -0.2496
   73SLPC   O31 6415   4.281   6.041  10.294  0.0572 -0.8400 -0.4480
   73SLPC   C31 6416   4.342   5.935  10.239 -0.4568  0.3061 -0.0385
   73SLPC   O32 6417   4.382   5.836  10.295  0.0814  0.0987 -0.6797
   73SLPC   C32 6418   4.339   5.957  10.091 -0.5616  0.6212 -0.3972
   73SLPC   H2X 6419   4.405   5.876  10.053 -0.2266  1.1201 -0.8772
   73SLPC   H2Y 6420   4.392   6.052  10.068  2.0247 -0.9746 -1.2899
   73SLPC   C23 6421   3.714   6.067  10.288  0.0693 -0.4887  0.3389
   73SLPC   H3R 6422   3.782   6.055  10.201  0.2358  0.2556  0.3669
   73SLPC   H3S 6423   3.684   6.174  10.289  0.5538 -0.3625  1.9576
   73SLPC   C24 6424   3.582   5.981  10.268 -0.1391 -0.6187 -0.0754
   73SLPC   H4R 6425   3.532   5.994  10.366  0.6343 -0.3028  0.2896
   73SLPC   H4S 6426   3.614   5.875  10.267 -2.2046 -1.2558 -0.9829
   73SLPC   C25 6427   3.506   6.025  10.144  0.5862  0.1446  0.0061
   73SLPC   H5R 6428   3.581   6.035  10.063 -0.1145 -2.0994 -0.9492
   73SLPC   H5S 6429   3.457   6.123  10.166 -0.5571 -0.7366  1.4834
   73SLPC   C26 6430   3.400   5.925  10.099  0.2074  0.6017  0.1838
   73SLPC   H6R 6431   3.304   5.946  10.151  0.0383  1.6389 -0.5398
   73SLPC   H6S 6432   3.432   5.827  10.142  1.0086  1.0870  0.7132
   73SLPC   C27 6433   3.377   5.909   9.950  0.2890  0.0062 -0.0575
   73SLPC   H7R 6434   3.477   5.897   9.904  0.3895  1.7233 -0.3329
   73SLPC   H7S 6435   3.342   6.011   9.922  0.4851  0.3450  0.8975
   73SLPC   C28 6436   3.279   5.802   9.902 -0.6010  0.1706  0.4132
   73SLPC   H8R 6437   3.305   5.697   9.927  2.8943  0.9047  0.1285
   73SLPC   H8S 6438   3.276   5.806   9.791 -1.2239  1.0778  0.4580
   73SLPC   C29 6439   3.133   5.824   9.948 -0.2593  0.3086  0.1632
   73SLPC   H9R 6440   3.101   5.784  10.045 -2.3731 -0.0547 -0.6525
   73SLPC  C210 6441   3.039   5.890   9.889 -0.0211  0.0491  1.0698
   73SLPC  H10R 6442   2.943   5.886   9.943  0.3422 -1.7326  1.6269
   73SLPC  C211 6443   3.058   5.968   9.756 -0.2286  0.1120 -0.3208
   73SLPC  H11R 6444   3.119   5.918   9.678 -0.9627 -1.5224  0.1244
   73SLPC  H11S 6445   3.109   6.063   9.781 -0.5947 -0.1468  1.5569
   73SLPC  C212 6446   2.934   6.018   9.691 -0.2152 -0.4233 -0.5754
   73SLPC  H12R 6447   2.887   6.107   9.734 -0.6871 -1.0844  0.3024
   73SLPC  C213 6448   2.869   5.954   9.587  0.0944  0.2682 -0.6868
   73SLPC  H13R 6449   2.792   6.017   9.540 -2.3894 -2.6054 -0.6378
   73SLPC  C214 6450   2.904   5.822   9.517  0.0403 -0.6973 -0.8810
   73SLPC  H14R 6451   2.819   5.751   9.511 -0.4515 -0.1553 -0.3508
   73SLPC  H14S 6452   2.984   5.779   9.581 -0.4578  0.3014  0.4351
   73SLPC  C215 6453   2.967   5.855   9.381  0.2902 -0.2101 -0.2116
   73SLPC  H15R 6454   3.002   5.761   9.334 -1.3635 -1.5101  1.0850
   73SLPC  H15S 6455   3.056   5.920   9.393  1.5110 -1.4734 -2.1571
   73SLPC  C216 6456   2.873   5.924   9.287 -0.3770 -0.0651  0.5834
   73SLPC  H16R 6457   2.847   6.024   9.328 -0.3063 -0.0803  0.6647
   73SLPC  H16S 6458   2.777   5.868   9.289 -0.8990  0.7856 -0.2025
   73SLPC  C217 6459   2.929   5.930   9.150  0.4033 -0.4449  0.0959
   73SLPC  H17R 6460   3.025   5.984   9.140 -0.5689  1.0951 -1.0617
   73SLPC  H17S 6461   2.852   5.992   9.100 -0.5063 -0.8921  0.9255
   73SLPC  C218 6462   2.925   5.795   9.082  0.0125 -0.7069  0.9441
   73SLPC  H18R 6463   2.950   5.797   8.973 -2.4518 -1.5944  0.3393
   73SLPC  H18S 6464   2.820   5.759   9.081  1.0014 -3.7378  2.0117
   73SLPC  H18T 6465   2.968   5.714   9.144 -3.0097 -2.5339  0.7367
   73SLPC   C33 6466   4.202   5.948  10.020 -0.4303 -0.0354 -0.0413
   73SLPC   H3X 6467   4.120   5.991  10.081 -1.3505  1.4609 -2.2767
   73SLPC   H3Y 6468   4.174   5.843   9.999 -0.4023  0.0098 -0.3126
   73SLPC   C34 6469   4.215   6.021   9.885  0.0521  0.5966 -0.6353
   73SLPC   H4X 6470   4.309   5.991   9.835  0.1425 -2.1085  1.0313
   73SLPC   H4Y 6471   4.235   6.127   9.910 -2.8274  0.8266  0.8743
   73SLPC   C35 6472   4.089   5.999   9.791 -0.5869 -0.0680  0.4199
   73SLPC   H5X 6473   4.007   6.011   9.864 -0.7859 -3.0491  0.7715
   73SLPC   H5Y 6474   4.072   5.895   9.754  1.5785 -0.5895  0.7891
   73SLPC   C36 6475   4.095   6.095   9.671 -0.6406  0.0850 -0.0147
   73SLPC   H6X 6476   4.176   6.083   9.596  0.4426  0.0853  1.1369
   73SLPC   H6Y 6477   4.120   6.195   9.714  2.5354 -0.0882 -1.3321
   73SLPC   C37 6478   3.955   6.105   9.593  0.4910 -0.5480  0.5880
   73SLPC   H7X 6479   3.983   6.150   9.495 -0.3178 -0.3350  0.4486
   73SLPC   H7Y 6480   3.897   6.190   9.635  1.2922  0.0984  0.4098
   73SLPC   C38 6481   3.881   5.977   9.595  0.1192  0.5171 -0.6647
   73SLPC   H8X 6482   3.775   5.998   9.570 -0.2042  0.0282  0.2703
   73SLPC   H8Y 6483   3.883   5.931   9.696  0.6789 -1.1601 -1.4174
   73SLPC   C39 6484   3.924   5.873   9.488 -0.1110 -0.1932  0.4284
   73SLPC   H9X 6485   3.851   5.789   9.494 -1.1199  0.6430  0.0696
   73SLPC   H9Y 6486   4.026   5.840   9.516 -0.9418 -3.5064 -0.2337
   73SLPC  C310 6487   3.921   5.933   9.341  0.1828 -0.9427 -0.7719
   73SLPC  H10X 6488   3.995   6.014   9.330  1.1284 -1.6177  0.5396
   73SLPC  H10Y 6489   3.816   5.964   9.325  0.6292  1.1266  0.2254
   73SLPC  C311 6490   3.953   5.821   9.243 -0.3376  0.1587  0.0530
   73SLPC  H11X 6491   3.894   5.730   9.266 -0.5913  0.2001 -0.4217
   73SLPC  H11Y 6492   4.062   5.800   9.253 -0.4143 -0.7321 -0.8102
   73SLPC  C312 6493   3.937   5.845   9.095  0.0139  0.1214  0.1476
   73SLPC  H12X 6494   3.845   5.903   9.073  0.2120  1.3625  2.5423
   73SLPC  H12Y 6495   3.911   5.752   9.040 -1.3239 -0.1666  1.2409
   73SLPC  C313 6496   4.059   5.899   9.031 -0.2948  0.2170  0.5441
   73SLPC  H13X 6497   4.141   5.827   9.056  0.0069  0.0445 -0.9067
   73SLPC  H13Y 6498   4.075   5.992   9.090  0.5435  0.8297 -0.6291
   73SLPC  C314 6499   4.055   5.928   8.882  0.3346  0.8152 -0.4186
   73SLPC  H14X 6500   4.032   5.835   8.825  0.6016  1.8577 -2.2512
   73SLPC  H14Y 6501   4.154   5.964   8.848  1.8649 -1.8431  0.9914
   73SLPC  C315 6502   3.946   6.024   8.831  0.5202  0.6731 -0.4829
   73SLPC  H15X 6503   3.942   6.115   8.894 -0.1681  0.2628  0.0649
   73SLPC  H15Y 6504   3.850   5.969   8.840  2.0570 -2.2658 -1.0698
   73SLPC  C316 6505   3.960   6.070   8.684  0.2849  0.0974  0.5882
   73SLPC  H16X 6506   3.862   6.093   8.637 -0.5801 -1.3427  1.6239
   73SLPC  H16Y 6507   4.006   5.990   8.622  3.4540  0.9075  1.8298
   73SLPC  C317 6508   4.038   6.202   8.667 -0.0592  0.9904 -0.1147
   73SLPC  H17X 6509   4.144   6.188   8.695 -0.5457 -0.1708  1.1960
   73SLPC  H17Y 6510   3.999   6.290   8.722  0.7148  0.8446  0.6736
   73SLPC  C318 6511   4.037   6.254   8.522 -0.0840 -0.3498 -0.4365
   73SLPC  H18X 6512   3.936   6.296   8.499 -1.6245 -1.2350  4.2751
   73SLPC  H18Y 6513   4.054   6.168   8.453  1.2462 -0.6277  0.2156
   73SLPC  H18Z 6514   4.120   6.327   8.511  0.8547 -1.2288  0.7362
   74SLPC     N 6515   4.722   0.693  10.748 -0.0220 -0.0168 -0.4193
   74SLPC   C13 6516   4.610   0.768  10.810  0.1891 -0.3588  0.8718
   74SLPC  H13A 6517   4.592   0.732  10.910  1.2247  0.4301  1.3480
   74SLPC  H13B 6518   4.635   0.873  10.809 -0.8190 -0.1132 -0.2875
   74SLPC  H13C 6519   4.529   0.755  10.740 -0.0723  0.3955  1.0261
   74SLPC   C14 6520   4.682   0.571  10.682 -0.2927 -0.4261 -0.2881
   74SLPC  H14A 6521   4.761   0.531  10.620  0.3008 -0.9750  0.8098
   74SLPC  H14B 6522   4.651   0.501  10.759 -0.3947 -1.6288 -1.3980
   74SLPC  H14C 6523   4.602   0.586  10.611  0.8842 -0.1460 -1.5677
   74SLPC   C15 6524   4.834   0.657  10.848 -0.6392  0.6507 -1.1901
   74SLPC  H15A 6525   4.808   0.580  10.918  0.7663  1.8199  0.6753
   74SLPC  H15B 6526   4.925   0.626  10.799 -0.8921  1.1193 -1.9801
   74SLPC  H15C 6527   4.849   0.741  10.915 -1.4088  1.9629 -2.6114
   74SLPC   C12 6528   4.792   0.781  10.657  0.0735  0.4148  0.5201
   74SLPC  H12A 6529   4.888   0.736  10.636 -0.2585 -0.0800  0.0523
   74SLPC  H12B 6530   4.823   0.864  10.719 -1.0359  0.2063  1.3581
   74SLPC   C11 6531   4.716   0.846  10.550  0.0665 -0.6557  0.2190
   74SLPC  H11A 6532   4.660   0.766  10.497 -0.9834 -1.1268  2.0236
   74SLPC  H11B 6533   4.793   0.885  10.479  1.4480 -0.8048  1.5990
   74SLPC     P 6534   4.678   1.092  10.649 -0.0788 -0.0765  0.1590
   74SLPC   O13 6535   4.567   1.162  10.716  0.6107  0.0001 -0.0097
   74SLPC   O14 6536   4.803   1.074  10.729  0.3000 -0.1541  0.7641
   74SLPC   O12 6537   4.625   0.950  10.597 -0.2994 -0.3335 -0.1282
   74SLPC   O11 6538   4.712   1.152  10.509  0.0364  0.0353 -0.0619
   74SLPC    C1 6539   4.608   1.187  10.419  0.4498 -0.9522  0.7442
   74SLPC    HA 6540   4.551   1.102  10.376 -1.9913  0.9481  0.1159
   74SLPC    HB 6541   4.529   1.247  10.469 -2.7392 -2.2486 -2.5234
   74SLPC    C2 6542   4.665   1.273  10.299  0.1246 -0.6571 -0.1303
   74SLPC    HS 6543   4.594   1.273  10.214  0.3271  0.7827 -0.3028
   74SLPC   O21 6544   4.790   1.227  10.250 -0.4749  0.1257 -0.1836
   74SLPC   C21 6545   4.802   1.114  10.193  0.0369  0.1347  0.8444
   74SLPC   O22 6546   4.714   1.031  10.173 -0.3939 -0.6364  0.4880
   74SLPC   C22 6547   4.948   1.091  10.158  0.0891  0.3528 -0.5726
   74SLPC   H2R 6548   5.008   1.184  10.168 -1.4458  1.3141  0.0188
   74SLPC   H2S 6549   4.977   1.017  10.236 -0.1252  0.4976 -0.3515
   74SLPC    C3 6550   4.673   1.420  10.348  0.5271  0.1972  0.7587
   74SLPC    HX 6551   4.730   1.433  10.442  0.7476  1.9349  0.3919
   74SLPC    HY 6552   4.569   1.456  10.365 -0.5725 -1.8691 -1.1942
   74SLPC   O31 6553   4.742   1.507  10.254  0.0634  0.2236 -0.3503
   74SLPC   C31 6554   4.664   1.531  10.149  0.6092  0.0429 -0.4247
   74SLPC   O32 6555   4.544   1.502  10.138 -0.2032  0.5314  0.0793
   74SLPC   C32 6556   4.738   1.612  10.047  0.4315  0.2708  0.0613
   74SLPC   H2X 6557   4.846   1.587  10.059 -0.1982 -1.6572  2.0022
   74SLPC   H2Y 6558   4.721   1.718  10.074 -1.8613  0.4017 -1.7473
   74SLPC   C23 6559   4.965   1.026  10.023 -0.2673 -0.7325 -0.5723
   74SLPC   H3R 6560   4.925   0.923  10.027 -0.4297 -0.6582 -0.2496
   74SLPC   H3S 6561   5.073   1.033  10.001 -0.7507  0.7170 -2.6826
   74SLPC   C24 6562   4.899   1.101   9.902 -0.1328  0.2492 -0.3394
   74SLPC   H4R 6563   4.950   1.199   9.893  1.1460 -0.5241 -1.7812
   74SLPC   H4S 6564   4.790   1.110   9.920  0.0315  0.9227  0.3010
   74SLPC   C25 6565   4.918   1.044   9.760  0.3312  0.5015 -0.3033
   74SLPC   H5R 6566   5.011   0.985   9.750 -0.5355 -0.9048 -0.2745
   74SLPC   H5S 6567   4.936   1.124   9.686 -1.0513  1.2176  0.1135
   74SLPC   C26 6568   4.794   0.962   9.710  0.0402 -0.6511 -0.5647
   74SLPC   H6R 6569   4.795   0.952   9.599  2.1030  1.6296 -0.7869
   74SLPC   H6S 6570   4.705   1.027   9.723 -0.2566 -1.1953  0.1348
   74SLPC   C27 6571   4.771   0.825   9.767 -0.2310  0.3980 -0.2234
   74SLPC   H7R 6572   4.752   0.854   9.872  0.6235 -1.2738  0.4085
   74SLPC   H7S 6573   4.864   0.765   9.774  0.0113  0.7202 -0.6276
   74SLPC   C28 6574   4.658   0.756   9.698 -0.3293  0.4327  0.0492
   74SLPC   H8R 6575   4.687   0.730   9.594 -3.1049 -0.0988 -0.6419
   74SLPC   H8S 6576   4.566   0.817   9.688 -2.5631 -2.6531  0.9007
   74SLPC   C29 6577   4.619   0.627   9.771  0.9772  0.4228 -0.1375
   74SLPC   H9R 6578   4.576   0.638   9.872  2.7042 -2.3637  0.9513
   74SLPC  C210 6579   4.631   0.507   9.720 -0.5208  0.6115  0.5346
   74SLPC  H10R 6580   4.591   0.424   9.780 -1.5648 -0.6717 -1.8567
   74SLPC  C211 6581   4.689   0.467   9.580 -0.3624  0.0242  1.0610
   74SLPC  H11R 6582   4.774   0.398   9.597  0.9982  1.4358  0.1168
   74SLPC  H11S 6583   4.723   0.558   9.524 -4.8787  2.3248  1.8219
   74SLPC  C212 6584   4.585   0.406   9.492  0.0537 -0.2420  0.2853
   74SLPC  H12R 6585   4.493   0.389   9.549 -0.1974 -0.8726 -0.3055
   74SLPC  C213 6586   4.582   0.388   9.357  0.0481  0.2063 -0.2541
   74SLPC  H13R 6587   4.501   0.335   9.304 -0.2853  0.6935 -0.2295
   74SLPC  C214 6588   4.696   0.436   9.270  0.6025 -0.3442  0.0664
   74SLPC  H14R 6589   4.720   0.362   9.191  0.3606 -0.5034  0.1413
   74SLPC  H14S 6590   4.792   0.466   9.318  0.8131 -0.1184 -0.4940
   74SLPC  C215 6591   4.651   0.565   9.191  0.1245 -0.6065  0.7735
   74SLPC  H15R 6592   4.740   0.630   9.175 -1.7889  2.0169  0.3983
   74SLPC  H15S 6593   4.576   0.621   9.251  0.4107 -0.9278  1.4284
   74SLPC  C216 6594   4.588   0.535   9.055  2.0560  0.5909 -0.3354
   74SLPC  H16R 6595   4.519   0.448   9.059  0.9231  1.5038  0.2063
   74SLPC  H16S 6596   4.667   0.511   8.980  1.4972  0.8363 -1.0098
   74SLPC  C217 6597   4.512   0.649   9.002  0.0890 -0.9179 -0.5649
   74SLPC  H17R 6598   4.450   0.696   9.082  1.6781 -0.4147  0.3977
   74SLPC  H17S 6599   4.428   0.606   8.944 -0.6705 -0.0275 -0.1471
   74SLPC  C218 6600   4.601   0.750   8.934  0.3649  1.2173 -0.0810
   74SLPC  H18R 6601   4.547   0.842   8.905  1.6043  1.4383 -1.7612
   74SLPC  H18S 6602   4.629   0.697   8.841 -2.0324 -1.8171  0.8422
   74SLPC  H18T 6603   4.687   0.783   8.997 -1.4428  0.9458  2.6129
   74SLPC   C33 6604   4.693   1.580   9.905  0.2435 -0.8191  0.3255
   74SLPC   H3X 6605   4.731   1.661   9.839 -1.7228  0.0451  0.2309
   74SLPC   H3Y 6606   4.582   1.581   9.902  0.2697  1.4222 -4.3641
   74SLPC   C34 6607   4.748   1.455   9.850 -0.4220  0.4269  0.0835
   74SLPC   H4X 6608   4.691   1.372   9.897  0.6242  0.5134  1.5356
   74SLPC   H4Y 6609   4.856   1.440   9.873 -0.3770  1.0786  0.2978
   74SLPC   C35 6610   4.750   1.440   9.694  0.2863  0.1933 -0.3125
   74SLPC   H5X 6611   4.791   1.338   9.677 -0.5815 -0.0586 -0.8766
   74SLPC   H5Y 6612   4.809   1.524   9.651  1.4866 -0.0588  0.7864
   74SLPC   C36 6613   4.613   1.456   9.633  0.5376 -0.0555  1.0812
   74SLPC   H6X 6614   4.574   1.557   9.658 -1.0593 -0.7898  1.6433
   74SLPC   H6Y 6615   4.549   1.383   9.688 -0.0703 -1.2524 -1.1648
   74SLPC   C37 6616   4.612   1.442   9.479  0.5138  0.0708 -0.2106
   74SLPC   H7X 6617   4.506   1.446   9.448  1.2352  1.4506 -2.6785
   74SLPC   H7Y 6618   4.654   1.342   9.457 -1.4769 -0.8166 -0.0432
   74SLPC   C38 6619   4.702   1.538   9.409 -0.5768 -0.9235  0.3215
   74SLPC   H8X 6620   4.802   1.506   9.445 -0.3391 -0.2374  0.2915
   74SLPC   H8Y 6621   4.688   1.639   9.455  2.6889 -1.3086  2.3037
   74SLPC   C39 6622   4.683   1.555   9.256 -0.7498  0.9983  0.0734
   74SLPC   H9X 6623   4.579   1.585   9.231 -0.6719 -0.5911 -2.3092
   74SLPC   H9Y 6624   4.704   1.460   9.202 -3.8117  0.7752 -0.8091
   74SLPC  C310 6625   4.766   1.671   9.202  0.4366 -0.7692 -0.0318
   74SLPC  H10X 6626   4.865   1.673   9.252  0.2530 -0.3915  0.3162
   74SLPC  H10Y 6627   4.713   1.767   9.220  1.2961 -0.4127  0.6744
   74SLPC  C311 6628   4.796   1.664   9.049  0.3631  0.3837  0.0773
   74SLPC  H11X 6629   4.701   1.662   8.991  2.6413 -1.0209 -3.8781
   74SLPC  H11Y 6630   4.843   1.563   9.036 -1.1219 -0.4982  1.4009
   74SLPC  C312 6631   4.884   1.775   9.004  0.0810 -0.3823  0.5025
   74SLPC  H12X 6632   4.981   1.779   9.057 -0.7423  3.3888  1.9255
   74SLPC  H12Y 6633   4.848   1.879   9.023 -0.1726 -0.6467  1.4782
   74SLPC  C313 6634   4.926   1.748   8.858 -1.1879 -0.0258  0.2575
   74SLPC  H13X 6635   4.854   1.676   8.814  0.8166 -0.6150 -2.1833
   74SLPC  H13Y 6636   5.033   1.720   8.852 -0.9144  1.4110 -2.6144
   74SLPC  C314 6637   4.902   1.867   8.768 -0.7496  1.0370  0.2770
   74SLPC  H14X 6638   4.952   1.957   8.810  1.3055  0.3322 -0.5838
   74SLPC  H14Y 6639   4.793   1.886   8.759 -0.7134  1.8773  1.4588
   74SLPC  C315 6640   4.953   1.840   8.628 -0.0154  0.4782 -0.6816
   74SLPC  H15X 6641   4.926   1.735   8.606  0.6272  0.0618  0.4837
   74SLPC  H15Y 6642   5.063   1.856   8.631 -0.1720  1.3206  1.9237
   74SLPC  C316 6643   4.892   1.928   8.525  0.0898 -0.5244 -0.4808
   74SLPC  H16X 6644   4.912   2.031   8.563 -0.3429 -0.4702 -0.3878
   74SLPC  H16Y 6645   4.782   1.914   8.511 -0.1740  0.1427  0.8561
   74SLPC  C317 6646   4.972   1.916   8.395  0.1283  0.2377  0.8230
   74SLPC  H17X 6647   5.076   1.950   8.411 -0.2379  1.7562  0.0398
   74SLPC  H17Y 6648   4.925   1.977   8.315  0.2434  1.3984  1.6430
   74SLPC  C318 6649   4.978   1.770   8.353 -0.3765 -0.3381 -0.2629
   74SLPC  H18X 6650   4.877   1.725   8.345 -0.3296 -0.7090  1.1001
   74SLPC  H18Y 6651   5.042   1.704   8.416  1.2793  1.6319  0.1628
   74SLPC  H18Z 6652   5.027   1.763   8.254  0.7531  2.6230  0.0522
   75SLPC     N 6653   1.538   4.038   6.226  0.2032  0.2537 -0.0502
   75SLPC   C13 6654   1.388   4.009   6.231 -0.0411 -0.0931 -0.3368
   75SLPC  H13A 6655   1.334   4.100   6.209  1.4544  0.7494 -0.5884
   75SLPC  H13B 6656   1.373   3.942   6.147  1.0815 -1.8178  0.8220
   75SLPC  H13C 6657   1.349   3.965   6.322  0.4921 -0.0628 -0.0955
   75SLPC   C14 6658   1.565   4.168   6.289  0.2597 -0.3538 -0.0795
   75SLPC  H14A 6659   1.500   4.242   6.244  0.7543 -0.6543 -1.3164
   75SLPC  H14B 6660   1.545   4.164   6.395  0.0362 -0.9817 -0.1418
   75SLPC  H14C 6661   1.671   4.182   6.274  0.3703  0.3428  1.2751
   75SLPC   C15 6662   1.564   4.061   6.086  0.2667  0.8231  0.1855
   75SLPC  H15A 6663   1.507   4.142   6.043  0.0138 -0.4643 -2.0099
   75SLPC  H15B 6664   1.669   4.084   6.072  0.5851 -1.4586 -1.5597
   75SLPC  H15C 6665   1.542   3.978   6.020 -1.2009  2.2209 -1.1389
   75SLPC   C12 6666   1.612   3.916   6.284 -0.2933 -0.0477  0.1937
   75SLPC  H12A 6667   1.718   3.926   6.262  0.4484 -0.4530  3.2972
   75SLPC  H12B 6668   1.588   3.823   6.235  0.5267 -0.9458  1.4568
   75SLPC   C11 6669   1.603   3.881   6.431 -0.3103 -0.0098  0.0174
   75SLPC  H11A 6670   1.663   3.790   6.454  0.3406  0.2662 -0.5726
   75SLPC  H11B 6671   1.497   3.846   6.440 -0.0908 -1.1191 -1.5113
   75SLPC     P 6672   1.772   4.008   6.567  0.1607 -0.0107 -0.7348
   75SLPC   O13 6673   1.835   3.868   6.559  0.7185 -0.5321  0.3035
   75SLPC   O14 6674   1.840   4.116   6.490  0.0607 -0.2313  0.1409
   75SLPC   O12 6675   1.624   3.990   6.519 -0.5951  0.4510  0.2152
   75SLPC   O11 6676   1.753   4.047   6.719  0.1793  0.5367 -0.2077
   75SLPC    C1 6677   1.699   3.960   6.818  0.1303 -0.3166  0.4926
   75SLPC    HA 6678   1.635   4.018   6.888 -1.6763 -2.2922  0.5203
   75SLPC    HB 6679   1.636   3.882   6.770  0.9215 -0.3514 -0.5178
   75SLPC    C2 6680   1.815   3.913   6.917 -0.2618 -0.5788 -0.9526
   75SLPC    HS 6681   1.759   3.857   6.994  2.2074 -1.8684 -0.0517
   75SLPC   O21 6682   1.881   4.023   6.966  0.7289 -0.0973 -0.0557
   75SLPC   C21 6683   1.891   4.048   7.096  0.0996  0.2020 -0.4612
   75SLPC   O22 6684   1.830   3.991   7.183  0.4682  0.3483 -0.0651
   75SLPC   C22 6685   1.984   4.166   7.114  0.7343  0.2917 -0.7751
   75SLPC   H2R 6686   2.074   4.137   7.056  1.1088 -1.9440  0.8622
   75SLPC   H2S 6687   1.925   4.251   7.073  1.4220  0.6685 -0.9845
   75SLPC    C3 6688   1.906   3.817   6.850 -0.1932  0.3150 -0.1741
   75SLPC    HX 6689   1.946   3.876   6.764 -3.3189  0.6409 -1.4853
   75SLPC    HY 6690   1.858   3.730   6.799 -0.1055  1.3067 -2.0216
   75SLPC   O31 6691   2.019   3.787   6.935 -0.0792  0.7698 -0.1223
   75SLPC   C31 6692   1.999   3.687   7.019 -0.6322 -0.0045  0.0411
   75SLPC   O32 6693   1.893   3.620   7.022  0.3076  0.3020 -0.7597
   75SLPC   C32 6694   2.121   3.674   7.115 -0.8596  0.0404  0.0199
   75SLPC   H2X 6695   2.202   3.749   7.100 -1.4789  1.0018  1.4879
   75SLPC   H2Y 6696   2.169   3.579   7.080  2.3933  1.1733  1.1871
   75SLPC   C23 6697   2.016   4.201   7.261 -0.6001 -0.3110  0.0204
   75SLPC   H3R 6698   2.100   4.134   7.291  0.6786  0.8642 -0.8539
   75SLPC   H3S 6699   1.922   4.193   7.319 -0.3221 -3.9392  0.0737
   75SLPC   C24 6700   2.084   4.335   7.275 -0.0044 -0.3526  0.0024
   75SLPC   H4R 6701   2.010   4.415   7.252 -0.6640 -0.8083  0.5188
   75SLPC   H4S 6702   2.156   4.344   7.191  1.0700  1.6591  1.1126
   75SLPC   C25 6703   2.155   4.362   7.411 -0.7561 -0.5381  0.3353
   75SLPC   H5R 6704   2.179   4.471   7.416 -1.6000 -0.2579 -1.2468
   75SLPC   H5S 6705   2.246   4.299   7.417 -1.4340 -1.6873 -1.1904
   75SLPC   C26 6706   2.072   4.323   7.531 -0.1464  0.3262 -0.5378
   75SLPC   H6R 6707   2.042   4.217   7.515 -1.2461  0.6662 -0.7838
   75SLPC   H6S 6708   1.988   4.395   7.537 -1.4339 -1.1632 -0.2722
   75SLPC   C27 6709   2.161   4.320   7.658 -0.6637 -0.3530  0.4509
   75SLPC   H7R 6710   2.230   4.406   7.666 -0.7072 -0.5775  4.2215
   75SLPC   H7S 6711   2.218   4.224   7.660 -0.2341 -0.1127 -0.2221
   75SLPC   C28 6712   2.071   4.317   7.789 -0.4666  0.5769  0.1777
   75SLPC   H8R 6713   2.036   4.212   7.795  1.5949 -0.1993 -0.8723
   75SLPC   H8S 6714   1.994   4.396   7.776  0.3330  1.3259 -0.0818
   75SLPC   C29 6715   2.160   4.347   7.907 -1.0282  0.6406  1.0888
   75SLPC   H9R 6716   2.230   4.431   7.896  1.0870 -1.2053  0.1270
   75SLPC  C210 6717   2.160   4.284   8.024  0.5389  0.2722  0.1145
   75SLPC  H10R 6718   2.231   4.318   8.102  0.5573 -0.2808  0.3410
   75SLPC  C211 6719   2.068   4.170   8.077 -0.3231  0.7255  1.1121
   75SLPC  H11R 6720   2.113   4.107   8.157 -1.4818 -2.1494 -0.4252
   75SLPC  H11S 6721   2.059   4.090   8.000  1.8799 -0.9344  2.5032
   75SLPC  C212 6722   1.934   4.231   8.114  0.1486 -1.2733  0.3342
   75SLPC  H12R 6723   1.875   4.266   8.029  3.6038 -0.5955 -1.8866
   75SLPC  C213 6724   1.885   4.252   8.238 -0.2493 -0.3773  0.0843
   75SLPC  H13R 6725   1.794   4.313   8.250 -0.1151 -0.2224  0.3112
   75SLPC  C214 6726   1.958   4.220   8.360 -0.2329 -0.5206 -0.0445
   75SLPC  H14R 6727   2.062   4.186   8.337 -1.0082 -2.8178 -0.2212
   75SLPC  H14S 6728   1.904   4.149   8.426  1.8701 -2.7014 -0.5959
   75SLPC  C215 6729   1.991   4.348   8.443  0.2757  0.0411 -0.1481
   75SLPC  H15R 6730   2.050   4.414   8.375 -0.0886  0.5026 -0.0167
   75SLPC  H15S 6731   2.046   4.327   8.536 -3.6170  1.5013  2.6246
   75SLPC  C216 6732   1.866   4.419   8.496  0.8009  0.2183 -0.5753
   75SLPC  H16R 6733   1.807   4.351   8.561  0.0370  1.6368  0.2305
   75SLPC  H16S 6734   1.797   4.438   8.411 -0.0115 -0.2621 -0.0249
   75SLPC  C217 6735   1.903   4.551   8.561 -0.1438  0.5502 -0.3477
   75SLPC  H17R 6736   2.008   4.547   8.598 -0.6685 -0.2837  1.0693
   75SLPC  H17S 6737   1.837   4.566   8.649 -0.8503  0.0858 -0.8005
   75SLPC  C218 6738   1.891   4.669   8.466 -0.0864  0.5651 -0.3851
   75SLPC  H18R 6739   1.970   4.667   8.388  0.7762  0.0524  0.4936
   75SLPC  H18S 6740   1.899   4.767   8.518  0.5050  0.6255 -0.5883
   75SLPC  H18T 6741   1.794   4.675   8.413  1.3689  2.7369 -2.8771
   75SLPC   C33 6742   2.084   3.661   7.260  0.4160 -0.1591 -0.4640
   75SLPC   H3X 6743   2.019   3.572   7.268  0.4107 -0.2550 -1.5398
   75SLPC   H3Y 6744   2.177   3.638   7.317 -0.5280  0.0824  1.2002
   75SLPC   C34 6745   2.011   3.779   7.315  0.9362 -1.0404 -0.7290
   75SLPC   H4X 6746   1.909   3.773   7.271 -0.3630  1.4005  1.8080
   75SLPC   H4Y 6747   2.064   3.873   7.290  3.6185 -1.3564  3.2356
   75SLPC   C35 6748   1.983   3.774   7.461  0.6294  0.1680 -0.0105
   75SLPC   H5X 6749   2.070   3.804   7.522 -1.2968  1.5225  2.1553
   75SLPC   H5Y 6750   1.952   3.668   7.475 -0.9977  0.5617 -0.5623
   75SLPC   C36 6751   1.866   3.861   7.501  0.7741 -0.7021 -0.8374
   75SLPC   H6X 6752   1.780   3.852   7.431  0.9608 -1.5109 -0.9708
   75SLPC   H6Y 6753   1.907   3.963   7.486 -0.7584  0.2648  1.3456
   75SLPC   C37 6754   1.821   3.836   7.644 -0.3618 -0.1072  0.7906
   75SLPC   H7X 6755   1.908   3.861   7.708  1.2402  1.1082 -1.7828
   75SLPC   H7Y 6756   1.806   3.727   7.662  0.7796 -0.5159 -0.5832
   75SLPC   C38 6757   1.695   3.916   7.680  0.0307  0.0041  0.2497
   75SLPC   H8X 6758   1.614   3.891   7.609  0.2871  2.8064 -1.1114
   75SLPC   H8Y 6759   1.726   4.021   7.661  0.6468 -0.4369 -1.2364
   75SLPC   C39 6760   1.634   3.905   7.820  0.4292  0.8701  0.0375
   75SLPC   H9X 6761   1.629   3.802   7.862 -0.0524 -0.3930 -2.9820
   75SLPC   H9Y 6762   1.527   3.935   7.814  0.4850  1.5742  2.1771
   75SLPC  C310 6763   1.712   3.980   7.924 -0.0426  0.1128 -0.4186
   75SLPC  H10X 6764   1.692   4.085   7.895 -1.4616 -0.2932 -0.9382
   75SLPC  H10Y 6765   1.820   3.953   7.921 -0.0364  0.0505  0.2385
   75SLPC  C311 6766   1.669   3.965   8.072  0.3388  0.6331 -0.8878
   75SLPC  H11X 6767   1.737   4.034   8.127 -0.6597 -0.8242  2.2922
   75SLPC  H11Y 6768   1.694   3.869   8.121 -1.7180 -0.0653 -1.1553
   75SLPC  C312 6769   1.523   4.002   8.099  0.7876  1.1650  0.1695
   75SLPC  H12X 6770   1.449   3.935   8.049 -1.0224  1.9970  1.7160
   75SLPC  H12Y 6771   1.506   4.106   8.066  0.7778  2.0935  2.9931
   75SLPC  C313 6772   1.487   3.993   8.245  0.2785 -0.4981  0.0769
   75SLPC  H13X 6773   1.524   3.897   8.286  1.4733  0.4280  1.2239
   75SLPC  H13Y 6774   1.378   4.003   8.260  0.0165  0.1974 -2.0701
   75SLPC  C314 6775   1.553   4.095   8.335  0.4781 -0.2388  0.6659
   75SLPC  H14X 6776   1.549   4.193   8.283 -0.4984 -0.5243  0.1837
   75SLPC  H14Y 6777   1.661   4.069   8.340  0.6729  0.6277  1.2118
   75SLPC  C315 6778   1.493   4.100   8.471  0.0352  0.0656 -0.2501
   75SLPC  H15X 6779   1.510   4.008   8.530 -2.5430 -1.1177 -1.2817
   75SLPC  H15Y 6780   1.382   4.105   8.465  0.0550 -0.0033 -0.7137
   75SLPC  C316 6781   1.518   4.222   8.559 -0.4864 -0.8171 -0.2191
   75SLPC  H16X 6782   1.431   4.291   8.569  1.3064  1.2824  1.7215
   75SLPC  H16Y 6783   1.588   4.291   8.507 -0.9172  0.0269  0.2950
   75SLPC  C317 6784   1.589   4.193   8.696 -0.0638 -0.5707 -0.0301
   75SLPC  H17X 6785   1.613   4.289   8.746  0.7184 -0.2131 -1.0820
   75SLPC  H17Y 6786   1.690   4.149   8.678 -0.7666 -2.4322  0.4462
   75SLPC  C318 6787   1.520   4.104   8.805  0.1456  0.2980 -0.6230
   75SLPC  H18X 6788   1.431   4.151   8.851 -2.4603 -0.6118 -4.5090
   75SLPC  H18Y 6789   1.588   4.095   8.892  1.4494  1.9936 -1.4376
   75SLPC  H18Z 6790   1.503   4.011   8.747  1.8285  2.3432 -4.5374
   76SLPC     N 6791   4.953   2.568   6.337 -0.4623 -0.7107  0.3903
   76SLPC   C13 6792   5.100   2.535   6.350 -0.8745  0.4464  0.3169
   76SLPC  H13A 6793   5.126   2.499   6.448  1.9038  0.5030 -0.3379
   76SLPC  H13B 6794   5.110   2.458   6.275  0.4111  1.4253 -0.5453
   76SLPC  H13C 6795   5.171   2.615   6.328 -0.3112  0.1760  1.1433
   76SLPC   C14 6796   4.913   2.614   6.208  0.1781  0.6088  0.7963
   76SLPC  H14A 6797   4.805   2.612   6.202 -0.0123 -3.1265  3.5754
   76SLPC  H14B 6798   4.948   2.711   6.177  0.9677 -0.1650 -0.7885
   76SLPC  H14C 6799   4.950   2.541   6.137 -1.2281 -0.3398  1.0288
   76SLPC   C15 6800   4.913   2.671   6.440 -0.4990  0.0435 -0.5698
   76SLPC  H15A 6801   4.991   2.744   6.458 -0.5497  0.0877 -0.5308
   76SLPC  H15B 6802   4.820   2.717   6.410 -1.0420 -2.1894 -2.4992
   76SLPC  H15C 6803   4.895   2.621   6.534 -0.5940 -1.3613 -1.3224
   76SLPC   C12 6804   4.873   2.441   6.364 -0.3034  0.5272 -0.1379
   76SLPC  H12A 6805   4.883   2.423   6.470 -2.9632 -0.4781 -0.0115
   76SLPC  H12B 6806   4.922   2.356   6.318  0.0021 -0.8849  2.6836
   76SLPC   C11 6807   4.724   2.430   6.328 -0.8513 -0.5047  0.2735
   76SLPC  H11A 6808   4.675   2.348   6.383 -1.4830 -0.0392  0.4020
   76SLPC  H11B 6809   4.703   2.419   6.219 -1.9287  0.3979  0.3891
   76SLPC     P 6810   4.514   2.581   6.364  0.0852 -0.2699  0.1365
   76SLPC   O13 6811   4.500   2.725   6.413 -0.3573 -0.0921 -0.3116
   76SLPC   O14 6812   4.456   2.552   6.234  0.1173 -0.1296 -0.1702
   76SLPC   O12 6813   4.669   2.558   6.365 -0.0470 -0.0555  1.0105
   76SLPC   O11 6814   4.470   2.475   6.468  0.1516 -0.0868 -0.0115
   76SLPC    C1 6815   4.400   2.533   6.581  0.7136 -0.3415 -0.1890
   76SLPC    HA 6816   4.326   2.610   6.550 -1.2128 -2.0054  0.1330
   76SLPC    HB 6817   4.338   2.457   6.633  0.4976  0.0371  0.1060
   76SLPC    C2 6818   4.497   2.589   6.685 -0.1192 -0.6338 -0.7492
   76SLPC    HS 6819   4.538   2.685   6.646 -0.0359 -0.4591 -0.2360
   76SLPC   O21 6820   4.599   2.485   6.707 -0.5427 -0.0412 -0.1494
   76SLPC   C21 6821   4.711   2.533   6.759  0.1725  0.6842 -0.6504
   76SLPC   O22 6822   4.743   2.649   6.763  0.2431 -0.0242  0.4589
   76SLPC   C22 6823   4.801   2.415   6.805 -0.5351 -0.0090  0.8578
   76SLPC   H2R 6824   4.736   2.328   6.829 -0.3421  0.6358  3.8445
   76SLPC   H2S 6825   4.849   2.389   6.708  0.6453 -0.9612  1.6789
   76SLPC    C3 6826   4.437   2.625   6.818 -0.0341  0.0522 -0.4586
   76SLPC    HX 6827   4.354   2.698   6.809 -1.0066 -0.8753  0.7774
   76SLPC    HY 6828   4.515   2.679   6.877 -0.6834 -0.1981  0.6459
   76SLPC   O31 6829   4.376   2.512   6.885 -0.7244  0.2934  0.1246
   76SLPC   C31 6830   4.445   2.466   6.995 -0.3032  0.3221 -0.0983
   76SLPC   O32 6831   4.536   2.526   7.046 -0.5522  0.6289  0.0184
   76SLPC   C32 6832   4.397   2.320   7.009 -0.7847 -0.3560  0.0033
   76SLPC   H2X 6833   4.434   2.264   6.921 -2.2137 -0.9318 -0.2421
   76SLPC   H2Y 6834   4.286   2.327   7.012 -0.9330 -1.3763 -2.1842
   76SLPC   C23 6835   4.919   2.450   6.893 -0.1733 -0.2261 -0.5771
   76SLPC   H3R 6836   4.957   2.545   6.851  0.3944 -0.0242  0.3857
   76SLPC   H3S 6837   5.001   2.375   6.888  1.7032  1.7711 -0.4194
   76SLPC   C24 6838   4.891   2.480   7.038  0.0924  0.5806  0.1358
   76SLPC   H4R 6839   4.796   2.537   7.041  0.2611  0.8015  2.2382
   76SLPC   H4S 6840   4.964   2.544   7.092  0.1779  0.8197 -0.2624
   76SLPC   C25 6841   4.865   2.347   7.118  0.4585  0.7040  0.0076
   76SLPC   H5R 6842   4.938   2.275   7.074 -1.4679 -1.1411 -0.2750
   76SLPC   H5S 6843   4.765   2.314   7.083  1.2170 -2.0142  0.3099
   76SLPC   C26 6844   4.873   2.370   7.271  0.0852  0.2567  0.2666
   76SLPC   H6R 6845   4.788   2.442   7.282 -2.2808 -2.3358 -0.4547
   76SLPC   H6S 6846   4.975   2.407   7.295  0.3516  0.0158 -0.4977
   76SLPC   C27 6847   4.838   2.245   7.349  0.1037  0.6548 -0.3202
   76SLPC   H7R 6848   4.924   2.176   7.345 -0.3276 -0.0959  2.2389
   76SLPC   H7S 6849   4.758   2.200   7.287  1.7171  2.1671 -3.6081
   76SLPC   C28 6850   4.794   2.278   7.495 -0.2013 -0.0749 -0.7511
   76SLPC   H8R 6851   4.723   2.363   7.495  0.6781  0.6810  1.0628
   76SLPC   H8S 6852   4.739   2.190   7.535 -0.0479  1.6789  3.6411
   76SLPC   C29 6853   4.917   2.323   7.572 -0.0714 -0.6198  0.4016
   76SLPC   H9R 6854   4.954   2.420   7.538  1.2029 -1.4757 -0.7006
   76SLPC  C210 6855   4.982   2.261   7.668  0.2478  0.3765  0.0781
   76SLPC  H10R 6856   5.076   2.306   7.702  0.6128 -1.1962  1.2007
   76SLPC  C211 6857   4.962   2.122   7.728  0.6475  0.2200  0.3368
   76SLPC  H11R 6858   5.060   2.084   7.763  0.9857 -0.2769 -1.0999
   76SLPC  H11S 6859   4.940   2.050   7.646  1.0345 -0.3687  0.7452
   76SLPC  C212 6860   4.858   2.113   7.836  0.1985 -0.4884 -0.0529
   76SLPC  H12R 6861   4.755   2.143   7.813  1.2259  2.1338 -1.4472
   76SLPC  C213 6862   4.874   2.059   7.960  0.1075 -0.2645  0.3831
   76SLPC  H13R 6863   4.783   2.066   8.020  0.2013  0.8736  0.3906
   76SLPC  C214 6864   5.006   1.996   8.009  0.1915 -0.4416 -0.3373
   76SLPC  H14R 6865   5.059   1.961   7.918 -0.8223  1.4337 -1.6965
   76SLPC  H14S 6866   4.975   1.905   8.065  0.1246  0.0757  0.4747
   76SLPC  C215 6867   5.106   2.088   8.076 -0.3185 -1.0754 -0.1485
   76SLPC  H15R 6868   5.051   2.112   8.168  0.5062  0.0502  0.0597
   76SLPC  H15S 6869   5.122   2.181   8.018 -1.8860  0.1741  1.4004
   76SLPC  C216 6870   5.241   2.023   8.117  0.6142 -0.2249 -0.7205
   76SLPC  H16R 6871   5.225   1.921   8.158  0.3822 -0.5993 -1.7360
   76SLPC  H16S 6872   5.290   2.087   8.194  1.2308 -1.1252 -0.3586
   76SLPC  C217 6873   5.340   1.983   7.999  0.3355  0.0084  0.1152
   76SLPC  H17R 6874   5.286   1.920   7.926 -1.5011  0.2999  1.1759
   76SLPC  H17S 6875   5.414   1.910   8.037 -0.7645 -1.4711 -0.5617
   76SLPC  C218 6876   5.393   2.104   7.937 -1.2034 -0.0033 -0.3253
   76SLPC  H18R 6877   5.456   2.154   8.014 -1.1912 -2.2695  1.1829
   76SLPC  H18S 6878   5.305   2.158   7.897 -0.0422  2.0155 -0.2268
   76SLPC  H18T 6879   5.472   2.081   7.862 -0.6204 -0.5134  0.4414
   76SLPC   C33 6880   4.452   2.247   7.140 -0.6364 -0.3793 -0.5039
   76SLPC   H3X 6881   4.563   2.242   7.140 -0.6094 -0.0591  0.7718
   76SLPC   H3Y 6882   4.405   2.146   7.132  0.6407 -0.8140 -3.0598
   76SLPC   C34 6883   4.396   2.305   7.264 -0.5528  0.1702  0.0859
   76SLPC   H4X 6884   4.285   2.308   7.258 -0.4727 -0.1745 -1.9793
   76SLPC   H4Y 6885   4.441   2.406   7.276 -2.3159  1.2542 -2.0552
   76SLPC   C35 6886   4.446   2.219   7.385  0.1164 -0.2522  0.5684
   76SLPC   H5X 6887   4.555   2.204   7.376  0.2103  0.5404  0.3441
   76SLPC   H5Y 6888   4.404   2.116   7.384  0.7534 -0.5127  0.5923
   76SLPC   C36 6889   4.411   2.290   7.519  0.0389  0.0135  0.2748
   76SLPC   H6X 6890   4.304   2.321   7.511  0.1849  0.1649 -1.2070
   76SLPC   H6Y 6891   4.471   2.382   7.535  2.3852 -1.7847  2.0694
   76SLPC   C37 6892   4.417   2.187   7.635 -0.0525 -0.1370 -0.4266
   76SLPC   H7X 6893   4.526   2.162   7.640 -0.7301 -2.8769  2.3569
   76SLPC   H7Y 6894   4.369   2.093   7.600  0.0976  0.5260 -2.4732
   76SLPC   C38 6895   4.371   2.243   7.773 -0.5032  0.0607  0.0135
   76SLPC   H8X 6896   4.277   2.299   7.756 -0.3330  0.7333  1.1740
   76SLPC   H8Y 6897   4.442   2.312   7.824  0.4159  0.5387 -1.8535
   76SLPC   C39 6898   4.338   2.132   7.874  0.4119  0.5917  1.2315
   76SLPC   H9X 6899   4.431   2.077   7.898  1.0241  0.2990 -1.6427
   76SLPC   H9Y 6900   4.267   2.056   7.836  1.6711 -0.0478  0.1508
   76SLPC  C310 6901   4.293   2.183   8.016 -0.4135 -0.0709 -0.6917
   76SLPC  H10X 6902   4.268   2.095   8.078 -2.2597  0.1185 -1.1242
   76SLPC  H10Y 6903   4.201   2.245   8.021 -1.3006 -1.3643 -0.7367
   76SLPC  C311 6904   4.400   2.268   8.088 -0.4098 -0.1618  0.4504
   76SLPC  H11X 6905   4.353   2.313   8.179 -0.8565  0.3016 -0.0008
   76SLPC  H11Y 6906   4.422   2.358   8.026 -2.8824 -0.6408 -1.2088
   76SLPC  C312 6907   4.520   2.184   8.128 -0.5594 -0.2187  0.1787
   76SLPC  H12X 6908   4.568   2.147   8.035  0.6296  0.7363  0.3949
   76SLPC  H12Y 6909   4.489   2.093   8.183 -1.6925 -0.2762 -0.5373
   76SLPC  C313 6910   4.623   2.259   8.209  0.1547 -0.0494 -0.2323
   76SLPC  H13X 6911   4.707   2.199   8.251  0.1489  0.3940  0.4051
   76SLPC  H13Y 6912   4.566   2.293   8.297 -0.5902 -1.1269 -0.2847
   76SLPC  C314 6913   4.693   2.375   8.140  0.3327  0.1839  0.0471
   76SLPC  H14X 6914   4.629   2.445   8.082 -0.8496 -1.2327 -0.4033
   76SLPC  H14Y 6915   4.747   2.325   8.057 -2.4891 -1.8984 -0.6075
   76SLPC  C315 6916   4.778   2.458   8.233  0.0335 -0.1586 -0.2671
   76SLPC  H15X 6917   4.869   2.485   8.176  0.6123 -0.3872  0.5261
   76SLPC  H15Y 6918   4.808   2.383   8.310 -2.1332  0.8631  1.6248
   76SLPC  C316 6919   4.715   2.583   8.293  0.0200 -0.8598  0.0636
   76SLPC  H16X 6920   4.621   2.550   8.341 -0.2957  4.1716  3.2527
   76SLPC  H16Y 6921   4.693   2.646   8.204 -2.5551 -0.2315  1.1177
   76SLPC  C317 6922   4.807   2.640   8.403 -0.1209 -0.7711  0.3354
   76SLPC  H17X 6923   4.913   2.643   8.372 -0.4518 -1.7439 -0.9143
   76SLPC  H17Y 6924   4.800   2.568   8.487  0.9058 -1.6975 -0.3639
   76SLPC  C318 6925   4.757   2.779   8.445  0.5154 -0.4606  0.2677
   76SLPC  H18X 6926   4.757   2.860   8.369  1.3698  0.2882  1.0489
   76SLPC  H18Y 6927   4.826   2.810   8.527  0.8821 -3.3153  1.0847
   76SLPC  H18Z 6928   4.654   2.770   8.484 -0.2602 -0.2020 -1.6847
   77SLPC     N 6929   0.350   2.304   6.110  0.4039  0.2112 -0.1118
   77SLPC   C13 6930   0.477   2.222   6.115 -0.0902  0.4177  0.5567
   77SLPC  H13A 6931   0.496   2.164   6.203 -0.9188 -2.0934 -0.8875
   77SLPC  H13B 6932   0.471   2.160   6.027  0.6330 -1.9109  2.1184
   77SLPC  H13C 6933   0.570   2.276   6.100  0.4754 -0.6336  0.2596
   77SLPC   C14 6934   0.235   2.208   6.119  0.1457  0.5285  0.8226
   77SLPC  H14A 6935   0.137   2.252   6.110 -0.1980 -0.2079  0.8756
   77SLPC  H14B 6936   0.249   2.137   6.038 -1.3041 -0.8090  1.7026
   77SLPC  H14C 6937   0.229   2.147   6.208  0.3582 -0.8416 -0.0775
   77SLPC   C15 6938   0.350   2.377   5.973  0.1589 -0.1505 -0.4782
   77SLPC  H15A 6939   0.349   2.309   5.890 -0.8738 -0.0126 -0.5800
   77SLPC  H15B 6940   0.259   2.435   5.972  1.4441  1.9883  1.5553
   77SLPC  H15C 6941   0.434   2.444   5.966  1.1598 -1.1868  1.1819
   77SLPC   C12 6942   0.334   2.407   6.228 -0.9274 -0.3508 -0.2533
   77SLPC  H12A 6943   0.253   2.477   6.214  0.0136  1.1070  1.3703
   77SLPC  H12B 6944   0.423   2.468   6.224  0.2831 -2.0219  0.5960
   77SLPC   C11 6945   0.327   2.357   6.376  0.0924 -0.0742  0.4719
   77SLPC  H11A 6946   0.230   2.309   6.399  0.1346  0.4656  1.8191
   77SLPC  H11B 6947   0.324   2.449   6.438 -1.8392 -2.1714  3.5666
   77SLPC     P 6948   0.575   2.348   6.446  0.3451 -0.0685 -0.2224
   77SLPC   O13 6949   0.682   2.255   6.405 -0.0947  0.2920 -0.0292
   77SLPC   O14 6950   0.574   2.484   6.388 -0.2363  0.3617 -0.1779
   77SLPC   O12 6951   0.439   2.277   6.411 -0.0787  0.4097 -0.0891
   77SLPC   O11 6952   0.583   2.364   6.608  0.1405  0.2071 -0.0879
   77SLPC    C1 6953   0.592   2.244   6.684 -0.3808 -1.1489 -0.0074
   77SLPC    HA 6954   0.654   2.170   6.627  0.4102 -0.0342 -0.6160
   77SLPC    HB 6955   0.647   2.268   6.778 -0.7050 -1.9104  0.3827
   77SLPC    C2 6956   0.448   2.184   6.726 -0.9511 -0.4551  0.1110
   77SLPC    HS 6957   0.391   2.146   6.639 -2.0045 -1.3518  1.1605
   77SLPC   O21 6958   0.376   2.287   6.793  0.1605  0.1045 -0.2492
   77SLPC   C21 6959   0.254   2.264   6.829  0.0050 -0.4625  0.4017
   77SLPC   O22 6960   0.179   2.174   6.794 -0.2940 -0.1003  0.1795
   77SLPC   C22 6961   0.206   2.389   6.904 -0.3946  0.0339 -0.7844
   77SLPC   H2R 6962   0.293   2.448   6.940  0.4499 -0.1801 -2.4366
   77SLPC   H2S 6963   0.139   2.454   6.844 -0.5028  2.7184  2.0980
   77SLPC    C3 6964   0.465   2.054   6.811  0.3960  0.3260 -0.0420
   77SLPC    HX 6965   0.513   1.972   6.753 -3.1681 -2.6697  1.0390
   77SLPC    HY 6966   0.368   2.010   6.842  0.0713  0.3486 -1.0124
   77SLPC   O31 6967   0.548   2.087   6.930 -0.1607  0.4735  0.4064
   77SLPC   C31 6968   0.484   2.105   7.044 -0.1731 -0.2767  0.2137
   77SLPC   O32 6969   0.364   2.083   7.063  0.0610  0.3821 -0.0240
   77SLPC   C32 6970   0.590   2.124   7.154 -0.2259 -0.4062 -0.9039
   77SLPC   H2X 6971   0.675   2.056   7.134 -0.3735 -0.0986 -2.6272
   77SLPC   H2Y 6972   0.545   2.095   7.252 -0.1112 -0.9323 -1.0012
   77SLPC   C23 6973   0.129   2.362   7.039 -0.1479 -0.0504 -0.0322
   77SLPC   H3R 6974   0.174   2.273   7.086 -1.1024  0.0508  1.0795
   77SLPC   H3S 6975   0.026   2.333   7.007 -0.5834  1.3728  0.0553
   77SLPC   C24 6976   0.115   2.477   7.141  0.4372  0.3621  0.8384
   77SLPC   H4R 6977   0.085   2.563   7.078 -0.0773 -2.0816 -2.3369
   77SLPC   H4S 6978   0.212   2.479   7.194  0.3043  0.8178  1.0655
   77SLPC   C25 6979   0.007   2.459   7.241  0.6385  0.4065 -0.0984
   77SLPC   H5R 6980   0.018   2.360   7.292 -1.0616 -0.5479 -1.5095
   77SLPC   H5S 6981  -0.090   2.443   7.190 -0.2972 -0.2878  1.8416
   77SLPC   C26 6982  -0.012   2.578   7.341 -0.7220  0.3816 -0.4969
   77SLPC   H6R 6983  -0.002   2.672   7.283 -1.5051  0.2794 -0.8122
   77SLPC   H6S 6984   0.078   2.578   7.406  1.2654  0.2427 -3.1562
   77SLPC   C27 6985  -0.145   2.572   7.424  0.0473 -0.6129  0.5826
   77SLPC   H7R 6986  -0.219   2.530   7.352  0.5794 -0.3446 -0.1316
   77SLPC   H7S 6987  -0.179   2.675   7.447 -2.9334 -1.1720 -1.0250
   77SLPC   C28 6988  -0.128   2.493   7.557  0.1318 -0.2727  0.5354
   77SLPC   H8R 6989  -0.040   2.536   7.608 -0.6904 -0.0028  1.7318
   77SLPC   H8S 6990  -0.104   2.385   7.546  3.7156  0.3169  1.7899
   77SLPC   C29 6991  -0.248   2.522   7.648  0.0641 -0.1276 -0.2170
   77SLPC   H9R 6992  -0.325   2.446   7.628 -0.7731  0.5870  0.2679
   77SLPC  C210 6993  -0.249   2.589   7.767  0.1488 -0.9873 -0.0638
   77SLPC  H10R 6994  -0.347   2.589   7.818  0.9256  1.3534  1.5269
   77SLPC  C211 6995  -0.142   2.683   7.820 -0.2632 -0.2134  0.7511
   77SLPC  H11R 6996  -0.058   2.628   7.868 -1.6914 -1.2851  2.0595
   77SLPC  H11S 6997  -0.181   2.736   7.909 -1.1753  1.9843 -0.9271
   77SLPC  C212 6998  -0.071   2.778   7.734  0.0054 -0.1794  0.0360
   77SLPC  H12R 6999   0.023   2.743   7.690 -0.2320 -1.3705  0.4740
   77SLPC  C213 7000  -0.115   2.903   7.689  1.0369  0.1032 -0.4490
   77SLPC  H13R 7001  -0.063   2.962   7.612 -0.4437  0.8121 -0.9253
   77SLPC  C214 7002  -0.247   2.955   7.737  0.1551  0.8473 -0.6342
   77SLPC  H14R 7003  -0.225   3.055   7.779 -0.9775  0.1907  1.5824
   77SLPC  H14S 7004  -0.285   2.896   7.823  1.2508 -0.4635 -1.0212
   77SLPC  C215 7005  -0.358   2.959   7.631 -0.4132  0.5633  0.4849
   77SLPC  H15R 7006  -0.455   3.001   7.666  0.2702  0.9161  1.9644
   77SLPC  H15S 7007  -0.375   2.853   7.599  0.3125  0.0766  1.7092
   77SLPC  C216 7008  -0.315   3.031   7.503 -0.0040  0.5479 -0.3641
   77SLPC  H16R 7009  -0.228   2.977   7.459 -0.2086  0.2680 -0.4226
   77SLPC  H16S 7010  -0.275   3.130   7.536  2.3912  0.1362 -1.9356
   77SLPC  C217 7011  -0.423   3.049   7.401  0.4204  0.5304  0.6333
   77SLPC  H17R 7012  -0.514   3.102   7.436 -0.0513 -1.2140  2.1357
   77SLPC  H17S 7013  -0.463   2.947   7.380 -2.2830  1.2300  2.1571
   77SLPC  C218 7014  -0.372   3.119   7.269  0.1922  0.1099 -0.1995
   77SLPC  H18R 7015  -0.341   3.220   7.304  0.0234  0.2081 -0.3280
   77SLPC  H18S 7016  -0.457   3.119   7.197  0.1917  1.2287 -0.2113
   77SLPC  H18T 7017  -0.281   3.074   7.224  1.2479  1.8686  0.1262
   77SLPC   C33 7018   0.647   2.270   7.154 -0.8039  0.1407 -0.0568
   77SLPC   H3X 7019   0.563   2.342   7.165  0.0338  0.9130  1.2832
   77SLPC   H3Y 7020   0.696   2.288   7.056  0.3299  0.0333  0.4822
   77SLPC   C34 7021   0.763   2.290   7.258 -0.1342  0.3663  0.2648
   77SLPC   H4X 7022   0.800   2.393   7.240 -5.7030  2.4296 -0.5125
   77SLPC   H4Y 7023   0.853   2.226   7.248  1.6138  2.5729  1.5168
   77SLPC   C35 7024   0.699   2.297   7.397  0.9488 -0.3017  0.3638
   77SLPC   H5X 7025   0.632   2.210   7.412  1.7897 -1.1872 -0.9618
   77SLPC   H5Y 7026   0.625   2.380   7.394 -0.8213 -1.8527  0.4577
   77SLPC   C36 7027   0.788   2.301   7.523  0.1306  0.1541 -0.9199
   77SLPC   H6X 7028   0.851   2.391   7.508 -0.0688  0.3038 -0.8587
   77SLPC   H6Y 7029   0.852   2.211   7.530 -0.2032 -0.1345 -1.5776
   77SLPC   C37 7030   0.723   2.308   7.659  0.9508  0.0392 -0.0303
   77SLPC   H7X 7031   0.627   2.365   7.658  1.4996  0.9902  0.7333
   77SLPC   H7Y 7032   0.790   2.352   7.736 -0.4787  1.0096  0.6770
   77SLPC   C38 7033   0.680   2.167   7.701 -0.0832  0.4547 -0.2277
   77SLPC   H8X 7034   0.765   2.097   7.698  1.0393  1.7527  0.5866
   77SLPC   H8Y 7035   0.602   2.136   7.628 -1.1468  3.0950 -0.3015
   77SLPC   C39 7036   0.624   2.163   7.846  0.6733  1.2769  0.1572
   77SLPC   H9X 7037   0.522   2.205   7.841  0.5078  0.7882 -0.8554
   77SLPC   H9Y 7038   0.688   2.223   7.914  1.5138  0.9153 -0.2970
   77SLPC  C310 7039   0.625   2.022   7.905  0.1591 -0.3538 -0.0685
   77SLPC  H10X 7040   0.720   1.970   7.880  0.9993  0.3263  1.6110
   77SLPC  H10Y 7041   0.541   1.959   7.868  0.8314 -2.8710  2.5411
   77SLPC  C311 7042   0.615   2.025   8.059  0.1993  0.2891  0.2486
   77SLPC  H11X 7043   0.596   1.923   8.100  0.2115 -0.2635 -1.1060
   77SLPC  H11Y 7044   0.524   2.084   8.082 -0.8153 -0.9700 -0.4774
   77SLPC  C312 7045   0.744   2.078   8.121  0.2326 -0.2095  0.0042
   77SLPC  H12X 7046   0.778   2.178   8.085 -1.6756 -0.2646 -2.0328
   77SLPC  H12Y 7047   0.828   2.012   8.092 -0.9708 -1.0401 -1.7057
   77SLPC  C313 7048   0.750   2.070   8.273  0.2170 -0.6367  0.6458
   77SLPC  H13X 7049   0.849   2.118   8.292 -1.0128  0.7628  3.9528
   77SLPC  H13Y 7050   0.744   1.967   8.314 -0.5725 -0.2287  1.5918
   77SLPC  C314 7051   0.638   2.146   8.353 -0.2681  0.3124  0.3436
   77SLPC  H14X 7052   0.533   2.112   8.334  0.7253 -1.7370 -1.7693
   77SLPC  H14Y 7053   0.642   2.254   8.328 -1.4359 -0.1439 -2.0413
   77SLPC  C315 7054   0.653   2.112   8.506  0.2437 -0.3429 -0.0979
   77SLPC  H15X 7055   0.746   2.161   8.541  0.7821 -1.3705 -0.1028
   77SLPC  H15Y 7056   0.660   2.001   8.508  1.9082 -0.2295  1.9637
   77SLPC  C316 7057   0.537   2.150   8.596 -0.0558  0.5251  0.3913
   77SLPC  H16X 7058   0.507   2.256   8.581  1.7637  1.0920  0.6100
   77SLPC  H16Y 7059   0.567   2.131   8.701  0.2410  0.4119  0.2837
   77SLPC  C317 7060   0.415   2.059   8.568  0.0176  0.0803 -0.3349
   77SLPC  H17X 7061   0.436   1.950   8.568  1.1493  0.2896  0.6320
   77SLPC  H17Y 7062   0.386   2.069   8.461  1.8319  0.1959 -0.8240
   77SLPC  C318 7063   0.302   2.072   8.666 -0.5002 -0.2905 -0.3643
   77SLPC  H18X 7064   0.266   2.175   8.648  1.4424  0.2264 -1.3503
   77SLPC  H18Y 7065   0.335   2.062   8.772 -0.0665 -0.3789 -0.5056
   77SLPC  H18Z 7066   0.217   2.002   8.649 -1.5701  0.4865  1.6036
   78SLPC     N 7067   2.748   3.241   6.099  0.0944 -0.6468  0.2347
   78SLPC   C13 7068   2.749   3.389   6.107 -1.3479  0.5795 -0.2172
   78SLPC  H13A 7069   2.850   3.427   6.103 -1.1411 -0.0718 -1.1929
   78SLPC  H13B 7070   2.706   3.429   6.016  0.0389  0.2935 -1.0127
   78SLPC  H13C 7071   2.692   3.431   6.188 -0.5430 -0.1324  0.7300
   78SLPC   C14 7072   2.830   3.191   5.986 -1.1024  0.6665 -0.5205
   78SLPC  H14A 7073   2.785   3.096   5.958 -1.4076  1.0960 -1.5159
   78SLPC  H14B 7074   2.808   3.248   5.897 -0.6363 -0.5020 -1.4005
   78SLPC  H14C 7075   2.935   3.190   6.008 -1.2363  0.5010  0.1047
   78SLPC   C15 7076   2.606   3.199   6.075 -0.1135 -0.6963  0.0263
   78SLPC  H15A 7077   2.569   3.217   5.975 -1.1584  2.4016  0.9212
   78SLPC  H15B 7078   2.613   3.095   6.102  0.2262  0.1130  3.2278
   78SLPC  H15C 7079   2.545   3.254   6.144 -1.6269 -0.7816 -1.2241
   78SLPC   C12 7080   2.798   3.185   6.231 -0.3174 -0.1525  1.0115
   78SLPC  H12A 7081   2.720   3.207   6.302 -3.0459 -0.4934 -1.7806
   78SLPC  H12B 7082   2.887   3.241   6.256  1.6129 -2.5843 -0.1242
   78SLPC   C11 7083   2.832   3.033   6.248 -0.4456 -0.2333 -0.6237
   78SLPC  H11A 7084   2.874   3.027   6.351 -0.4594  0.2728 -0.5842
   78SLPC  H11B 7085   2.920   3.014   6.184  0.3890  1.8429 -0.1469
   78SLPC     P 7086   2.718   2.802   6.263  0.2034 -0.3090  0.2375
   78SLPC   O13 7087   2.663   2.725   6.151  0.0322 -0.4848 -0.2764
   78SLPC   O14 7088   2.859   2.771   6.295  0.1373  0.6148  0.2826
   78SLPC   O12 7089   2.713   2.960   6.233 -0.3319 -0.0301 -0.3149
   78SLPC   O11 7090   2.637   2.781   6.401 -0.1529 -0.0043  0.0498
   78SLPC    C1 7091   2.524   2.864   6.440 -0.2264 -0.0843  0.2982
   78SLPC    HA 7092   2.483   2.921   6.354  1.3386  0.9648  0.2269
   78SLPC    HB 7093   2.445   2.793   6.475  0.9245 -1.1683  0.7414
   78SLPC    C2 7094   2.572   2.971   6.554  0.4290 -0.1172 -0.0941
   78SLPC    HS 7095   2.645   3.043   6.510 -0.4650 -0.1030 -1.6037
   78SLPC   O21 7096   2.649   2.907   6.657 -0.7469 -0.3970 -0.6024
   78SLPC   C21 7097   2.706   2.992   6.742 -0.2484  0.4913 -0.5201
   78SLPC   O22 7098   2.702   3.112   6.726 -0.2924 -0.2111  0.5135
   78SLPC   C22 7099   2.779   2.907   6.853 -0.7509 -0.1305  0.5959
   78SLPC   H2R 7100   2.708   2.832   6.894 -1.7295 -0.5705 -1.8245
   78SLPC   H2S 7101   2.853   2.853   6.791 -0.2164 -2.1222  2.8802
   78SLPC    C3 7102   2.449   3.043   6.621 -0.3906 -0.2063  0.5027
   78SLPC    HX 7103   2.388   3.096   6.546  2.2197 -1.2877 -2.4803
   78SLPC    HY 7104   2.481   3.114   6.700 -1.3467  0.0994  0.6199
   78SLPC   O31 7105   2.358   2.940   6.674  0.5445  0.9292 -0.1347
   78SLPC   C31 7106   2.309   2.942   6.794 -0.3421  0.1043  0.2712
   78SLPC   O32 7107   2.348   3.019   6.882 -0.1489 -0.3364 -0.4768
   78SLPC   C32 7108   2.200   2.843   6.807  0.2993 -0.0994 -0.1523
   78SLPC   H2X 7109   2.216   2.771   6.724 -1.2075 -1.1624  0.4458
   78SLPC   H2Y 7110   2.100   2.890   6.795  0.7944  0.5299 -1.8763
   78SLPC   C23 7111   2.826   3.007   6.963 -0.3101 -0.4406 -0.7552
   78SLPC   H3R 7112   2.737   3.066   6.996  0.5043  1.5353 -2.0222
   78SLPC   H3S 7113   2.898   3.080   6.920 -0.5017 -0.4736 -1.1391
   78SLPC   C24 7114   2.891   2.934   7.082 -0.4998  0.3037  0.1749
   78SLPC   H4R 7115   2.981   2.876   7.052 -1.8391 -1.6184 -0.2203
   78SLPC   H4S 7116   2.813   2.866   7.122  0.9723 -1.2493  0.4888
   78SLPC   C25 7117   2.932   3.028   7.192 -0.3711  0.2995 -0.2303
   78SLPC   H5R 7118   2.845   3.097   7.193 -1.4618 -1.0584  1.6388
   78SLPC   H5S 7119   3.017   3.096   7.168 -1.6923  2.0075 -0.1676
   78SLPC   C26 7120   2.941   2.965   7.331  0.3209 -0.1925 -0.1403
   78SLPC   H6R 7121   2.922   2.856   7.333  1.0197 -0.3208 -0.3216
   78SLPC   H6S 7122   2.854   2.999   7.391 -0.8378 -1.6022 -1.0027
   78SLPC   C27 7123   3.071   3.008   7.407 -0.2076 -0.4678  0.0264
   78SLPC   H7R 7124   3.097   3.115   7.393 -1.2187 -0.4245 -1.6223
   78SLPC   H7S 7125   3.155   2.954   7.358 -0.4903 -1.4656  0.6266
   78SLPC   C28 7126   3.061   2.983   7.555  0.4596 -0.0352 -0.2506
   78SLPC   H8R 7127   3.030   2.877   7.571  0.2572 -0.1188 -1.1630
   78SLPC   H8S 7128   2.974   3.042   7.590 -0.0369 -0.4086 -0.8361
   78SLPC   C29 7129   3.182   3.023   7.639 -0.5073  0.0136  0.2633
   78SLPC   H9R 7130   3.266   2.951   7.632 -1.3658 -0.8461 -1.7003
   78SLPC  C210 7131   3.190   3.131   7.713 -0.4071 -0.4265 -0.1356
   78SLPC  H10R 7132   3.279   3.148   7.775 -0.3145 -0.8970 -0.1343
   78SLPC  C211 7133   3.078   3.224   7.739  0.0521 -0.3120  0.0253
   78SLPC  H11R 7134   3.015   3.231   7.648 -0.1756  1.2310  0.2808
   78SLPC  H11S 7135   3.127   3.324   7.739 -2.1781  0.8145 -0.2360
   78SLPC  C212 7136   2.992   3.195   7.862 -0.5743  0.2102 -0.4046
   78SLPC  H12R 7137   2.907   3.126   7.850 -0.2988 -0.2659  0.3888
   78SLPC  C213 7138   3.009   3.254   7.974 -0.0575  0.1604 -0.0394
   78SLPC  H13R 7139   2.945   3.227   8.059 -1.0280  0.7163 -0.5957
   78SLPC  C214 7140   3.101   3.367   8.005 -0.6391  0.5880  0.3674
   78SLPC  H14R 7141   3.046   3.458   7.976 -0.9038 -0.3737 -2.3461
   78SLPC  H14S 7142   3.196   3.371   7.946  1.3736  0.4273  3.4825
   78SLPC  C215 7143   3.142   3.356   8.155  0.0526  0.4172  0.1310
   78SLPC  H15R 7144   3.048   3.347   8.213 -0.1676 -2.0941 -0.5665
   78SLPC  H15S 7145   3.196   3.447   8.188  0.2314  0.0650  0.8246
   78SLPC  C216 7146   3.236   3.235   8.181 -0.5113 -0.4756 -0.2390
   78SLPC  H16R 7147   3.332   3.243   8.126 -0.0056 -1.9579  0.4016
   78SLPC  H16S 7148   3.172   3.150   8.150 -0.2438 -0.5659 -0.5437
   78SLPC  C217 7149   3.270   3.222   8.332 -0.4130 -0.4998  0.5915
   78SLPC  H17R 7150   3.176   3.251   8.383 -2.4506 -0.4390 -3.0300
   78SLPC  H17S 7151   3.358   3.281   8.366 -1.4990  0.7530  1.2362
   78SLPC  C218 7152   3.310   3.076   8.367  0.4367 -0.1929 -0.7193
   78SLPC  H18R 7153   3.305   3.042   8.473  0.1189  1.7804 -0.0789
   78SLPC  H18S 7154   3.414   3.053   8.334  1.0078  1.6058 -0.2316
   78SLPC  H18T 7155   3.252   2.997   8.314  0.2476  1.0172 -2.3321
   78SLPC   C33 7156   2.211   2.777   6.945  0.5491  0.5059  0.0264
   78SLPC   H3X 7157   2.318   2.755   6.966  0.3339 -0.2594  0.3709
   78SLPC   H3Y 7158   2.155   2.681   6.936  0.2254  0.8770 -1.9648
   78SLPC   C34 7159   2.152   2.860   7.055  0.3728  0.0720 -0.7325
   78SLPC   H4X 7160   2.044   2.882   7.041  0.2423  0.5204  0.8726
   78SLPC   H4Y 7161   2.196   2.963   7.057 -1.9183  1.0643  1.2838
   78SLPC   C35 7162   2.160   2.795   7.197  0.2180  0.3738  0.1277
   78SLPC   H5X 7163   2.242   2.720   7.195  0.0877  0.2236  0.3166
   78SLPC   H5Y 7164   2.074   2.725   7.206 -0.1341  1.0310  1.9973
   78SLPC   C36 7165   2.171   2.895   7.310 -0.0643 -1.0518 -0.3989
   78SLPC   H6X 7166   2.083   2.963   7.310 -0.3901 -1.4561  1.4849
   78SLPC   H6Y 7167   2.262   2.957   7.297  0.3536 -1.4889  0.3880
   78SLPC   C37 7168   2.177   2.824   7.448 -0.5321 -0.7983 -0.0524
   78SLPC   H7X 7169   2.268   2.760   7.453 -0.7090 -0.8964  2.3506
   78SLPC   H7Y 7170   2.088   2.760   7.462 -1.0081 -0.5890 -1.9201
   78SLPC   C38 7171   2.183   2.937   7.554  0.0163 -0.2465 -0.2685
   78SLPC   H8X 7172   2.105   3.011   7.524  1.7550  1.8403  0.2526
   78SLPC   H8Y 7173   2.278   2.990   7.534  0.6304 -1.3035 -0.1629
   78SLPC   C39 7174   2.181   2.892   7.697  0.0762 -0.5967  0.0918
   78SLPC   H9X 7175   2.279   2.844   7.718  1.8139  2.2570 -1.3071
   78SLPC   H9Y 7176   2.098   2.821   7.718  1.3354 -2.0179  0.3415
   78SLPC  C310 7177   2.164   2.993   7.806  1.0662 -0.3155 -0.1072
   78SLPC  H10X 7178   2.063   3.034   7.786  0.3905 -1.0934  1.6205
   78SLPC  H10Y 7179   2.237   3.076   7.793  0.5955  0.1676  0.3530
   78SLPC  C311 7180   2.168   2.930   7.953  0.2009 -0.0901  0.6574
   78SLPC  H11X 7181   2.110   2.835   7.957 -0.5739  0.2090 -2.2055
   78SLPC  H11Y 7182   2.127   3.016   8.011  1.7918  0.4125  1.0639
   78SLPC  C312 7183   2.308   2.903   8.012 -0.1983 -0.0546 -0.3972
   78SLPC  H12X 7184   2.366   2.997   7.998  0.5144 -0.6573 -1.5594
   78SLPC  H12Y 7185   2.353   2.819   7.955  2.6486  0.9127  0.3545
   78SLPC  C313 7186   2.311   2.874   8.166  0.4495  0.2775  0.2619
   78SLPC  H13X 7187   2.283   2.969   8.216 -1.2016 -0.1969  0.2554
   78SLPC  H13Y 7188   2.416   2.847   8.191  0.5753  0.4411 -0.0816
   78SLPC  C314 7189   2.199   2.782   8.212 -0.6848  0.7094  0.4740
   78SLPC  H14X 7190   2.181   2.684   8.162 -1.3871  2.0973 -2.0726
   78SLPC  H14Y 7191   2.104   2.837   8.193  0.4936  2.6513  0.0574
   78SLPC  C315 7192   2.206   2.762   8.366 -0.3572 -0.0975  0.2095
   78SLPC  H15X 7193   2.234   2.862   8.406  0.4748 -0.2808  0.0943
   78SLPC  H15Y 7194   2.287   2.689   8.386  0.3258  0.7269  0.4723
   78SLPC  C316 7195   2.081   2.704   8.434  0.2847 -0.3816 -0.2748
   78SLPC  H16X 7196   1.989   2.761   8.409 -0.4704 -1.7331 -0.5898
   78SLPC  H16Y 7197   2.094   2.702   8.544  0.2402  3.0098 -0.1560
   78SLPC  C317 7198   2.053   2.556   8.397 -0.3191 -0.4438  0.3286
   78SLPC  H17X 7199   2.142   2.490   8.410  0.7480  0.9122  0.1250
   78SLPC  H17Y 7200   2.041   2.560   8.287  2.4495 -0.5765 -0.0347
   78SLPC  C318 7201   1.931   2.486   8.460 -0.2116  0.5760  0.4951
   78SLPC  H18X 7202   1.929   2.381   8.425  0.4532  1.1531 -1.3817
   78SLPC  H18Y 7203   1.849   2.538   8.407 -0.5900  0.0889  0.6037
   78SLPC  H18Z 7204   1.916   2.509   8.567 -1.4359 -0.3950  0.5314
   79SLPC     N 7205   0.100   5.514   6.220 -0.6042 -0.0872 -0.0433
   79SLPC   C13 7206   0.217   5.415   6.201 -0.4859 -0.0578  0.5293
   79SLPC  H13A 7207   0.175   5.315   6.204 -2.9998  0.9767  2.0977
   79SLPC  H13B 7208   0.262   5.431   6.105 -2.0913  2.2956  0.1160
   79SLPC  H13C 7209   0.289   5.426   6.281  0.6845 -2.4773 -0.1456
   79SLPC   C14 7210   0.018   5.505   6.099  0.3785 -0.3731 -0.1929
   79SLPC  H14A 7211   0.070   5.531   6.008 -1.2062 -1.0009 -1.3023
   79SLPC  H14B 7212  -0.019   5.404   6.086 -0.0986 -0.3615  1.0326
   79SLPC  H14C 7213  -0.067   5.570   6.112 -0.0748 -0.8978 -0.5262
   79SLPC   C15 7214   0.170   5.647   6.235 -0.3140 -0.0327  0.0537
   79SLPC  H15A 7215   0.248   5.637   6.309 -0.1936  0.0065 -0.0672
   79SLPC  H15B 7216   0.219   5.665   6.140 -2.4889 -1.1028 -1.3246
   79SLPC  H15C 7217   0.098   5.722   6.264 -1.3136 -1.1406  0.4932
   79SLPC   C12 7218   0.011   5.483   6.338 -0.1448  0.0447 -0.0358
   79SLPC  H12A 7219   0.081   5.470   6.419 -0.4215 -0.9862  0.0377
   79SLPC  H12B 7220  -0.030   5.385   6.320 -1.3335  0.3566  0.8281
   79SLPC   C11 7221  -0.103   5.588   6.369  0.0218 -0.3690  0.4243
   79SLPC  H11A 7222  -0.056   5.685   6.393  2.1375 -1.0422 -0.8418
   79SLPC  H11B 7223  -0.146   5.553   6.466  3.6585 -2.1427  1.4625
   79SLPC     P 7224  -0.349   5.580   6.259 -0.5175  0.4208  0.0880
   79SLPC   O13 7225  -0.414   5.705   6.290 -0.1813 -0.1146 -0.9834
   79SLPC   O14 7226  -0.391   5.521   6.130  0.1417 -0.1317 -0.6332
   79SLPC   O12 7227  -0.197   5.600   6.262  0.1543  0.3145 -0.4990
   79SLPC   O11 7228  -0.370   5.483   6.377  0.4738  0.3955  0.0025
   79SLPC    C1 7229  -0.501   5.466   6.433  0.6325  0.2584 -0.2293
   79SLPC    HA 7230  -0.580   5.466   6.355 -0.8617  0.7586  1.2673
   79SLPC    HB 7231  -0.503   5.360   6.467  2.7669  0.6500  1.2639
   79SLPC    C2 7232  -0.524   5.553   6.564  0.2451 -0.4492  0.2430
   79SLPC    HS 7233  -0.603   5.625   6.533 -2.2239 -2.4658  1.6202
   79SLPC   O21 7234  -0.400   5.617   6.603 -0.1079 -0.4712 -0.2867
   79SLPC   C21 7235  -0.413   5.747   6.639 -0.1412 -0.5501 -0.7263
   79SLPC   O22 7236  -0.517   5.811   6.639 -0.5366 -0.0141  0.2600
   79SLPC   C22 7237  -0.282   5.803   6.683  0.4147  0.3967  0.5212
   79SLPC   H2R 7238  -0.209   5.719   6.682  0.2176  0.2245 -0.2268
   79SLPC   H2S 7239  -0.251   5.879   6.608  2.3370  1.9145  2.7769
   79SLPC    C3 7240  -0.585   5.473   6.684  0.1751 -0.8213  0.1369
   79SLPC    HX 7241  -0.678   5.424   6.647 -0.5192  0.0875  0.6723
   79SLPC    HY 7242  -0.604   5.554   6.757 -2.1149  0.9158 -2.2674
   79SLPC   O31 7243  -0.493   5.381   6.739 -1.1273 -0.1210  0.1034
   79SLPC   C31 7244  -0.537   5.341   6.860 -0.1161  0.1288  0.3544
   79SLPC   O32 7245  -0.645   5.367   6.901  0.3968 -0.0986 -0.4870
   79SLPC   C32 7246  -0.438   5.248   6.926 -0.4051  0.4213 -0.1924
   79SLPC   H2X 7247  -0.335   5.286   6.941 -0.5354  0.7023  0.0046
   79SLPC   H2Y 7248  -0.423   5.161   6.859 -0.7714 -0.5940  1.0325
   79SLPC   C23 7249  -0.300   5.868   6.819  0.0488  0.2242 -0.1237
   79SLPC   H3R 7250  -0.366   5.957   6.812  1.5821  1.4274  0.4732
   79SLPC   H3S 7251  -0.200   5.912   6.838 -1.4751  2.8312  2.2696
   79SLPC   C24 7252  -0.350   5.785   6.934  0.1718 -0.1977  0.0215
   79SLPC   H4R 7253  -0.447   5.737   6.912 -1.0234  3.5311 -3.4813
   79SLPC   H4S 7254  -0.364   5.858   7.016 -0.7068 -0.4538  0.1059
   79SLPC   C25 7255  -0.249   5.685   6.990  0.3672  0.5602 -0.3486
   79SLPC   H5R 7256  -0.159   5.749   7.000 -0.1475  1.0237  1.4692
   79SLPC   H5S 7257  -0.238   5.594   6.928  3.0168  0.6473 -0.0790
   79SLPC   C26 7258  -0.301   5.642   7.129  0.0814 -0.0251 -0.5425
   79SLPC   H6R 7259  -0.401   5.593   7.123  0.0212 -0.4620  2.7741
   79SLPC   H6S 7260  -0.308   5.727   7.201  0.0678 -0.5473  0.0797
   79SLPC   C27 7261  -0.203   5.542   7.194 -0.6567  0.1069 -0.8354
   79SLPC   H7R 7262  -0.111   5.596   7.224  0.4751 -1.3580 -1.5893
   79SLPC   H7S 7263  -0.166   5.467   7.120 -0.5711  0.1211 -0.8080
   79SLPC   C28 7264  -0.276   5.475   7.308  0.2630  0.0444 -0.1394
   79SLPC   H8R 7265  -0.356   5.410   7.267  0.1810  0.4968 -0.6947
   79SLPC   H8S 7266  -0.310   5.562   7.368 -3.3131  0.1476 -2.1713
   79SLPC   C29 7267  -0.179   5.384   7.380 -0.8386 -0.2691 -0.1990
   79SLPC   H9R 7268  -0.136   5.302   7.321  1.1881 -2.3775  3.9692
   79SLPC  C210 7269  -0.158   5.392   7.511  0.1106  0.5234 -0.2395
   79SLPC  H10R 7270  -0.088   5.317   7.550 -0.1387 -0.3716 -1.5236
   79SLPC  C211 7271  -0.222   5.482   7.614 -0.8484 -0.0953  0.2905
   79SLPC  H11R 7272  -0.324   5.447   7.637 -0.4585 -0.6952  1.1406
   79SLPC  H11S 7273  -0.239   5.579   7.562  0.2548 -0.8200 -1.4627
   79SLPC  C212 7274  -0.133   5.490   7.737  0.0977  0.9327 -0.2129
   79SLPC  H12R 7275  -0.024   5.485   7.722  0.5586  1.2471  2.8836
   79SLPC  C213 7276  -0.176   5.513   7.864  0.8328 -0.1457  0.9057
   79SLPC  H13R 7277  -0.097   5.523   7.940  0.3756  0.8187  1.2505
   79SLPC  C214 7278  -0.318   5.516   7.913  0.2367 -0.0965  0.3525
   79SLPC  H14R 7279  -0.386   5.465   7.841 -0.8748 -0.2020  1.4698
   79SLPC  H14S 7280  -0.361   5.618   7.919 -1.4179 -0.6747 -1.1234
   79SLPC  C215 7281  -0.318   5.458   8.049 -0.2150  0.3437  0.6264
   79SLPC  H15R 7282  -0.256   5.517   8.119 -0.8009 -0.3163  1.7158
   79SLPC  H15S 7283  -0.301   5.348   8.052 -1.2580  0.1182 -1.2294
   79SLPC  C216 7284  -0.455   5.452   8.119 -0.2377  0.2397 -0.6273
   79SLPC  H16R 7285  -0.521   5.394   8.050  0.2656 -1.6996  0.4750
   79SLPC  H16S 7286  -0.499   5.554   8.121  2.6760  1.5016  1.7596
   79SLPC  C217 7287  -0.436   5.422   8.267  1.2185  0.1024 -0.1918
   79SLPC  H17R 7288  -0.523   5.453   8.328  1.8720 -1.2329  1.4464
   79SLPC  H17S 7289  -0.352   5.480   8.310  1.7146 -0.7375 -0.0133
   79SLPC  C218 7290  -0.426   5.273   8.304 -0.2011  0.1690 -0.4110
   79SLPC  H18R 7291  -0.326   5.226   8.297 -0.3505 -0.2839  0.3773
   79SLPC  H18S 7292  -0.494   5.222   8.233 -1.6230  0.3555  0.7794
   79SLPC  H18T 7293  -0.467   5.245   8.404  1.0823  1.9423  0.6310
   79SLPC   C33 7294  -0.481   5.196   7.068 -0.1212  0.0839 -0.2677
   79SLPC   H3X 7295  -0.585   5.160   7.087  0.1012  0.1494  1.1561
   79SLPC   H3Y 7296  -0.463   5.285   7.131 -0.5549 -0.4523  0.6303
   79SLPC   C34 7297  -0.377   5.104   7.130 -0.2144 -0.1050 -0.5162
   79SLPC   H4X 7298  -0.281   5.157   7.149 -0.4846  0.4110 -0.6060
   79SLPC   H4Y 7299  -0.352   5.015   7.067  0.1980 -0.2784 -0.1120
   79SLPC   C35 7300  -0.434   5.029   7.261  0.0178  0.1981 -0.0931
   79SLPC   H5X 7301  -0.375   4.938   7.280  0.5127  0.9240  1.9593
   79SLPC   H5Y 7302  -0.540   4.995   7.258 -0.5652  1.7923  1.4335
   79SLPC   C36 7303  -0.439   5.118   7.384  0.0404  0.4880  0.1437
   79SLPC   H6X 7304  -0.520   5.194   7.375 -1.6364 -1.1008  1.5929
   79SLPC   H6Y 7305  -0.345   5.176   7.395 -0.5447  1.1902  1.4834
   79SLPC   C37 7306  -0.501   5.067   7.517  1.0419 -0.2283  0.2995
   79SLPC   H7X 7307  -0.418   5.015   7.571  1.1647  1.5404  1.8583
   79SLPC   H7Y 7308  -0.572   4.987   7.488  1.7310 -0.7931  0.1308
   79SLPC   C38 7309  -0.574   5.164   7.615 -0.4489  0.4071 -0.1019
   79SLPC   H8X 7310  -0.669   5.194   7.565 -0.7596  0.7858  0.7257
   79SLPC   H8Y 7311  -0.514   5.257   7.624  0.0153  0.0142  0.8289
   79SLPC   C39 7312  -0.604   5.106   7.754  0.0933  0.1447  0.1729
   79SLPC   H9X 7313  -0.667   5.015   7.751 -3.1755  2.3412  0.1730
   79SLPC   H9Y 7314  -0.661   5.191   7.795  0.2346  0.4466 -0.2535
   79SLPC  C310 7315  -0.483   5.081   7.840  0.4267  0.1348  0.8876
   79SLPC  H10X 7316  -0.415   5.168   7.854 -1.3762  1.7822 -0.2141
   79SLPC  H10Y 7317  -0.431   4.995   7.792  0.8822 -0.3336  2.2141
   79SLPC  C311 7318  -0.528   5.034   7.977 -0.2681  0.1799  0.3351
   79SLPC  H11X 7319  -0.606   4.956   7.964 -1.9237  1.6329  1.2166
   79SLPC  H11Y 7320  -0.575   5.124   8.023  0.9062  0.9884 -0.0335
   79SLPC  C312 7321  -0.405   4.988   8.068  0.0062 -0.4568 -0.2530
   79SLPC  H12X 7322  -0.341   5.074   8.097 -0.4763  0.3146 -1.4018
   79SLPC  H12Y 7323  -0.346   4.913   8.012 -0.3581 -0.4096 -0.7117
   79SLPC  C313 7324  -0.454   4.913   8.192  0.2734 -0.7913  0.2368
   79SLPC  H13X 7325  -0.512   4.821   8.170 -0.5671 -0.2410  0.1548
   79SLPC  H13Y 7326  -0.515   4.986   8.250  1.0147  0.5251 -0.6207
   79SLPC  C314 7327  -0.333   4.876   8.288 -0.0067 -0.4693 -0.4535
   79SLPC  H14X 7328  -0.271   4.966   8.311 -0.4968 -0.0015 -0.9618
   79SLPC  H14Y 7329  -0.281   4.795   8.232  0.8568 -2.4147  2.9892
   79SLPC  C315 7330  -0.392   4.823   8.418  0.2242  0.7428 -0.0317
   79SLPC  H15X 7331  -0.454   4.732   8.404 -0.4410  1.0385  0.9206
   79SLPC  H15Y 7332  -0.449   4.908   8.462  0.7760  1.1460 -0.0872
   79SLPC  C316 7333  -0.289   4.773   8.515 -0.3585 -0.0267 -0.3621
   79SLPC  H16X 7334  -0.228   4.864   8.535  1.2635 -0.6009 -2.5089
   79SLPC  H16Y 7335  -0.223   4.695   8.473  0.6381  0.0910  0.9682
   79SLPC  C317 7336  -0.349   4.721   8.646  0.0276  0.1950  0.7225
   79SLPC  H17X 7337  -0.389   4.619   8.626 -1.4090  1.4738 -3.4998
   79SLPC  H17Y 7338  -0.443   4.779   8.654  0.6588  1.1384  1.2879
   79SLPC  C318 7339  -0.273   4.734   8.774 -0.5600  0.5807  0.7720
   79SLPC  H18X 7340  -0.257   4.844   8.787  0.9069  0.5499 -0.6814
   79SLPC  H18Y 7341  -0.178   4.677   8.774 -0.8063  0.1319 -1.3964
   79SLPC  H18Z 7342  -0.331   4.704   8.864 -0.2194  2.9734  1.8455
   80SLPC     N 7343   1.071   3.573   6.153 -0.3005 -0.5987 -0.1265
   80SLPC   C13 7344   0.953   3.591   6.055  0.7427  0.4889  0.1202
   80SLPC  H13A 7345   0.867   3.631   6.107 -1.0266 -1.0440 -1.5189
   80SLPC  H13B 7346   0.975   3.666   5.981 -1.5203 -0.2076 -1.3026
   80SLPC  H13C 7347   0.933   3.503   5.995  2.1436 -0.9395  1.6993
   80SLPC   C14 7348   1.076   3.692   6.241 -1.0565  0.3322  0.4950
   80SLPC  H14A 7349   1.168   3.685   6.297 -0.3605  0.8849 -0.5621
   80SLPC  H14B 7350   1.075   3.790   6.195 -1.8025 -0.0113 -0.2345
   80SLPC  H14C 7351   0.991   3.688   6.307 -1.3451  1.2637  0.1902
   80SLPC   C15 7352   1.197   3.571   6.077 -0.3897  0.0419 -0.1984
   80SLPC  H15A 7353   1.209   3.494   6.003 -0.1678 -1.4835  1.4036
   80SLPC  H15B 7354   1.203   3.666   6.025 -1.3510 -0.4295 -1.1709
   80SLPC  H15C 7355   1.281   3.554   6.143 -0.2435 -0.9202 -0.6305
   80SLPC   C12 7356   1.050   3.447   6.236  0.0429  0.9715 -0.5016
   80SLPC  H12A 7357   1.071   3.365   6.168  1.5783  0.8419  0.1071
   80SLPC  H12B 7358   0.946   3.435   6.264 -0.0703  0.7933 -0.9871
   80SLPC   C11 7359   1.140   3.412   6.356 -0.0733  0.1608 -0.1826
   80SLPC  H11A 7360   1.107   3.329   6.422  0.1280 -0.0329 -0.3240
   80SLPC  H11B 7361   1.138   3.498   6.426  0.4147  1.6599 -1.9453
   80SLPC     P 7362   1.314   3.249   6.264 -0.0480  0.3872 -0.2934
   80SLPC   O13 7363   1.218   3.210   6.157  0.3183 -0.4239 -0.2818
   80SLPC   O14 7364   1.464   3.246   6.238 -0.1490  0.0126  0.3235
   80SLPC   O12 7365   1.275   3.392   6.321 -0.0700  0.7315  0.2711
   80SLPC   O11 7366   1.280   3.160   6.393 -1.0096  0.4927  0.6106
   80SLPC    C1 7367   1.350   3.201   6.508  0.2238 -0.4409  0.2388
   80SLPC    HA 7368   1.453   3.162   6.515  0.1604 -0.2786  2.3854
   80SLPC    HB 7369   1.347   3.311   6.529  1.2042 -0.4969  0.6566
   80SLPC    C2 7370   1.270   3.157   6.636 -0.3184  0.1558  0.5488
   80SLPC    HS 7371   1.226   3.061   6.602  1.4822  0.1273 -1.7851
   80SLPC   O21 7372   1.154   3.248   6.653  0.3044  0.2268  0.4462
   80SLPC   C21 7373   1.048   3.209   6.718 -0.4768 -0.0855 -0.4444
   80SLPC   O22 7374   1.023   3.098   6.757  0.1839  0.8449 -0.5219
   80SLPC   C22 7375   0.945   3.329   6.720 -0.6957  0.4827  0.2735
   80SLPC   H2R 7376   1.000   3.425   6.716 -0.7128  0.4716 -0.3520
   80SLPC   H2S 7377   0.881   3.306   6.632  0.2719  2.5709 -1.0000
   80SLPC    C3 7378   1.358   3.148   6.769 -0.3713 -0.0572 -0.0662
   80SLPC    HX 7379   1.438   3.226   6.772  2.1996 -2.5543 -0.8891
   80SLPC    HY 7380   1.411   3.050   6.771 -0.7622 -0.2704 -0.1253
   80SLPC   O31 7381   1.280   3.163   6.892 -0.5476 -0.2810  0.0815
   80SLPC   C31 7382   1.216   3.054   6.934  0.4016  0.1483  0.2632
   80SLPC   O32 7383   1.224   2.945   6.880  0.2023 -0.2810  0.1229
   80SLPC   C32 7384   1.158   3.083   7.072 -0.0251  0.7389 -0.2960
   80SLPC   H2X 7385   1.050   3.060   7.057  0.2576 -1.7760  1.2798
   80SLPC   H2Y 7386   1.180   3.188   7.098  0.4899  0.4708  0.3676
   80SLPC   C23 7387   0.861   3.329   6.850  0.3429  0.3393 -0.5184
   80SLPC   H3R 7388   0.822   3.231   6.884 -2.8304  1.8833  0.5950
   80SLPC   H3S 7389   0.767   3.387   6.833  0.4745  0.3420 -1.2571
   80SLPC   C24 7390   0.934   3.402   6.965  0.6879 -0.2186 -0.3152
   80SLPC   H4R 7391   0.983   3.494   6.926  1.1297  0.2828  1.3945
   80SLPC   H4S 7392   1.026   3.345   6.989  1.1104  0.2540 -0.7946
   80SLPC   C25 7393   0.854   3.426   7.090  0.3093  0.2721  0.7615
   80SLPC   H5R 7394   0.765   3.361   7.093  0.2350  0.2393 -1.4089
   80SLPC   H5S 7395   0.808   3.525   7.072  0.6214 -0.0089 -1.7792
   80SLPC   C26 7396   0.924   3.403   7.222 -0.2045 -0.0992  0.7677
   80SLPC   H6R 7397   1.019   3.457   7.201 -1.8171  2.0205 -1.5379
   80SLPC   H6S 7398   0.941   3.294   7.229  1.0006  0.2157  2.9124
   80SLPC   C27 7399   0.859   3.474   7.340  0.6967  0.4916  0.0364
   80SLPC   H7R 7400   0.770   3.412   7.366 -0.1611  1.5917 -0.2405
   80SLPC   H7S 7401   0.821   3.574   7.311  2.7451  0.9587 -1.1358
   80SLPC   C28 7402   0.952   3.494   7.458 -0.0672 -0.0796  0.6698
   80SLPC   H8R 7403   0.914   3.575   7.525  1.1936  0.1154  1.1761
   80SLPC   H8S 7404   1.045   3.538   7.415 -0.6022  2.6279  2.1122
   80SLPC   C29 7405   0.989   3.367   7.531  0.6904 -0.4558 -0.1287
   80SLPC   H9R 7406   1.022   3.283   7.468  1.2558  0.5346 -1.1749
   80SLPC  C210 7407   0.996   3.356   7.663 -0.3033  0.1618 -1.2410
   80SLPC  H10R 7408   1.008   3.258   7.710 -0.1875  0.7142 -0.1116
   80SLPC  C211 7409   0.968   3.462   7.765 -0.8673 -0.3716 -0.3834
   80SLPC  H11R 7410   0.926   3.554   7.718 -1.5879 -1.1810 -1.3405
   80SLPC  H11S 7411   1.067   3.489   7.807 -1.6800  0.4628  1.0202
   80SLPC  C212 7412   0.877   3.433   7.879  0.6851  0.3963 -0.4882
   80SLPC  H12R 7413   0.790   3.371   7.851 -0.6534  2.2174 -0.4179
   80SLPC  C213 7414   0.899   3.466   8.007 -0.3557 -0.0392 -0.1541
   80SLPC  H13R 7415   0.807   3.448   8.065 -0.4905 -1.4364 -0.7756
   80SLPC  C214 7416   1.005   3.556   8.070 -0.1117 -0.2210 -0.6352
   80SLPC  H14R 7417   1.102   3.537   8.019  0.9306  2.3744  0.3311
   80SLPC  H14S 7418   1.021   3.529   8.176  1.5948  2.3376 -0.1971
   80SLPC  C215 7419   0.987   3.715   8.060 -0.6826  0.2565  0.2702
   80SLPC  H15R 7420   0.983   3.748   7.954 -0.9979 -0.5615  0.0247
   80SLPC  H15S 7421   1.062   3.771   8.120 -0.1336  1.1087 -1.1643
   80SLPC  C216 7422   0.848   3.754   8.124  0.0349 -0.1734 -0.2010
   80SLPC  H16R 7423   0.834   3.714   8.226 -1.6039 -1.6807 -0.9927
   80SLPC  H16S 7424   0.765   3.707   8.066  0.4369 -0.9457 -0.1567
   80SLPC  C217 7425   0.832   3.907   8.140  0.6220 -0.4684 -0.3702
   80SLPC  H17R 7426   0.810   3.940   8.036  0.2268 -3.1477 -1.1935
   80SLPC  H17S 7427   0.922   3.962   8.171  0.2184  0.7505 -1.3330
   80SLPC  C218 7428   0.706   3.950   8.229  1.0165  0.2167 -0.6214
   80SLPC  H18R 7429   0.720   3.904   8.329  0.5525 -0.2852 -0.7827
   80SLPC  H18S 7430   0.608   3.918   8.187  0.8483 -0.6997  0.4513
   80SLPC  H18T 7431   0.701   4.061   8.236  2.1474  0.3428 -1.6577
   80SLPC   C33 7432   1.223   2.981   7.168  0.3263 -1.1587 -0.3415
   80SLPC   H3X 7433   1.334   2.982   7.163  0.3459  1.2757  0.0061
   80SLPC   H3Y 7434   1.204   2.873   7.152  1.1037 -1.2919 -0.3864
   80SLPC   C34 7435   1.176   3.024   7.300 -0.0142 -1.1877  0.6375
   80SLPC   H4X 7436   1.066   3.005   7.300 -0.2072 -0.2452 -1.5183
   80SLPC   H4Y 7437   1.177   3.134   7.310 -1.9019 -1.0285 -0.6272
   80SLPC   C35 7438   1.250   2.958   7.418 -0.3017 -0.6644 -0.5051
   80SLPC   H5X 7439   1.361   2.965   7.422 -0.0207 -2.8218 -3.1202
   80SLPC   H5Y 7440   1.241   2.852   7.387  0.1341 -0.2333 -2.1515
   80SLPC   C36 7441   1.190   2.990   7.558 -0.2757 -0.0110  0.2926
   80SLPC   H6X 7442   1.080   2.986   7.568 -0.3662  3.6784  1.3661
   80SLPC   H6Y 7443   1.218   3.092   7.591 -1.1118 -0.3480  2.0990
   80SLPC   C37 7444   1.245   2.895   7.662 -0.1865 -0.1558 -0.6314
   80SLPC   H7X 7445   1.355   2.902   7.648 -0.1055 -0.9939 -0.4316
   80SLPC   H7Y 7446   1.207   2.795   7.631  0.3867 -0.5856  0.0511
   80SLPC   C38 7447   1.208   2.928   7.803 -0.9533 -0.3533 -0.6148
   80SLPC   H8X 7448   1.217   2.836   7.865  1.9503 -0.0105 -0.4640
   80SLPC   H8Y 7449   1.106   2.970   7.815  0.5898  3.1830  0.7612
   80SLPC   C39 7450   1.305   3.028   7.856 -0.5587  0.6026  0.0822
   80SLPC   H9X 7451   1.275   3.125   7.811 -1.8986 -0.6849 -1.9466
   80SLPC   H9Y 7452   1.410   3.018   7.822 -0.6824 -0.7366  0.0414
   80SLPC  C310 7453   1.300   3.038   8.010 -0.4905 -0.3499 -0.2578
   80SLPC  H10X 7454   1.395   3.091   8.036 -0.4567 -0.7266  0.4265
   80SLPC  H10Y 7455   1.307   2.938   8.059  1.1647  0.4244  1.1713
   80SLPC  C311 7456   1.184   3.119   8.070 -0.5808 -0.0598  0.5377
   80SLPC  H11X 7457   1.088   3.073   8.039 -0.0472  0.6068 -2.2016
   80SLPC  H11Y 7458   1.176   3.228   8.049 -0.0021  0.0159  0.6998
   80SLPC  C312 7459   1.186   3.122   8.226  0.4545 -0.3452 -0.3906
   80SLPC  H12X 7460   1.286   3.167   8.240  0.1580  0.8717 -1.9737
   80SLPC  H12Y 7461   1.175   3.018   8.261 -1.1513  0.0221  0.2773
   80SLPC  C313 7462   1.093   3.221   8.284  0.1556  0.6232 -1.0018
   80SLPC  H13X 7463   0.993   3.172   8.282 -1.2053  3.2438 -0.0191
   80SLPC  H13Y 7464   1.066   3.315   8.232 -1.8442 -0.1737 -1.4374
   80SLPC  C314 7465   1.133   3.232   8.440 -0.0391  0.2777  0.3416
   80SLPC  H14X 7466   1.061   3.304   8.484  0.8374  0.3646  1.6733
   80SLPC  H14Y 7467   1.241   3.260   8.445 -0.4140  1.9859 -0.7234
   80SLPC  C315 7468   1.093   3.105   8.521 -0.0060  0.2979 -0.3765
   80SLPC  H15X 7469   1.153   3.018   8.485  1.1371  1.1525 -0.5827
   80SLPC  H15Y 7470   0.990   3.077   8.491 -0.0355 -0.8768  0.7469
   80SLPC  C316 7471   1.103   3.122   8.668  0.0668  0.4061  0.5078
   80SLPC  H16X 7472   1.086   3.026   8.723  0.2867  0.8744  1.4074
   80SLPC  H16Y 7473   1.022   3.189   8.706  0.5411 -0.3036  2.8849
   80SLPC  C317 7474   1.238   3.188   8.708 -0.1551  0.2109  0.1276
   80SLPC  H17X 7475   1.243   3.295   8.680  1.3199 -0.0450 -0.6436
   80SLPC  H17Y 7476   1.318   3.134   8.653  3.4474  3.0056  2.4484
   80SLPC  C318 7477   1.262   3.177   8.856 -0.1416 -0.0932  0.1349
   80SLPC  H18X 7478   1.288   3.073   8.885  0.0709 -0.1722 -0.3285
   80SLPC  H18Y 7479   1.180   3.213   8.922  2.0195  1.0625  2.2629
   80SLPC  H18Z 7480   1.351   3.234   8.890  0.3965  0.1451 -1.6257
   81SAPS     N 7481   1.417   4.596  11.186  0.2810  0.0964  0.1352
   81SAPS   HN1 7482   1.431   4.556  11.091  0.1387  0.6586 -0.1267
   81SAPS   HN2 7483   1.343   4.540  11.233  0.5483 -0.6993 -0.3924
   81SAPS   HN3 7484   1.360   4.682  11.169  0.0616  0.0756  0.7485
   81SAPS   C12 7485   1.530   4.607  11.267  0.6435 -0.2246 -0.2657
   81SAPS  H12A 7486   1.500   4.646  11.364 -2.5548 -1.7718 -0.5616
   81SAPS   C13 7487   1.603   4.484  11.304  0.3107  0.8376  0.1454
   81SAPS  O13A 7488   1.569   4.374  11.244  0.1232  0.1826 -0.0056
   81SAPS  O13B 7489   1.719   4.494  11.359  0.2840 -0.3241 -0.2400
   81SAPS   C11 7490   1.623   4.720  11.201  0.2352 -0.1059  0.5305
   81SAPS  H11A 7491   1.706   4.756  11.264 -0.5765  1.9793  0.4553
   81SAPS  H11B 7492   1.561   4.811  11.187  0.8712  0.0195 -1.7967
   81SAPS     P 7493   1.794   4.741  11.003 -0.5778 -0.0405  0.2715
   81SAPS   O13 7494   1.846   4.844  11.095 -0.4557  0.1363  0.2467
   81SAPS   O14 7495   1.900   4.643  10.945  0.1685 -0.4847 -0.3748
   81SAPS   O12 7496   1.674   4.669  11.077 -0.0868  0.2893 -0.3988
   81SAPS   O11 7497   1.721   4.814  10.883 -0.5069  0.1382  0.2164
   81SAPS    C1 7498   1.577   4.838  10.896 -0.3983  0.1521  0.0802
   81SAPS    HA 7499   1.520   4.750  10.930  0.6752 -0.9012 -0.8078
   81SAPS    HB 7500   1.553   4.922  10.965 -1.4267 -0.5172  0.5359
   81SAPS    C2 7501   1.515   4.884  10.759  0.7254 -0.0640  0.2747
   81SAPS    HS 7502   1.405   4.871  10.760  1.0409 -3.0552  0.2903
   81SAPS   O21 7503   1.566   4.799  10.653 -0.1407 -0.2124  0.1595
   81SAPS   C21 7504   1.505   4.686  10.616 -0.4619  0.0761  0.1261
   81SAPS   O22 7505   1.430   4.625  10.692  0.3614 -0.6578 -0.0114
   81SAPS   C22 7506   1.552   4.653  10.471  0.3711  0.4857 -0.1080
   81SAPS   H2R 7507   1.498   4.710  10.392  0.5461 -0.8735 -1.2233
   81SAPS   H2S 7508   1.662   4.664  10.460  0.3315 -1.6757 -2.9951
   81SAPS    C3 7509   1.555   5.033  10.729  0.5237  0.0640  0.2203
   81SAPS    HX 7510   1.665   5.051  10.736  0.4033  0.4981  1.0631
   81SAPS    HY 7511   1.514   5.088  10.816 -1.3789  1.1883 -1.3275
   81SAPS   O31 7512   1.482   5.074  10.614 -0.0357  0.1170  0.1136
   81SAPS   C31 7513   1.524   5.050  10.496  0.2371  0.4612  0.4175
   81SAPS   O32 7514   1.633   4.998  10.467  0.1275  0.1358 -0.5527
   81SAPS   C32 7515   1.420   5.111  10.397  0.8653  0.3767 -0.1345
   81SAPS   H2X 7516   1.450   5.203  10.342  1.7516 -0.3851 -0.9430
   81SAPS   H2Y 7517   1.320   5.133  10.441  1.6334  1.8376  0.9050
   81SAPS   C23 7518   1.506   4.504  10.433 -0.6092 -0.1383 -0.5284
   81SAPS   H3R 7519   1.409   4.509  10.379 -1.2315  2.1750  0.7222
   81SAPS   H3S 7520   1.496   4.440  10.523  3.8099 -0.0731  0.1167
   81SAPS   C24 7521   1.613   4.438  10.345  0.1783 -0.0772 -0.0470
   81SAPS   H4R 7522   1.712   4.430  10.395 -0.2728 -0.2538  0.8264
   81SAPS   H4S 7523   1.627   4.498  10.253 -1.3226  1.8802  0.9408
   81SAPS   C25 7524   1.569   4.303  10.285  0.5626 -0.9516 -0.2668
   81SAPS   H5R 7525   1.598   4.215  10.344  5.5120  0.3269 -0.5855
   81SAPS   C26 7526   1.495   4.287  10.171 -1.0251 -0.0424  0.1834
   81SAPS   H6R 7527   1.469   4.181  10.153 -0.4231 -0.0694 -0.5206
   81SAPS   C27 7528   1.450   4.398  10.077  0.7234  0.4197  0.3981
   81SAPS   H7R 7529   1.511   4.386   9.986 -0.6070 -0.5799 -0.3958
   81SAPS   H7S 7530   1.463   4.497  10.126  0.3716  0.1026  1.1492
   81SAPS   C28 7531   1.306   4.386  10.035  0.2667 -0.1441 -0.8436
   81SAPS   H8R 7532   1.238   4.327  10.099  2.3664  0.2741  1.9081
   81SAPS   C29 7533   1.258   4.441   9.916  0.0763  1.0359  0.3743
   81SAPS   H9R 7534   1.154   4.435   9.879  0.2764  1.7442 -0.3252
   81SAPS  C210 7535   1.324   4.527   9.816  0.3080  0.1406 -0.0622
   81SAPS  H10R 7536   1.423   4.562   9.853 -0.0594  1.0867  0.0461
   81SAPS  H10S 7537   1.264   4.617   9.791 -0.7556 -0.8498 -1.1289
   81SAPS  C211 7538   1.340   4.446   9.686  0.5708 -0.3866  1.2607
   81SAPS  H11R 7539   1.397   4.354   9.703  1.3650 -0.2251 -0.4252
   81SAPS  C212 7540   1.321   4.491   9.563  0.8539 -0.2764 -0.5933
   81SAPS  H12R 7541   1.325   4.424   9.475 -1.3394 -0.4038 -0.6201
   81SAPS  C213 7542   1.267   4.629   9.520 -0.2440  0.2006 -0.0457
   81SAPS  H13R 7543   1.323   4.704   9.580 -1.1009  0.8878 -0.0957
   81SAPS  H13S 7544   1.158   4.647   9.532 -0.7356 -0.7475 -2.6410
   81SAPS  C214 7545   1.302   4.670   9.376 -0.3944  0.1116  0.4121
   81SAPS  H14R 7546   1.386   4.740   9.373  0.1767 -0.5514  0.6326
   81SAPS  C215 7547   1.262   4.623   9.258  0.5662 -0.6019  0.2214
   81SAPS  H15R 7548   1.301   4.667   9.166  3.2611  0.3367  1.7647
   81SAPS  C216 7549   1.160   4.517   9.234 -0.0346 -0.0103 -0.3157
   81SAPS  H16R 7550   1.108   4.490   9.328 -1.1025  0.6707 -0.7028
   81SAPS  H16S 7551   1.212   4.424   9.203  1.4643  1.3773 -2.0649
   81SAPS  C217 7552   1.049   4.561   9.133 -0.1159 -0.1595 -0.4780
   81SAPS  H17R 7553   1.007   4.653   9.181 -0.4325 -0.8907  0.6694
   81SAPS  H17S 7554   0.971   4.483   9.143  1.1430 -1.2487  0.9969
   81SAPS  C218 7555   1.078   4.583   8.987  0.0360  0.3031  0.6465
   81SAPS  H18R 7556   1.164   4.652   8.979  0.7663 -0.9374 -3.4380
   81SAPS  H18S 7557   0.991   4.637   8.945  0.2659 -0.4912 -0.8962
   81SAPS  C219 7558   1.104   4.442   8.926 -0.2304 -0.2203 -0.3491
   81SAPS  H19R 7559   1.012   4.380   8.927 -0.3363 -0.0394  1.1456
   81SAPS  H19S 7560   1.177   4.393   8.994 -0.8737  0.7642  1.0635
   81SAPS  C220 7561   1.141   4.440   8.773 -0.4705  0.2279 -0.3893
   81SAPS  H20R 7562   1.243   4.399   8.764 -0.1798  1.2369 -1.9741
   81SAPS  H20S 7563   1.138   4.540   8.725  0.9561  0.7156  0.5035
   81SAPS  H20T 7564   1.058   4.393   8.716 -0.4967 -0.9035  0.5723
   81SAPS   C33 7565   1.387   4.999  10.291 -0.6673 -0.1742  0.2924
   81SAPS   H3X 7566   1.305   4.945  10.343  0.6574 -0.6752  1.9107
   81SAPS   H3Y 7567   1.472   4.929  10.275 -0.3439  0.3634 -0.3565
   81SAPS   C34 7568   1.330   5.060  10.153  0.0020  0.4533  0.5267
   81SAPS   H4X 7569   1.417   5.098  10.096  0.5052  0.2751  1.1657
   81SAPS   H4Y 7570   1.258   5.143  10.171 -0.0068  0.8246 -1.1588
   81SAPS   C35 7571   1.259   4.959  10.049  0.2195 -0.2448 -0.1765
   81SAPS   H5X 7572   1.162   4.924  10.090  0.3404 -2.1491 -1.5003
   81SAPS   H5Y 7573   1.320   4.867  10.043  0.8387 -0.0257  2.0347
   81SAPS   C36 7574   1.232   5.015   9.911 -0.1541  0.0989  0.7106
   81SAPS   H6X 7575   1.318   5.076   9.875 -0.6319  0.1637 -0.3483
   81SAPS   H6Y 7576   1.151   5.090   9.911 -0.6240 -0.3767 -1.0159
   81SAPS   C37 7577   1.204   4.910   9.801 -0.1168 -0.3885 -1.6210
   81SAPS   H7X 7578   1.114   4.849   9.825 -0.2989 -0.0852 -1.5327
   81SAPS   H7Y 7579   1.287   4.838   9.784  1.2303  1.1765 -1.6967
   81SAPS   C38 7580   1.170   4.977   9.665  0.6834  0.3055 -0.1030
   81SAPS   H8X 7581   1.095   5.053   9.695 -0.8549 -1.4247  0.4705
   81SAPS   H8Y 7582   1.109   4.909   9.603 -0.7902  0.2727  1.3711
   81SAPS   C39 7583   1.299   5.031   9.599 -0.1097 -0.2570 -0.4427
   81SAPS   H9X 7584   1.369   4.945   9.586  0.9726  0.3778  1.0050
   81SAPS   H9Y 7585   1.332   5.102   9.678  0.7655 -0.3391 -0.7245
   81SAPS  C310 7586   1.273   5.101   9.466 -0.0565 -0.3307 -1.6197
   81SAPS  H10X 7587   1.359   5.169   9.446 -0.0920  0.5518  0.9415
   81SAPS  H10Y 7588   1.192   5.170   9.497  0.5048 -0.8833  1.2692
   81SAPS  C311 7589   1.247   5.005   9.352 -0.2944 -0.2567  0.2899
   81SAPS  H11X 7590   1.161   4.938   9.375  0.3851 -0.3064  2.8277
   81SAPS  H11Y 7591   1.338   4.942   9.350 -0.2498 -0.1789 -0.6197
   81SAPS  C312 7592   1.210   5.072   9.218  0.8393  0.3295  0.2903
   81SAPS  H12X 7593   1.291   5.145   9.195  0.4683  0.6785  0.0836
   81SAPS  H12Y 7594   1.119   5.135   9.213  1.0897  0.7210  0.6543
   81SAPS  C313 7595   1.211   4.967   9.105 -0.4881  0.3738  0.5420
   81SAPS  H13X 7596   1.129   4.896   9.127 -0.3331  0.0442  0.0663
   81SAPS  H13Y 7597   1.304   4.908   9.107 -1.6731 -1.5649 -0.4171
   81SAPS  C314 7598   1.197   5.035   8.969  0.3218 -0.0066  0.1354
   81SAPS  H14X 7599   1.293   5.080   8.937  1.2482 -1.3673  0.9263
   81SAPS  H14Y 7600   1.124   5.119   8.970  1.2858  0.8417  0.6802
   81SAPS  C315 7601   1.140   4.936   8.871 -0.2969 -0.2246  0.3577
   81SAPS  H15X 7602   1.044   4.900   8.911  0.3492 -1.6937  0.6225
   81SAPS  H15Y 7603   1.211   4.850   8.875 -1.2769 -1.1317 -1.1984
   81SAPS  C316 7604   1.120   4.973   8.717 -0.2603  0.3444 -0.1078
   81SAPS  H16X 7605   1.219   5.003   8.675  0.1723 -2.6187 -1.3018
   81SAPS  H16Y 7606   1.044   5.053   8.708 -0.7030  0.0359  0.8282
   81SAPS  C317 7607   1.077   4.862   8.626 -0.3634 -0.5782 -0.0503
   81SAPS  H17X 7608   1.144   4.774   8.637  0.9009  0.5736  1.7095
   81SAPS  H17Y 7609   1.098   4.907   8.527  0.1380  0.3720  0.4775
   81SAPS  C318 7610   0.936   4.813   8.638  0.7074  0.0666 -0.3440
   81SAPS  H18X 7611   0.899   4.779   8.539 -1.2270  2.4202 -0.4846
   81SAPS  H18Y 7612   0.864   4.887   8.680 -0.1566 -1.6961  1.3365
   81SAPS  H18Z 7613   0.935   4.734   8.716 -1.8671 -0.2546 -0.6639
   82SAPS     N 7614   6.208   3.944  11.162 -0.0555  0.0651 -0.2121
   82SAPS   HN1 7615   6.220   3.886  11.248 -0.9865 -0.8015 -0.6621
   82SAPS   HN2 7616   6.106   3.961  11.148  0.0404  1.3890  0.5874
   82SAPS   HN3 7617   6.247   3.881  11.089 -1.0414 -0.1716 -0.5383
   82SAPS   C12 7618   6.278   4.073  11.166  0.3167 -0.0686  0.2290
   82SAPS  H12A 7619   6.231   4.132  11.088 -1.4609  0.9029  1.9880
   82SAPS   C13 7620   6.282   4.136  11.310  0.2492  0.1256 -0.0664
   82SAPS  O13A 7621   6.242   4.063  11.406 -0.0802 -0.1935  0.1941
   82SAPS  O13B 7622   6.347   4.241  11.328  0.1316 -0.2304  0.2689
   82SAPS   C11 7623   6.424   4.044  11.114 -0.3680 -0.3079  0.6134
   82SAPS  H11A 7624   6.475   3.987  11.194  0.0843 -0.6243  0.1014
   82SAPS  H11B 7625   6.470   4.144  11.098 -0.1579 -0.7979 -2.1147
   82SAPS     P 7626   6.562   3.928  10.923  0.0014  0.0501 -0.6295
   82SAPS   O13 7627   6.631   4.052  10.886 -0.8515 -0.1602 -0.5190
   82SAPS   O14 7628   6.639   3.835  11.010 -0.4521 -0.2012 -0.1652
   82SAPS   O12 7629   6.428   3.962  10.995  0.1604  0.5906  0.3584
   82SAPS   O11 7630   6.507   3.844  10.794 -0.5589 -0.5784  0.5065
   82SAPS    C1 7631   6.599   3.759  10.722  0.1053 -0.1635  0.4722
   82SAPS    HA 7632   6.672   3.714  10.792  0.8312 -1.3420 -1.0117
   82SAPS    HB 7633   6.535   3.674  10.690 -0.3334 -1.0817  3.6617
   82SAPS    C2 7634   6.660   3.841  10.605  0.9166  0.3728 -0.0268
   82SAPS    HS 7635   6.714   3.925  10.654  0.6345  0.6808 -0.2414
   82SAPS   O21 7636   6.558   3.877  10.507  0.0745 -0.8467  0.1562
   82SAPS   C21 7637   6.578   4.008  10.464  0.1078 -0.0211 -0.2193
   82SAPS   O22 7638   6.650   4.090  10.512 -0.0219 -0.1238  0.1652
   82SAPS   C22 7639   6.485   4.041  10.351  0.5615 -0.1495 -0.3292
   82SAPS   H2R 7640   6.399   3.970  10.354  0.4712 -0.0197  0.5014
   82SAPS   H2S 7641   6.441   4.139  10.378  0.8527 -1.0828  3.9044
   82SAPS    C3 7642   6.764   3.763  10.524  0.1742  0.0234 -0.5539
   82SAPS    HX 7643   6.707   3.676  10.485  0.1537 -0.3545  0.3095
   82SAPS    HY 7644   6.844   3.726  10.591 -0.2389  0.3694  0.1415
   82SAPS   O31 7645   6.824   3.839  10.420  0.2848  0.5033 -0.3949
   82SAPS   C31 7646   6.842   3.773  10.301 -0.2785  0.3669  0.1908
   82SAPS   O32 7647   6.825   3.656  10.283 -0.2693 -0.0115  0.2332
   82SAPS   C32 7648   6.881   3.880  10.194 -0.4536  0.6399 -0.3122
   82SAPS   H2X 7649   6.990   3.894  10.209 -0.5738 -2.2313  4.1890
   82SAPS   H2Y 7650   6.825   3.973  10.219 -0.2955  0.4898  0.6015
   82SAPS   C23 7651   6.549   4.041  10.215  0.3922 -0.1318  0.1782
   82SAPS   H3R 7652   6.590   3.939  10.200  1.3625  0.4283 -1.0445
   82SAPS   H3S 7653   6.636   4.109  10.211 -1.1214  1.8838  0.7467
   82SAPS   C24 7654   6.454   4.076  10.097  0.1230  0.2083  1.0695
   82SAPS   H4R 7655   6.357   4.023  10.107 -0.1059 -0.2304 -2.9125
   82SAPS   H4S 7656   6.498   4.035  10.004 -0.9504  0.2841  0.5256
   82SAPS   C25 7657   6.437   4.218  10.072  0.0641 -0.4444  0.1941
   82SAPS   H5R 7658   6.356   4.254  10.137  0.6162  0.1231  0.5754
   82SAPS   C26 7659   6.505   4.302   9.996 -0.4823 -0.3779  0.2668
   82SAPS   H6R 7660   6.473   4.407  10.004  0.0406 -0.1619 -0.3712
   82SAPS   C27 7661   6.618   4.274   9.899 -0.4514 -0.2235  0.0079
   82SAPS   H7R 7662   6.679   4.185   9.925  1.0733  1.3732  2.0604
   82SAPS   H7S 7663   6.702   4.346   9.910 -1.2913  0.9648 -1.1965
   82SAPS   C28 7664   6.581   4.277   9.750  0.5634 -0.8297  0.1503
   82SAPS   H8R 7665   6.565   4.177   9.708  2.0540 -0.7928 -0.5207
   82SAPS   C29 7666   6.588   4.382   9.663 -0.5317  0.4715  0.2023
   82SAPS   H9R 7667   6.547   4.364   9.563 -0.7992  0.2309  0.3595
   82SAPS  C210 7668   6.606   4.527   9.695  0.0928 -0.0710 -0.3946
   82SAPS  H10R 7669   6.648   4.544   9.797  2.1961  0.3848 -1.3163
   82SAPS  H10S 7670   6.512   4.586   9.700  1.3096  1.8095  1.0441
   82SAPS  C211 7671   6.702   4.593   9.600  0.6146 -1.2507  0.7645
   82SAPS  H11R 7672   6.808   4.607   9.625  0.4280 -2.9747  2.6882
   82SAPS  C212 7673   6.667   4.635   9.477 -0.2672 -0.4367  0.1332
   82SAPS  H12R 7674   6.735   4.692   9.411  0.3213 -1.4201 -0.1198
   82SAPS  C213 7675   6.527   4.612   9.430 -0.6390  0.2982  0.4525
   82SAPS  H13R 7676   6.441   4.610   9.501 -2.4733  2.5458 -1.6036
   82SAPS  H13S 7677   6.523   4.512   9.383  0.6604  0.0935  0.7673
   82SAPS  C214 7678   6.487   4.714   9.324  0.2434 -1.1738 -0.3083
   82SAPS  H14R 7679   6.443   4.806   9.365  0.2082 -0.9916 -0.7535
   82SAPS  C215 7680   6.498   4.692   9.192 -0.8291 -0.2610 -0.1897
   82SAPS  H15R 7681   6.457   4.764   9.120  1.7575  1.3679 -0.0992
   82SAPS  C216 7682   6.563   4.568   9.131  0.5563 -0.0441  0.2878
   82SAPS  H16R 7683   6.645   4.536   9.200  1.0828  2.1065  0.6929
   82SAPS  H16S 7684   6.622   4.611   9.047 -1.1204  1.2840 -0.2452
   82SAPS  C217 7685   6.461   4.451   9.109  0.4392  0.0392  0.2356
   82SAPS  H17R 7686   6.409   4.419   9.202 -1.0860  0.0113 -0.6066
   82SAPS  H17S 7687   6.525   4.363   9.088  3.1189  1.4574  2.2287
   82SAPS  C218 7688   6.346   4.480   9.002  0.8249  0.0377  0.2369
   82SAPS  H18R 7689   6.400   4.512   8.910 -1.0331  2.0857 -0.1873
   82SAPS  H18S 7690   6.286   4.566   9.038  1.8634  0.1967  1.5714
   82SAPS  C219 7691   6.255   4.360   8.978 -0.3231 -0.0478 -0.2747
   82SAPS  H19R 7692   6.156   4.394   8.940 -0.4283 -2.2594 -2.1119
   82SAPS  H19S 7693   6.236   4.307   9.074  0.3427 -1.0624 -0.6864
   82SAPS  C220 7694   6.323   4.258   8.881 -0.3051  0.1663  0.1937
   82SAPS  H20R 7695   6.421   4.222   8.919 -1.8268 -2.0210  2.1306
   82SAPS  H20S 7696   6.335   4.319   8.788  0.7749 -0.6261 -0.1981
   82SAPS  H20T 7697   6.259   4.168   8.870 -0.4622  0.5315 -2.1718
   82SAPS   C33 7698   6.847   3.824  10.057 -0.2823  0.5615 -0.0718
   82SAPS   H3X 7699   6.740   3.830  10.030 -0.4304 -1.7205 -0.0714
   82SAPS   H3Y 7700   6.882   3.719  10.054 -0.9574  0.3719 -1.3785
   82SAPS   C34 7701   6.927   3.901   9.955  0.3475  0.1378 -0.0076
   82SAPS   H4X 7702   7.032   3.907   9.989  0.4517 -2.2766  0.1762
   82SAPS   H4Y 7703   6.880   4.001   9.937 -0.7333 -0.4997 -0.7784
   82SAPS   C35 7704   6.919   3.820   9.825  0.1567 -0.8076  0.1123
   82SAPS   H5X 7705   6.813   3.828   9.791  0.3751 -1.8435 -0.8310
   82SAPS   H5Y 7706   6.936   3.711   9.835 -1.8829 -1.2206 -0.5688
   82SAPS   C36 7707   7.004   3.862   9.700 -0.2557 -0.1990 -0.2667
   82SAPS   H6X 7708   6.980   3.804   9.609  0.5047  0.4209 -0.8734
   82SAPS   H6Y 7709   7.115   3.855   9.710 -0.1493  0.2402 -1.0945
   82SAPS   C37 7710   6.970   4.006   9.655 -0.1701 -0.7911  0.3502
   82SAPS   H7X 7711   6.999   4.076   9.736 -0.3078 -0.0813 -0.2146
   82SAPS   H7Y 7712   6.861   4.003   9.636 -0.0578 -0.4189 -0.4024
   82SAPS   C38 7713   7.037   4.072   9.532  0.0140  0.9734  0.3413
   82SAPS   H8X 7714   7.017   3.996   9.453 -0.8887 -0.1036  1.5757
   82SAPS   H8Y 7715   7.145   4.086   9.556  0.4661  1.2301 -1.7116
   82SAPS   C39 7716   6.973   4.211   9.511 -0.3808  0.1483  0.0356
   82SAPS   H9X 7717   7.008   4.294   9.576  0.4681 -2.4258  3.0353
   82SAPS   H9Y 7718   6.864   4.199   9.530 -0.5670  0.0998 -1.0156
   82SAPS  C310 7719   6.983   4.256   9.369  0.2221 -0.4039  1.0005
   82SAPS  H10X 7720   6.954   4.170   9.305 -1.6434 -0.1826  1.5348
   82SAPS  H10Y 7721   7.091   4.277   9.351 -0.0274  0.7440  0.8131
   82SAPS  C311 7722   6.901   4.373   9.325  0.2331  1.1416 -0.1167
   82SAPS  H11X 7723   6.930   4.459   9.388  2.5377  1.2632 -1.2735
   82SAPS  H11Y 7724   6.792   4.352   9.322  0.4089  0.3570 -1.4203
   82SAPS  C312 7725   6.938   4.424   9.183 -0.1128  0.1897 -0.0369
   82SAPS  H12X 7726   7.047   4.444   9.185  0.1394 -1.1296 -0.1299
   82SAPS  H12Y 7727   6.882   4.518   9.167  1.0023  0.7253 -0.8097
   82SAPS  C313 7728   6.916   4.322   9.075  0.3931 -0.3173 -0.3808
   82SAPS  H13X 7729   6.825   4.262   9.098  0.1756  0.5736  1.1211
   82SAPS  H13Y 7730   6.998   4.247   9.078 -1.3017 -2.2079 -0.4910
   82SAPS  C314 7731   6.891   4.393   8.941 -0.4800 -0.0679 -0.0386
   82SAPS  H14X 7732   6.799   4.455   8.948 -0.7035 -0.4317  0.2311
   82SAPS  H14Y 7733   6.886   4.319   8.859  0.7030  0.0159 -0.1941
   82SAPS  C315 7734   7.008   4.489   8.899  0.5833  0.3878 -0.6581
   82SAPS  H15X 7735   7.107   4.441   8.915 -0.0934 -1.1074 -0.8215
   82SAPS  H15Y 7736   7.007   4.582   8.959  2.0706  0.1568 -0.2446
   82SAPS  C316 7737   7.001   4.531   8.747 -0.4944 -0.2264  0.0713
   82SAPS  H16X 7738   7.015   4.439   8.686  1.2602  1.2107 -1.7680
   82SAPS  H16Y 7739   7.086   4.599   8.724 -0.3038 -0.2727  0.6150
   82SAPS  C317 7740   6.867   4.592   8.707 -0.0340 -0.0362  0.5183
   82SAPS  H17X 7741   6.846   4.677   8.776 -0.1811  0.1601  0.2302
   82SAPS  H17Y 7742   6.777   4.527   8.706 -1.5568  2.0248  0.5843
   82SAPS  C318 7743   6.881   4.646   8.563 -0.3435  0.3588 -0.0981
   82SAPS  H18X 7744   6.882   4.563   8.489  0.1006 -0.4223  0.7869
   82SAPS  H18Y 7745   6.969   4.713   8.546  0.7541 -0.9748  0.2377
   82SAPS  H18Z 7746   6.794   4.708   8.532  0.1168  0.6507 -0.8367
   83SAPS     N 7747   2.026   4.899  11.280  0.1880  0.2340 -0.2441
   83SAPS   HN1 7748   2.017   4.989  11.331  2.4784  0.3151  0.0834
   83SAPS   HN2 7749   1.943   4.905  11.218 -1.1797  1.2196  1.6275
   83SAPS   HN3 7750   2.011   4.812  11.335  2.0855 -0.9350 -1.5350
   83SAPS   C12 7751   2.155   4.870  11.208 -0.1829 -0.0314 -0.3218
   83SAPS  H12A 7752   2.229   4.904  11.279  0.4344  1.0404 -1.4570
   83SAPS   C13 7753   2.169   4.719  11.172 -0.5338  0.0881  0.7954
   83SAPS  O13A 7754   2.096   4.634  11.236 -0.3543  0.2845  0.0139
   83SAPS  O13B 7755   2.272   4.682  11.115 -0.2145 -0.1928 -0.5899
   83SAPS   C11 7756   2.157   4.959  11.076 -0.2764  0.3433  0.3632
   83SAPS  H11A 7757   2.074   4.909  11.020 -1.0969  0.3129  1.5899
   83SAPS  H11B 7758   2.254   4.962  11.022 -0.1138 -0.2073  0.6232
   83SAPS     P 7759   2.107   5.223  11.028  0.1261  0.0777  0.0809
   83SAPS   O13 7760   1.974   5.287  11.039  0.1300  0.0443  0.0625
   83SAPS   O14 7761   2.223   5.294  11.083 -0.2299  0.2509  0.2351
   83SAPS   O12 7762   2.106   5.084  11.107 -0.4683 -0.6997 -0.7299
   83SAPS   O11 7763   2.135   5.157  10.878 -0.0900  0.2424 -0.6114
   83SAPS    C1 7764   2.230   5.219  10.791  0.5235 -0.1819  0.3020
   83SAPS    HA 7765   2.296   5.288  10.848  1.4676  0.2478 -1.2665
   83SAPS    HB 7766   2.286   5.144  10.731  0.9116  0.8236 -0.6246
   83SAPS    C2 7767   2.171   5.312  10.685 -0.4723 -0.4276  0.0429
   83SAPS    HS 7768   2.132   5.399  10.741  0.8796  0.7665 -0.8335
   83SAPS   O21 7769   2.072   5.242  10.613 -0.3713  0.5267 -0.1983
   83SAPS   C21 7770   1.964   5.312  10.576 -0.3826  0.1200  0.2886
   83SAPS   O22 7771   1.937   5.424  10.608 -0.2849 -0.0566 -0.0717
   83SAPS   C22 7772   1.874   5.224  10.474 -0.0591 -0.6571 -0.4789
   83SAPS   H2R 7773   1.943   5.164  10.411  0.6645  1.2645 -1.5489
   83SAPS   H2S 7774   1.824   5.152  10.543  0.7417  1.0603  1.9760
   83SAPS    C3 7775   2.272   5.369  10.581  0.1313 -0.1416 -0.1933
   83SAPS    HX 7776   2.304   5.284  10.517 -0.9194 -0.9429  0.3228
   83SAPS    HY 7777   2.357   5.408  10.640  0.2120 -2.6379  1.4046
   83SAPS   O31 7778   2.217   5.472  10.501 -0.1653  0.1496  0.3554
   83SAPS   C31 7779   2.203   5.589  10.558  0.2068 -0.0720  0.1848
   83SAPS   O32 7780   2.243   5.616  10.673  0.2958 -0.5176  0.0525
   83SAPS   C32 7781   2.141   5.689  10.452  0.4436 -0.4537 -0.8651
   83SAPS   H2X 7782   2.038   5.720  10.481  0.6863 -0.0416 -0.4362
   83SAPS   H2Y 7783   2.146   5.643  10.351  0.8389  0.0321 -1.0660
   83SAPS   C23 7784   1.786   5.309  10.391  0.2598 -0.0216  0.2348
   83SAPS   H3R 7785   1.728   5.381  10.452  0.0447  0.6250 -0.7127
   83SAPS   H3S 7786   1.719   5.231  10.349 -0.0012 -1.2807  2.8969
   83SAPS   C24 7787   1.852   5.385  10.276  0.4647  0.3392  0.5264
   83SAPS   H4R 7788   1.903   5.321  10.201  0.1204 -0.3257  0.8570
   83SAPS   H4S 7789   1.923   5.461  10.314  0.8645  0.2729 -0.0732
   83SAPS   C25 7790   1.734   5.462  10.219  0.7852 -0.4863 -0.9286
   83SAPS   H5R 7791   1.684   5.535  10.285 -0.9759 -0.6309 -2.0524
   83SAPS   C26 7792   1.676   5.426  10.107 -0.3136 -0.1784  0.4942
   83SAPS   H6R 7793   1.590   5.487  10.073 -0.2239 -0.1776  0.2685
   83SAPS   C27 7794   1.716   5.312  10.021 -0.1547  0.0605  0.3254
   83SAPS   H7R 7795   1.765   5.230  10.078  1.7248 -0.8424 -2.4918
   83SAPS   H7S 7796   1.791   5.348   9.948  0.2323  2.9504  2.0710
   83SAPS   C28 7797   1.598   5.243   9.958 -0.7882  0.4876 -0.2761
   83SAPS   H8R 7798   1.583   5.144  10.003 -1.2780  0.0879 -1.3104
   83SAPS   C29 7799   1.517   5.291   9.865  0.9135 -0.2215  0.8994
   83SAPS   H9R 7800   1.430   5.227   9.845 -0.0009  1.1674  0.3004
   83SAPS  C210 7801   1.517   5.422   9.801  0.4434  0.1282  0.1809
   83SAPS  H10R 7802   1.474   5.505   9.861 -1.1812 -1.4730  1.2796
   83SAPS  H10S 7803   1.429   5.422   9.733 -0.3947  1.4321  1.2427
   83SAPS  C211 7804   1.640   5.475   9.734  0.4313  0.4931 -0.5959
   83SAPS  H11R 7805   1.734   5.486   9.791  1.8135 -0.9717 -2.5100
   83SAPS  C212 7806   1.650   5.515   9.607  0.4519  1.0546  0.6832
   83SAPS  H12R 7807   1.749   5.545   9.570  0.0008  1.4774 -0.1768
   83SAPS  C213 7808   1.544   5.516   9.496 -0.1078 -0.0576  0.6179
   83SAPS  H13R 7809   1.445   5.564   9.516 -1.0724 -1.0020 -1.6972
   83SAPS  H13S 7810   1.513   5.411   9.480  0.9185 -0.5956  2.0912
   83SAPS  C214 7811   1.601   5.556   9.359  0.2079  0.2085 -0.0837
   83SAPS  H14R 7812   1.677   5.635   9.364 -0.1515  0.5909 -0.7045
   83SAPS  C215 7813   1.579   5.509   9.236 -0.5069  0.2374  0.1879
   83SAPS  H15R 7814   1.650   5.541   9.159  0.5682  0.9040  1.4347
   83SAPS  C216 7815   1.478   5.401   9.203 -0.7019 -0.6221 -0.2329
   83SAPS  H16R 7816   1.417   5.389   9.295 -1.6063 -0.6261 -0.8372
   83SAPS  H16S 7817   1.524   5.303   9.176  0.8288  0.2953 -1.0442
   83SAPS  C217 7818   1.371   5.455   9.110  0.0712  0.3800 -0.0055
   83SAPS  H17R 7819   1.327   5.557   9.116 -1.2446 -0.0914 -1.4911
   83SAPS  H17S 7820   1.286   5.385   9.098  0.1774  0.5419 -1.7926
   83SAPS  C218 7821   1.429   5.447   8.963 -0.3369 -0.1830  0.1737
   83SAPS  H18R 7822   1.451   5.340   8.942 -1.1233 -0.3101 -0.0125
   83SAPS  H18S 7823   1.525   5.503   8.971 -0.8103  0.5094  1.0858
   83SAPS  C219 7824   1.335   5.510   8.858 -0.2675 -0.6080 -0.5897
   83SAPS  H19R 7825   1.384   5.523   8.759  0.4707  1.6762  0.0264
   83SAPS  H19S 7826   1.298   5.611   8.885 -0.7945 -1.3455  1.4712
   83SAPS  C220 7827   1.211   5.426   8.830  0.2697 -0.4287 -0.2449
   83SAPS  H20R 7828   1.149   5.477   8.754  0.4744 -1.3202 -1.0081
   83SAPS  H20S 7829   1.143   5.397   8.913 -2.3267  0.1971 -2.0924
   83SAPS  H20T 7830   1.246   5.332   8.784 -0.7273 -0.8741 -0.1019
   83SAPS   C33 7831   2.219   5.822  10.451 -0.3264  0.3692 -0.0505
   83SAPS   H3X 7832   2.323   5.790  10.428 -0.6482 -1.8257  1.3941
   83SAPS   H3Y 7833   2.208   5.857  10.556 -3.3138 -0.3439 -0.0829
   83SAPS   C34 7834   2.177   5.926  10.349  0.7054 -0.2414 -0.0865
   83SAPS   H4X 7835   2.222   6.025  10.371 -0.5823  0.0017  1.6097
   83SAPS   H4Y 7836   2.071   5.956  10.364  0.7622 -0.2619  0.3669
   83SAPS   C35 7837   2.214   5.882  10.207 -0.5858  0.3690  0.9584
   83SAPS   H5X 7838   2.172   5.781  10.188  1.7730 -0.1202 -2.1325
   83SAPS   H5Y 7839   2.322   5.870  10.185 -1.3101  0.1338 -2.7448
   83SAPS   C36 7840   2.165   5.974  10.096  0.1072  0.1973  0.1403
   83SAPS   H6X 7841   2.202   6.078  10.111  0.4844 -0.2401  2.3154
   83SAPS   H6Y 7842   2.054   5.981  10.107  0.0541 -0.7699  0.2046
   83SAPS   C37 7843   2.178   5.910   9.958 -1.1150  0.3975 -0.5494
   83SAPS   H7X 7844   2.165   5.801   9.972 -3.2991  0.6180 -0.6684
   83SAPS   H7Y 7845   2.282   5.938   9.931 -0.8598 -0.0208 -0.0063
   83SAPS   C38 7846   2.076   5.967   9.860 -0.5575  0.0702  0.1850
   83SAPS   H8X 7847   2.065   6.078   9.864 -0.3249  0.0753  0.9301
   83SAPS   H8Y 7848   1.973   5.933   9.886 -0.2587 -1.1715 -0.2522
   83SAPS   C39 7849   2.110   5.939   9.707 -0.1711 -0.0101  0.1462
   83SAPS   H9X 7850   2.181   5.853   9.698 -2.3600 -1.7400 -0.9511
   83SAPS   H9Y 7851   2.168   6.022   9.661 -1.3362  1.9215  2.0914
   83SAPS  C310 7852   1.980   5.909   9.623 -0.2452  0.1210  0.1422
   83SAPS  H10X 7853   1.924   6.004   9.617  3.0113  2.0058 -1.3992
   83SAPS  H10Y 7854   1.912   5.838   9.674  1.7690 -1.6149  0.4953
   83SAPS  C311 7855   2.004   5.852   9.478 -0.0814 -0.3868  0.4029
   83SAPS  H11X 7856   2.026   5.744   9.492 -1.1580 -0.7145 -0.3610
   83SAPS  H11Y 7857   2.084   5.911   9.427  0.1242 -0.3142  0.8089
   83SAPS  C312 7858   1.881   5.850   9.390  0.5342 -0.0675 -0.1895
   83SAPS  H12X 7859   1.840   5.953   9.382  1.0981  0.2750  1.1213
   83SAPS  H12Y 7860   1.803   5.780   9.427  1.2629 -0.6828  0.1897
   83SAPS  C313 7861   1.915   5.787   9.250 -0.7872 -0.1295  0.8379
   83SAPS  H13X 7862   1.923   5.677   9.254  0.7710 -0.1061 -0.9236
   83SAPS  H13Y 7863   2.012   5.834   9.225 -1.3675  0.0332 -1.2078
   83SAPS  C314 7864   1.811   5.828   9.149  0.0124 -0.0283 -0.1765
   83SAPS  H14X 7865   1.818   5.938   9.131 -1.3975  0.7675  3.5800
   83SAPS  H14Y 7866   1.709   5.818   9.190 -0.4111 -0.1262 -1.2417
   83SAPS  C315 7867   1.822   5.750   9.012  0.8254  0.2483 -0.5455
   83SAPS  H15X 7868   1.859   5.646   9.026  1.0130  0.3969  0.0707
   83SAPS  H15Y 7869   1.910   5.796   8.961  0.9509 -1.2452 -1.6864
   83SAPS  C316 7870   1.699   5.741   8.925  0.7419 -0.5958 -0.8060
   83SAPS  H16X 7871   1.668   5.846   8.907  0.5239  0.0202  2.8309
   83SAPS  H16Y 7872   1.613   5.708   8.986 -1.4211  2.9614 -1.8129
   83SAPS  C317 7873   1.701   5.651   8.793  0.3153  0.9799  0.3690
   83SAPS  H17X 7874   1.604   5.657   8.739 -0.5905 -4.0285  1.2076
   83SAPS  H17Y 7875   1.711   5.543   8.819 -1.3686  1.1214  1.6739
   83SAPS  C318 7876   1.808   5.699   8.695  1.1352 -0.2946 -0.6417
   83SAPS  H18X 7877   1.804   5.809   8.681 -0.6929 -0.5397 -2.1534
   83SAPS  H18Y 7878   1.799   5.637   8.604  0.6148 -2.5104  0.8811
   83SAPS  H18Z 7879   1.907   5.679   8.742  0.9760 -0.1453 -0.2373
   84SAPS     N 7880   3.797   4.590  11.116 -0.2452  0.2697 -0.3487
   84SAPS   HN1 7881   3.841   4.588  11.022 -0.0089  3.9662 -0.3757
   84SAPS   HN2 7882   3.799   4.680  11.168 -1.3724  1.2157 -1.8959
   84SAPS   HN3 7883   3.861   4.528  11.170 -0.5951 -1.0334 -1.3989
   84SAPS   C12 7884   3.656   4.531  11.114 -0.4386  0.1902  0.2681
   84SAPS  H12A 7885   3.652   4.459  11.034  0.6685  0.8315 -0.3799
   84SAPS   C13 7886   3.619   4.454  11.242 -0.0398  0.5789 -0.4407
   84SAPS  O13A 7887   3.712   4.419  11.320  0.8952 -0.3616  0.1475
   84SAPS  O13B 7888   3.500   4.413  11.259 -0.3041 -0.3892 -0.3257
   84SAPS   C11 7889   3.550   4.640  11.094 -0.6481  0.5248 -0.0310
   84SAPS  H11A 7890   3.542   4.713  11.178  0.2559  2.8959 -1.9457
   84SAPS  H11B 7891   3.447   4.598  11.088 -1.1535  1.7790 -0.3219
   84SAPS     P 7892   3.560   4.875  10.961 -0.5958  0.0766  0.3475
   84SAPS   O13 7893   3.424   4.917  11.000 -0.0812 -0.2698 -0.5687
   84SAPS   O14 7894   3.668   4.935  11.040  0.8747  0.1613  0.2050
   84SAPS   O12 7895   3.577   4.714  10.971  0.0915  0.1971  0.6229
   84SAPS   O11 7896   3.586   4.897  10.809 -0.2855 -0.6686 -0.1597
   84SAPS    C1 7897   3.619   4.799  10.714  0.0425  0.2095  0.3143
   84SAPS    HA 7898   3.720   4.758  10.737 -0.9524 -1.6432  1.5233
   84SAPS    HB 7899   3.536   4.725  10.707 -0.8746  1.1072  1.4783
   84SAPS    C2 7900   3.628   4.873  10.578 -0.0448  0.1195  0.4220
   84SAPS    HS 7901   3.696   4.959  10.594  0.7426  0.1794 -2.7291
   84SAPS   O21 7902   3.492   4.902  10.530  0.4510  0.0508  0.1693
   84SAPS   C21 7903   3.480   5.013  10.457  0.6913  0.2271 -0.5295
   84SAPS   O22 7904   3.563   5.104  10.446 -0.3263 -0.5594  0.0045
   84SAPS   C22 7905   3.356   5.007  10.380  0.5386  0.0985 -0.3366
   84SAPS   H2R 7906   3.362   5.059  10.282 -1.1214  0.1094 -0.4473
   84SAPS   H2S 7907   3.338   4.900  10.358 -1.9055  1.1613 -3.7532
   84SAPS    C3 7908   3.702   4.793  10.468  0.4706 -0.2256  0.1106
   84SAPS    HX 7909   3.801   4.765  10.508  0.4718  0.1393  0.3640
   84SAPS    HY 7910   3.723   4.850  10.375  1.8844 -1.2108 -0.1829
   84SAPS   O31 7911   3.632   4.668  10.446 -0.2442  0.1432 -0.1554
   84SAPS   C31 7912   3.549   4.673  10.340  0.0359  0.3327  0.0876
   84SAPS   O32 7913   3.541   4.763  10.261  0.2440 -0.1513 -0.3628
   84SAPS   C32 7914   3.459   4.549  10.347  0.0509 -0.4240  0.3789
   84SAPS   H2X 7915   3.364   4.568  10.401  0.3888  1.3262  0.4119
   84SAPS   H2Y 7916   3.500   4.466  10.407 -1.3222  1.1701  3.6614
   84SAPS   C23 7917   3.242   5.058  10.469  0.2601 -0.3260 -0.9170
   84SAPS   H3R 7918   3.260   5.163  10.502 -1.4685 -0.2166 -0.2659
   84SAPS   H3S 7919   3.224   4.985  10.550  1.0315  1.7739  1.2226
   84SAPS   C24 7920   3.119   5.057  10.373  0.2597  0.1153 -0.0072
   84SAPS   H4R 7921   3.133   5.145  10.305  2.0119 -1.2484 -1.4777
   84SAPS   H4S 7922   3.029   5.079  10.434  0.4587  0.8228  0.0424
   84SAPS   C25 7923   3.097   4.923  10.306  0.0937 -0.3640 -0.3034
   84SAPS   H5R 7924   3.076   4.847  10.383  1.4047 -1.5850 -1.1274
   84SAPS   C26 7925   3.107   4.898  10.171 -0.1177 -0.3405  0.2394
   84SAPS   H6R 7926   3.085   4.798  10.131 -0.2505 -0.3869  0.4253
   84SAPS   C27 7927   3.140   4.999  10.060 -0.3970  0.3406  0.7204
   84SAPS   H7R 7928   3.152   5.095  10.114 -0.2939  0.1922  0.9649
   84SAPS   H7S 7929   3.056   5.001   9.987 -0.2626  0.8922  0.5802
   84SAPS   C28 7930   3.259   4.983   9.979  0.5840  0.5357 -0.2815
   84SAPS   H8R 7931   3.342   4.951  10.043 -2.1897 -1.5680  2.4104
   84SAPS   C29 7932   3.265   4.972   9.844 -1.1555 -0.8386 -0.3547
   84SAPS   H9R 7933   3.363   4.947   9.802 -1.3979 -0.1213 -1.3640
   84SAPS  C210 7934   3.162   5.000   9.740 -0.5044 -0.3112 -0.3632
   84SAPS  H10R 7935   3.072   5.046   9.787 -1.1378 -0.7145 -1.1670
   84SAPS  H10S 7936   3.126   4.904   9.698  0.7703 -0.2698 -1.5738
   84SAPS  C211 7937   3.205   5.097   9.638 -0.8126  0.5169  0.0710
   84SAPS  H11R 7938   3.223   5.198   9.678  0.7138 -0.3794  1.7487
   84SAPS  C212 7939   3.227   5.078   9.516 -0.0895 -0.5398  0.0627
   84SAPS  H12R 7940   3.264   5.167   9.464 -0.4796 -0.3867  0.0497
   84SAPS  C213 7941   3.199   4.950   9.430 -0.1137  0.6156  0.2121
   84SAPS  H13R 7942   3.095   4.952   9.392 -0.6101 -2.2394  1.3134
   84SAPS  H13S 7943   3.220   4.858   9.488  0.1220  0.7221  0.2948
   84SAPS  C214 7944   3.272   4.925   9.300 -0.6362  0.2419 -0.6017
   84SAPS  H14R 7945   3.338   4.838   9.295 -1.7334 -0.5457 -1.6762
   84SAPS  C215 7946   3.247   4.988   9.182  0.3923  0.5253 -0.1044
   84SAPS  H15R 7947   3.307   4.960   9.093  1.0821  2.2860 -0.2034
   84SAPS  C216 7948   3.142   5.092   9.159 -0.2982  0.5518 -0.2017
   84SAPS  H16R 7949   3.161   5.152   9.068 -1.7555  1.1421 -0.1256
   84SAPS  H16S 7950   3.145   5.165   9.243 -0.1070  0.1462  0.1468
   84SAPS  C217 7951   3.002   5.029   9.148  0.5638  0.3356  0.3440
   84SAPS  H17R 7952   2.921   5.105   9.141  0.9471  0.7781  0.7251
   84SAPS  H17S 7953   2.967   4.984   9.243 -0.9246 -1.5798 -1.0337
   84SAPS  C218 7954   2.979   4.935   9.023 -0.4911 -0.5517 -0.2229
   84SAPS  H18R 7955   3.061   4.859   9.016 -1.1808 -1.1417 -2.4582
   84SAPS  H18S 7956   2.997   4.998   8.933 -0.7365  0.7152  0.6094
   84SAPS  C219 7957   2.844   4.876   9.002 -0.2887 -0.0243  0.5013
   84SAPS  H19R 7958   2.775   4.962   9.016 -1.3455 -0.8766  0.6217
   84SAPS  H19S 7959   2.819   4.804   9.083 -1.9984  0.0473  0.0689
   84SAPS  C220 7960   2.819   4.816   8.864  0.1782 -0.5226  0.2082
   84SAPS  H20R 7961   2.894   4.735   8.852  2.1001  1.2086  0.1585
   84SAPS  H20S 7962   2.829   4.881   8.775  0.7149 -1.2218 -0.2495
   84SAPS  H20T 7963   2.720   4.767   8.859  0.3175 -0.9146  1.0810
   84SAPS   C33 7964   3.409   4.507  10.205  0.3615 -0.2029 -0.0176
   84SAPS   H3X 7965   3.367   4.406  10.221  0.0803  0.2813  2.4669
   84SAPS   H3Y 7966   3.487   4.490  10.128 -0.5690 -1.3407 -0.7217
   84SAPS   C34 7967   3.306   4.596  10.134 -0.0606  0.4824  0.3560
   84SAPS   H4X 7968   3.346   4.699  10.119  0.6814  0.1076 -0.3047
   84SAPS   H4Y 7969   3.215   4.605  10.196 -0.6500  1.4161 -0.6291
   84SAPS   C35 7970   3.256   4.545  10.000 -0.0488  0.8020 -0.1415
   84SAPS   H5X 7971   3.170   4.613   9.983 -1.1377 -0.1057  1.5686
   84SAPS   H5Y 7972   3.221   4.440  10.010 -2.2771  1.5254  0.0189
   84SAPS   C36 7973   3.353   4.580   9.884  0.1246 -0.9172 -0.2420
   84SAPS   H6X 7974   3.428   4.499   9.878 -0.4147 -1.3886 -0.6183
   84SAPS   H6Y 7975   3.390   4.684   9.899 -2.3174 -0.0728  0.1178
   84SAPS   C37 7976   3.269   4.575   9.754 -0.0818 -0.5941  0.3342
   84SAPS   H7X 7977   3.183   4.642   9.775  1.1317  1.1736 -0.2196
   84SAPS   H7Y 7978   3.230   4.472   9.739 -0.0839 -0.7212  1.1910
   84SAPS   C38 7979   3.344   4.613   9.624  0.4710  0.6477 -0.9170
   84SAPS   H8X 7980   3.425   4.671   9.673 -1.1072  0.9938  1.3483
   84SAPS   H8Y 7981   3.294   4.681   9.552 -0.9340  0.0998 -0.4686
   84SAPS   C39 7982   3.396   4.494   9.549 -0.4852 -0.1142 -0.0599
   84SAPS   H9X 7983   3.320   4.421   9.514  1.6739 -1.2554 -2.5871
   84SAPS   H9Y 7984   3.476   4.446   9.609 -0.4532 -0.8403 -0.6757
   84SAPS  C310 7985   3.454   4.536   9.412 -0.4337 -0.1741  0.1942
   84SAPS  H10X 7986   3.539   4.605   9.430 -1.0798  0.7663 -0.3059
   84SAPS  H10Y 7987   3.374   4.595   9.363  2.2437  0.0131 -4.2176
   84SAPS  C311 7988   3.497   4.416   9.318 -0.3201  0.6327 -0.3901
   84SAPS  H11X 7989   3.402   4.377   9.274  0.5773 -2.3741  0.2251
   84SAPS  H11Y 7990   3.533   4.335   9.384  0.8102  0.3193 -1.3598
   84SAPS  C312 7991   3.598   4.455   9.211  0.2651  0.0262  0.0893
   84SAPS  H12X 7992   3.609   4.369   9.142  0.2601 -0.2429  0.4207
   84SAPS  H12Y 7993   3.700   4.460   9.256  0.0698  1.9746  0.3885
   84SAPS  C313 7994   3.567   4.585   9.140 -0.3346 -0.0236  0.5199
   84SAPS  H13X 7995   3.618   4.657   9.208  1.3247 -1.2022  0.5698
   84SAPS  H13Y 7996   3.458   4.607   9.139 -0.2075  0.7069  1.5517
   84SAPS  C314 7997   3.629   4.594   8.998  0.5075 -0.5510  0.3855
   84SAPS  H14X 7998   3.598   4.509   8.933 -0.4288  1.2974 -1.6523
   84SAPS  H14Y 7999   3.740   4.589   9.000  0.6734  1.2618 -1.5800
   84SAPS  C315 8000   3.626   4.737   8.945  0.3146 -0.5955  0.2544
   84SAPS  H15X 8001   3.705   4.788   9.004  0.8998  0.3509 -1.2970
   84SAPS  H15Y 8002   3.527   4.787   8.956  0.0225 -1.0390 -0.3333
   84SAPS  C316 8003   3.664   4.744   8.794 -0.1380 -0.2755 -0.3641
   84SAPS  H16X 8004   3.596   4.676   8.738  0.4000  1.3771 -3.1348
   84SAPS  H16Y 8005   3.766   4.704   8.778 -0.6795 -0.5987 -3.3441
   84SAPS  C317 8006   3.653   4.881   8.726 -0.5849 -0.8640 -0.4638
   84SAPS  H17X 8007   3.672   4.867   8.617 -3.2869 -2.8917 -0.7156
   84SAPS  H17Y 8008   3.731   4.947   8.770 -2.4872  1.4152 -0.4537
   84SAPS  C318 8009   3.521   4.957   8.749  0.6843  1.3968 -0.2221
   84SAPS  H18X 8010   3.437   4.885   8.736  1.8463 -0.2651  1.2683
   84SAPS  H18Y 8011   3.518   5.039   8.674  1.8081  0.8085 -0.9195
   84SAPS  H18Z 8012   3.512   4.984   8.857 -1.3495 -1.0200  0.2682
   85SAPS     N 8013   1.124   6.724  11.106  0.1752  0.1419  0.0588
   85SAPS   HN1 8014   1.153   6.657  11.031 -1.0348  0.5458 -0.7836
   85SAPS   HN2 8015   1.053   6.781  11.057  0.1499 -0.1677 -0.2708
   85SAPS   HN3 8016   1.205   6.783  11.133  1.8314 -1.4802 -1.1822
   85SAPS   C12 8017   1.048   6.674  11.221 -0.4980  0.2596 -0.3922
   85SAPS  H12A 8018   1.078   6.575  11.252 -2.2114  0.3572  1.6939
   85SAPS   C13 8019   1.063   6.759  11.349 -0.4378 -0.5114  0.2162
   85SAPS  O13A 8020   1.127   6.868  11.349  0.0257  0.1280  0.5832
   85SAPS  O13B 8021   1.011   6.721  11.457 -0.0309  0.0074  0.1321
   85SAPS   C11 8022   0.896   6.682  11.185 -0.2958 -0.3221  0.2199
   85SAPS  H11A 8023   0.866   6.783  11.151 -0.4924 -1.3066 -2.6487
   85SAPS  H11B 8024   0.825   6.669  11.270  0.9727 -1.7801  1.0809
   85SAPS     P 8025   0.756   6.484  11.069 -0.2588  0.6700  0.1811
   85SAPS   O13 8026   0.764   6.382  11.182 -0.0254  0.1246 -0.0908
   85SAPS   O14 8027   0.626   6.552  11.038  0.0797  0.3591  0.2580
   85SAPS   O12 8028   0.869   6.594  11.076  0.2161 -0.0329 -0.0605
   85SAPS   O11 8029   0.799   6.410  10.937 -0.0806  0.5272 -0.2781
   85SAPS    C1 8030   0.930   6.367  10.908  0.2919 -0.2191 -0.5502
   85SAPS    HA 8031   0.994   6.458  10.906  0.7666 -0.5364  0.0848
   85SAPS    HB 8032   0.969   6.303  10.990 -1.9248  1.0185  1.5326
   85SAPS    C2 8033   0.946   6.292  10.776 -0.0628 -0.4535 -0.0191
   85SAPS    HS 8034   1.054   6.267  10.769  0.6007  1.6077  2.3715
   85SAPS   O21 8035   0.898   6.365  10.662 -0.2392 -0.0300  0.0229
   85SAPS   C21 8036   0.969   6.468  10.633 -0.2212 -0.5055 -0.0236
   85SAPS   O22 8037   1.076   6.502  10.686 -0.0918  0.9526 -0.2797
   85SAPS   C22 8038   0.898   6.540  10.522 -0.1062  0.0396  0.0067
   85SAPS   H2R 8039   0.790   6.514  10.527  0.1155 -0.6911  1.4239
   85SAPS   H2S 8040   0.911   6.650  10.524 -1.8646  0.2669 -0.4721
   85SAPS    C3 8041   0.883   6.152  10.780 -0.6314 -0.2487 -0.3025
   85SAPS    HX 8042   0.788   6.157  10.837  0.1712 -1.5833  1.2090
   85SAPS    HY 8043   0.947   6.092  10.849 -0.8502 -1.9878 -1.5930
   85SAPS   O31 8044   0.871   6.083  10.651 -0.1769  1.0383  0.5331
   85SAPS   C31 8045   0.757   6.075  10.597  0.4380  0.1858  0.2956
   85SAPS   O32 8046   0.657   6.141  10.623  0.0176 -0.0346 -0.0545
   85SAPS   C32 8047   0.748   5.966  10.482 -0.4281  0.1703  0.0990
   85SAPS   H2X 8048   0.644   5.931  10.463 -0.2633 -0.1744 -0.1950
   85SAPS   H2Y 8049   0.789   5.874  10.529 -1.7575 -0.3044  0.3543
   85SAPS   C23 8050   0.949   6.482  10.390  0.7049 -0.8162 -0.0180
   85SAPS   H3R 8051   0.921   6.377  10.371 -2.0972 -0.3686  1.4092
   85SAPS   H3S 8052   1.060   6.487  10.390  0.7611  0.3108 -4.2032
   85SAPS   C24 8053   0.896   6.568  10.272  0.0081 -0.5574 -0.7887
   85SAPS   H4R 8054   0.916   6.677  10.282 -0.5476 -0.4154 -1.2395
   85SAPS   H4S 8055   0.787   6.549  10.267 -0.2730  0.2281  1.8327
   85SAPS   C25 8056   0.963   6.521  10.146  0.2669 -0.0626 -0.5407
   85SAPS   H5R 8057   1.072   6.517  10.162  0.3071 -1.0179 -1.0348
   85SAPS   C26 8058   0.913   6.497  10.026 -0.1247 -0.1298 -0.2563
   85SAPS   H6R 8059   0.981   6.462   9.947  0.3838  0.1108  0.0726
   85SAPS   C27 8060   0.770   6.501   9.975 -0.1684 -0.3723 -0.5060
   85SAPS   H7R 8061   0.752   6.585   9.904  1.0479  0.4538  0.1417
   85SAPS   H7S 8062   0.708   6.517  10.065  0.6357 -0.6632  0.1053
   85SAPS   C28 8063   0.747   6.367   9.913  0.0125  0.0486  0.2690
   85SAPS   H8R 8064   0.733   6.285   9.984  0.1265  0.1385  0.3956
   85SAPS   C29 8065   0.740   6.338   9.786 -0.1449  0.5995 -0.0911
   85SAPS   H9R 8066   0.729   6.234   9.754 -2.1052  0.6822  0.2574
   85SAPS  C210 8067   0.766   6.431   9.664 -0.1405 -0.4274 -0.3297
   85SAPS  H10R 8068   0.875   6.445   9.652 -0.1571  0.7680  0.8271
   85SAPS  H10S 8069   0.743   6.536   9.691  0.5366 -0.4952  0.5425
   85SAPS  C211 8070   0.695   6.393   9.537  0.1783  0.1230 -0.2011
   85SAPS  H11R 8071   0.674   6.285   9.537  0.4882  0.0475  2.1322
   85SAPS  C212 8072   0.684   6.469   9.424 -0.1162 -0.4081  0.4090
   85SAPS  H12R 8073   0.629   6.434   9.335 -1.2253  1.1058  0.4791
   85SAPS  C213 8074   0.740   6.609   9.417  0.7747  0.3188 -0.0771
   85SAPS  H13R 8075   0.846   6.598   9.385  0.8033 -0.2276  0.1946
   85SAPS  H13S 8076   0.758   6.650   9.518 -0.7373  4.2208 -1.2925
   85SAPS  C214 8077   0.654   6.685   9.318 -0.1480 -0.2285  0.4654
   85SAPS  H14R 8078   0.547   6.684   9.347 -0.0791  0.7084  0.7802
   85SAPS  C215 8079   0.698   6.763   9.217  0.0636 -0.4420  0.5913
   85SAPS  H15R 8080   0.615   6.818   9.171 -0.1589 -0.6683  0.7194
   85SAPS  C216 8081   0.839   6.788   9.183 -0.3171 -0.9273 -0.0172
   85SAPS  H16R 8082   0.902   6.743   9.262 -2.1932 -2.5530  0.5958
   85SAPS  H16S 8083   0.863   6.896   9.184 -0.3593 -0.9320  1.4101
   85SAPS  C217 8084   0.886   6.715   9.059  0.5254 -0.3576  0.8374
   85SAPS  H17R 8085   0.832   6.620   9.040 -1.4076  1.0686 -1.0943
   85SAPS  H17S 8086   0.995   6.695   9.065  0.5344 -0.1546  1.4297
   85SAPS  C218 8087   0.871   6.790   8.925  0.2842  0.8659  0.4888
   85SAPS  H18R 8088   0.913   6.731   8.842 -0.2536  0.4488  0.5084
   85SAPS  H18S 8089   0.934   6.881   8.930 -1.0720  1.7672  1.9075
   85SAPS  C219 8090   0.720   6.820   8.884  0.5209 -0.0865  0.0499
   85SAPS  H19R 8091   0.671   6.886   8.959 -0.0623 -0.8067  0.3037
   85SAPS  H19S 8092   0.665   6.724   8.883  1.4286 -0.6046 -0.4854
   85SAPS  C220 8093   0.703   6.881   8.745  0.0680 -0.1224  0.3264
   85SAPS  H20R 8094   0.770   6.828   8.674 -0.0160  0.6137 -0.3222
   85SAPS  H20S 8095   0.714   6.991   8.760 -1.9055  0.3177 -1.0623
   85SAPS  H20T 8096   0.601   6.871   8.701 -0.8061  2.8631  1.5245
   85SAPS   C33 8097   0.819   6.002  10.344 -0.7454  0.1098 -0.1273
   85SAPS   H3X 8098   0.927   6.002  10.367 -0.6168  2.3454 -0.6126
   85SAPS   H3Y 8099   0.805   6.110  10.320  0.2621  1.1519  3.6574
   85SAPS   C34 8100   0.795   5.903  10.225  0.4341  0.3419  0.2753
   85SAPS   H4X 8101   0.685   5.890  10.216  0.6663 -1.9093  0.3880
   85SAPS   H4Y 8102   0.845   5.805  10.241  0.8881  0.8549  2.1406
   85SAPS   C35 8103   0.859   5.965  10.097 -0.3298 -0.2738  0.5758
   85SAPS   H5X 8104   0.967   5.941  10.093 -0.7134 -2.0674  0.2868
   85SAPS   H5Y 8105   0.854   6.076  10.098  0.4734 -0.2409  1.7310
   85SAPS   C36 8106   0.782   5.910   9.966 -0.0995 -0.7044  0.3485
   85SAPS   H6X 8107   0.674   5.932   9.979  0.1588  0.1058  1.1601
   85SAPS   H6Y 8108   0.792   5.800   9.980 -1.5673 -0.5817  2.6166
   85SAPS   C37 8109   0.848   5.972   9.840  0.2144 -0.4035  0.0083
   85SAPS   H7X 8110   0.955   5.947   9.827  0.2736  0.3394 -1.0919
   85SAPS   H7Y 8111   0.851   6.083   9.844 -0.3605 -0.4782  3.1901
   85SAPS   C38 8112   0.780   5.928   9.712  0.0486  0.9761  0.5905
   85SAPS   H8X 8113   0.675   5.963   9.721 -0.2233 -0.2693  2.3442
   85SAPS   H8Y 8114   0.781   5.818   9.698 -2.2114  0.8275  1.3790
   85SAPS   C39 8115   0.841   5.978   9.586 -0.0925  0.1727 -0.3069
   85SAPS   H9X 8116   0.937   5.924   9.568  1.3597  2.0539  1.5759
   85SAPS   H9Y 8117   0.861   6.087   9.589  2.8681 -0.3886  3.3093
   85SAPS  C310 8118   0.773   5.950   9.456  0.0128 -0.5388 -0.3206
   85SAPS  H10X 8119   0.671   5.991   9.441 -0.8352 -2.4692  0.0693
   85SAPS  H10Y 8120   0.752   5.841   9.448  1.9844 -0.8279 -2.1847
   85SAPS  C311 8121   0.858   5.981   9.329  0.4025 -0.2501  0.6417
   85SAPS  H11X 8122   0.967   5.966   9.342  0.5425  2.5292  3.3394
   85SAPS  H11Y 8123   0.846   6.091   9.315 -2.4728 -0.7321 -1.0721
   85SAPS  C312 8124   0.809   5.921   9.197 -0.3623  0.5203 -0.6606
   85SAPS  H12X 8125   0.701   5.939   9.176 -0.4375 -0.8075 -1.5203
   85SAPS  H12Y 8126   0.811   5.812   9.219  1.6371  0.9848  1.5958
   85SAPS  C313 8127   0.899   5.963   9.070 -0.7584 -0.2219 -0.5467
   85SAPS  H13X 8128   0.999   5.920   9.093  0.1671  1.7957 -0.7332
   85SAPS  H13Y 8129   0.900   6.074   9.076 -1.2010 -0.3169  1.6006
   85SAPS  C314 8130   0.839   5.908   8.945  0.3031 -0.6052  0.1480
   85SAPS  H14X 8131   0.735   5.944   8.935  0.7302  0.8784  0.8169
   85SAPS  H14Y 8132   0.839   5.797   8.950 -1.5085 -0.5972  0.3789
   85SAPS  C315 8133   0.912   5.945   8.810 -0.4138  0.1065 -0.1198
   85SAPS  H15X 8134   1.016   5.906   8.812 -0.2478  0.5094 -0.8080
   85SAPS  H15Y 8135   0.919   6.055   8.802  0.5201 -0.0917 -2.7312
   85SAPS  C316 8136   0.858   5.888   8.680 -0.1025  0.0935 -0.2699
   85SAPS  H16X 8137   0.859   5.777   8.673 -1.7045  0.0460  0.0597
   85SAPS  H16Y 8138   0.920   5.924   8.595  0.9927 -1.2263 -0.0579
   85SAPS  C317 8139   0.714   5.941   8.649  0.4488  0.3711 -0.1025
   85SAPS  H17X 8140   0.713   6.050   8.670 -2.2472  0.3443  0.0374
   85SAPS  H17Y 8141   0.647   5.887   8.719 -0.3138  1.7768  0.2596
   85SAPS  C318 8142   0.685   5.906   8.506 -0.5345 -1.3379  0.2063
   85SAPS  H18X 8143   0.733   5.983   8.441  0.7590 -2.0735  0.2685
   85SAPS  H18Y 8144   0.580   5.921   8.475  0.0398  1.8757 -0.4418
   85SAPS  H18Z 8145   0.708   5.802   8.477  0.6266 -0.7785 -0.9370
   86SAPS     N 8146   2.620   6.229  11.187 -0.3805 -0.0954 -0.3266
   86SAPS   HN1 8147   2.583   6.195  11.278  0.9195  0.0850  0.2747
   86SAPS   HN2 8148   2.590   6.328  11.177 -1.2662 -0.0256  2.4999
   86SAPS   HN3 8149   2.580   6.164  11.115  2.5456 -1.6900 -0.5944
   86SAPS   C12 8150   2.771   6.219  11.187 -0.7807  0.1845 -0.0664
   86SAPS  H12A 8151   2.810   6.281  11.266  0.5961  0.2264 -0.7688
   86SAPS   C13 8152   2.825   6.077  11.228 -0.0880 -0.4840 -1.0107
   86SAPS  O13A 8153   2.745   6.007  11.299  0.2439 -0.4528  1.0245
   86SAPS  O13B 8154   2.947   6.077  11.267 -0.2077  0.3006  0.2129
   86SAPS   C11 8155   2.835   6.270  11.056  0.0211  0.2767 -0.2697
   86SAPS  H11A 8156   2.946   6.273  11.064  0.2150  1.5205 -2.7210
   86SAPS  H11B 8157   2.799   6.375  11.050 -2.2448 -0.4388  0.3533
   86SAPS     P 8158   2.886   6.186  10.805 -0.8142  0.4699  0.2717
   86SAPS   O13 8159   2.994   6.080  10.810 -0.5270 -0.0121  0.0935
   86SAPS   O14 8160   2.790   6.167  10.691 -0.0770  0.2779  0.0277
   86SAPS   O12 8161   2.804   6.193  10.941 -0.6185 -0.2149 -0.0631
   86SAPS   O11 8162   2.945   6.336  10.800 -0.3462 -0.5206 -1.1225
   86SAPS    C1 8163   2.859   6.442  10.777  0.2534  0.3261 -0.1211
   86SAPS    HA 8164   2.751   6.419  10.775  0.3691 -0.3494  1.0643
   86SAPS    HB 8165   2.870   6.515  10.861  0.9003  0.0413  0.0469
   86SAPS    C2 8166   2.893   6.519  10.650  0.4553 -0.1707  0.3559
   86SAPS    HS 8167   2.818   6.601  10.645  1.8964  1.4201  3.4504
   86SAPS   O21 8168   2.884   6.438  10.535 -0.3036  0.3963 -0.0862
   86SAPS   C21 8169   2.760   6.389  10.499  0.2615  0.0955  0.6200
   86SAPS   O22 8170   2.655   6.420  10.557  0.0500  0.3536  0.1626
   86SAPS   C22 8171   2.773   6.286  10.387  0.3866 -0.5109 -0.1624
   86SAPS   H2R 8172   2.876   6.246  10.385  0.3236 -0.6433 -1.8409
   86SAPS   H2S 8173   2.705   6.203  10.416 -1.6507  0.9064 -0.7776
   86SAPS    C3 8174   3.030   6.591  10.664  0.2690  0.5270  0.3239
   86SAPS    HX 8175   3.102   6.513  10.699  1.2228  1.7497  1.1025
   86SAPS    HY 8176   3.022   6.664  10.747  0.8476 -3.2613  3.8585
   86SAPS   O31 8177   3.068   6.662  10.542  0.2449 -1.0540  0.2019
   86SAPS   C31 8178   3.201   6.683  10.535 -0.6715 -0.5538  0.6480
   86SAPS   O32 8179   3.289   6.644  10.618  0.4282  0.1002  0.1742
   86SAPS   C32 8180   3.236   6.776  10.424 -0.4799 -0.3880 -0.1493
   86SAPS   H2X 8181   3.323   6.837  10.456  0.0294 -0.2601 -1.7221
   86SAPS   H2Y 8182   3.153   6.847  10.404 -0.2215 -0.0395 -0.0067
   86SAPS   C23 8183   2.743   6.345  10.249  0.0096 -0.2410 -0.2191
   86SAPS   H3R 8184   2.760   6.266  10.173  3.1318  0.8944 -0.7526
   86SAPS   H3S 8185   2.817   6.425  10.227 -0.4223 -0.1408 -1.3392
   86SAPS   C24 8186   2.599   6.388  10.221 -0.6343  0.0148 -0.2983
   86SAPS   H4R 8187   2.618   6.439  10.124  3.8365 -0.1879  0.3592
   86SAPS   H4S 8188   2.555   6.454  10.299  0.2761  2.2180 -1.5812
   86SAPS   C25 8189   2.514   6.264  10.198 -0.5498 -0.1196  0.3920
   86SAPS   H5R 8190   2.477   6.211  10.287 -1.7468 -1.9409 -1.1599
   86SAPS   C26 8191   2.471   6.215  10.081  0.4705  0.1164 -0.2382
   86SAPS   H6R 8192   2.427   6.115  10.073  1.4891 -0.5387  1.9332
   86SAPS   C27 8193   2.511   6.288   9.955  0.7365  0.0183  0.5002
   86SAPS   H7R 8194   2.619   6.265   9.943  0.4090  0.0416 -2.9792
   86SAPS   H7S 8195   2.497   6.398   9.967  1.6220  0.1230  0.6545
   86SAPS   C28 8196   2.440   6.241   9.834  0.3557  0.5859 -0.3191
   86SAPS   H8R 8197   2.338   6.211   9.861  0.2120  1.7563  0.5030
   86SAPS   C29 8198   2.483   6.212   9.708  0.1157  0.0077 -0.3619
   86SAPS   H9R 8199   2.412   6.169   9.636  0.1238  1.5682 -1.3243
   86SAPS  C210 8200   2.625   6.215   9.656 -0.1705  0.6018 -0.5928
   86SAPS  H10R 8201   2.640   6.160   9.561  0.8516 -1.1841  0.5666
   86SAPS  H10S 8202   2.697   6.180   9.734 -0.3983  1.7145  0.1190
   86SAPS  C211 8203   2.662   6.354   9.631  0.2598 -0.6297  0.5346
   86SAPS  H11R 8204   2.657   6.416   9.722  0.6482 -1.9295  1.4510
   86SAPS  C212 8205   2.693   6.416   9.514  0.6146 -0.3736  0.1140
   86SAPS  H12R 8206   2.712   6.525   9.518 -0.1532 -0.1940 -1.1491
   86SAPS  C213 8207   2.701   6.357   9.377  0.1537 -0.0227 -0.3227
   86SAPS  H13R 8208   2.641   6.264   9.372 -1.1067  0.5991  2.6036
   86SAPS  H13S 8209   2.799   6.309   9.359 -1.0494 -1.3256 -3.9921
   86SAPS  C214 8210   2.650   6.445   9.258  0.3467 -0.3654 -0.5377
   86SAPS  H14R 8211   2.568   6.512   9.288 -0.0307 -0.7908 -0.6030
   86SAPS  C215 8212   2.711   6.452   9.142  0.0913 -0.0569 -0.4063
   86SAPS  H15R 8213   2.670   6.519   9.065  0.3522  0.4280 -0.1239
   86SAPS  C216 8214   2.829   6.380   9.097 -1.0886 -0.4562 -0.0249
   86SAPS  H16R 8215   2.871   6.306   9.168 -0.7000  1.1278  1.4256
   86SAPS  H16S 8216   2.908   6.450   9.063  1.6161 -2.0830  2.5973
   86SAPS  C217 8217   2.807   6.288   8.972  0.1572 -0.3847  0.4813
   86SAPS  H17R 8218   2.721   6.227   9.007  1.8196 -2.1637  1.4943
   86SAPS  H17S 8219   2.901   6.230   8.960  0.0132 -0.7738  1.2550
   86SAPS  C218 8220   2.779   6.367   8.845  0.4391 -0.5011  0.0270
   86SAPS  H18R 8221   2.862   6.441   8.834 -0.3890  0.6472  1.3749
   86SAPS  H18S 8222   2.680   6.414   8.858 -0.0826 -1.7466  0.5812
   86SAPS  C219 8223   2.775   6.283   8.715  0.4847  0.5969 -0.3929
   86SAPS  H19R 8224   2.866   6.223   8.696 -0.7397 -1.3059 -0.3683
   86SAPS  H19S 8225   2.766   6.354   8.630 -0.5653  1.7059  0.6214
   86SAPS  C220 8226   2.647   6.192   8.711  0.0935  0.6172  0.8352
   86SAPS  H20R 8227   2.648   6.129   8.619 -1.0160 -1.0953  1.9536
   86SAPS  H20S 8228   2.550   6.247   8.709 -1.3186 -1.8505 -2.4076
   86SAPS  H20T 8229   2.652   6.115   8.792  0.5436 -1.8245 -1.4531
   86SAPS   C33 8230   3.269   6.704  10.287  0.8393 -0.2040 -0.0126
   86SAPS   H3X 8231   3.174   6.654  10.257  1.4513 -0.7539 -1.0323
   86SAPS   H3Y 8232   3.343   6.622  10.290  3.6920  2.2909 -0.5877
   86SAPS   C34 8233   3.318   6.804  10.181  0.2079  0.0835  0.1174
   86SAPS   H4X 8234   3.419   6.831  10.221 -0.3487  0.1997  1.4755
   86SAPS   H4Y 8235   3.261   6.899  10.176 -0.2636 -0.0795  1.9910
   86SAPS   C35 8236   3.332   6.748  10.037  0.1123  0.1021 -0.2928
   86SAPS   H5X 8237   3.240   6.691  10.013 -0.8766  1.3652  0.4615
   86SAPS   H5Y 8238   3.409   6.668  10.040 -0.1255 -0.0815  1.4497
   86SAPS   C36 8239   3.366   6.846   9.924 -0.3661 -0.7763  0.0010
   86SAPS   H6X 8240   3.455   6.901   9.962 -1.5522  0.4535  1.0451
   86SAPS   H6Y 8241   3.280   6.917   9.921 -0.9876 -1.5639 -1.4541
   86SAPS   C37 8242   3.387   6.786   9.787  0.4683 -0.2067  1.0792
   86SAPS   H7X 8243   3.297   6.724   9.764  0.9290 -0.1173 -1.1689
   86SAPS   H7Y 8244   3.456   6.699   9.785  0.2922 -0.3397 -0.3781
   86SAPS   C38 8245   3.390   6.891   9.674 -0.8318  1.0156  0.4596
   86SAPS   H8X 8246   3.470   6.967   9.686 -1.1419  1.3845  0.1621
   86SAPS   H8Y 8247   3.294   6.947   9.679 -1.1494  0.3483  2.7126
   86SAPS   C39 8248   3.399   6.825   9.537  0.2061  0.7931  0.6367
   86SAPS   H9X 8249   3.317   6.750   9.535  0.1691  0.8351  0.6114
   86SAPS   H9Y 8250   3.492   6.767   9.518 -1.7461 -3.1497  2.4135
   86SAPS  C310 8251   3.377   6.925   9.424 -0.4155 -0.7061  0.2055
   86SAPS  H10X 8252   3.434   7.016   9.450 -1.2657 -0.2079  0.3328
   86SAPS  H10Y 8253   3.269   6.951   9.417 -0.4035 -1.0108 -1.2875
   86SAPS  C311 8254   3.413   6.850   9.291  0.3725 -0.5069  0.6727
   86SAPS  H11X 8255   3.321   6.795   9.262  1.3227 -1.5511 -0.4365
   86SAPS  H11Y 8256   3.498   6.779   9.294  0.9196  0.1307  0.4626
   86SAPS  C312 8257   3.442   6.950   9.177 -0.8892  0.6455 -0.2453
   86SAPS  H12X 8258   3.507   7.031   9.216  0.5025 -0.7118  0.3437
   86SAPS  H12Y 8259   3.360   7.015   9.140 -0.6779  1.2726  0.3700
   86SAPS  C313 8260   3.504   6.874   9.053  0.1176 -0.1676 -0.4689
   86SAPS  H13X 8261   3.431   6.791   9.041  2.5274 -2.2585 -1.1115
   86SAPS  H13Y 8262   3.604   6.830   9.070  0.0042 -1.3724 -2.7238
   86SAPS  C314 8263   3.513   6.976   8.936  0.4236 -0.4159  0.2665
   86SAPS  H14X 8264   3.590   7.050   8.967  0.7981  0.0164 -1.6304
   86SAPS  H14Y 8265   3.414   7.024   8.923 -0.0974 -2.0817 -2.1360
   86SAPS  C315 8266   3.561   6.909   8.807  0.2570 -0.2876 -1.1973
   86SAPS  H15X 8267   3.487   6.830   8.782 -1.1493 -0.0627  2.0130
   86SAPS  H15Y 8268   3.661   6.874   8.840  0.3203  0.6419 -0.3848
   86SAPS  C316 8269   3.572   7.015   8.695  0.4724  0.6813 -0.1657
   86SAPS  H16X 8270   3.670   6.998   8.644 -0.0024  0.5200 -1.0379
   86SAPS  H16Y 8271   3.587   7.115   8.741 -1.1377 -0.0755  2.0916
   86SAPS  C317 8272   3.455   7.028   8.597  0.2371  0.0483 -0.1603
   86SAPS  H17X 8273   3.493   7.092   8.514  1.2390  0.6523  0.7419
   86SAPS  H17Y 8274   3.372   7.071   8.657  2.7494  2.1624  1.9517
   86SAPS  C318 8275   3.412   6.899   8.535  0.0548  0.3729 -0.3568
   86SAPS  H18X 8276   3.318   6.909   8.476  0.8490  1.5000 -1.4586
   86SAPS  H18Y 8277   3.391   6.820   8.610  0.5560 -0.6256 -1.2495
   86SAPS  H18Z 8278   3.488   6.863   8.462  0.7899  0.8737  0.1531
   87SAPS     N 8279   2.797   0.301  11.305  0.2899  0.7034 -0.0356
   87SAPS   HN1 8280   2.738   0.349  11.376 -0.4373 -1.8500  1.1127
   87SAPS   HN2 8281   2.753   0.220  11.257 -2.8744  1.5501  1.3464
   87SAPS   HN3 8282   2.880   0.276  11.363 -1.9793 -0.7413  2.7019
   87SAPS   C12 8283   2.829   0.398  11.199  1.2599  0.0096 -0.4141
   87SAPS  H12A 8284   2.741   0.397  11.136  2.1973  1.5484 -1.7904
   87SAPS   C13 8285   2.853   0.538  11.248  0.9234  0.1359  0.0604
   87SAPS  O13A 8286   2.878   0.562  11.375 -0.2700 -0.1144  0.5099
   87SAPS  O13B 8287   2.861   0.631  11.164 -0.0526  0.6848  0.4351
   87SAPS   C11 8288   2.951   0.336  11.126 -0.7077  0.0668  0.1826
   87SAPS  H11A 8289   3.039   0.344  11.193 -0.6845 -1.2266  0.3290
   87SAPS  H11B 8290   2.982   0.399  11.040 -1.0957 -0.1096 -0.0886
   87SAPS     P 8291   3.039   0.142  10.977  0.1645  0.1261 -0.4814
   87SAPS   O13 8292   3.175   0.198  11.010  0.8816 -0.3268 -0.7249
   87SAPS   O14 8293   3.034  -0.006  10.972 -0.0725 -0.0399  0.5516
   87SAPS   O12 8294   2.935   0.199  11.090  0.1193 -0.3281 -0.0576
   87SAPS   O11 8295   2.983   0.203  10.840  0.1205 -0.0277 -0.2986
   87SAPS    C1 8296   2.847   0.158  10.800  0.8183 -0.5555  0.4419
   87SAPS    HA 8297   2.850   0.051  10.771  5.5909 -1.0055  2.2159
   87SAPS    HB 8298   2.787   0.180  10.891  0.3036  1.0222 -0.2529
   87SAPS    C2 8299   2.778   0.227  10.683  0.6162  0.3875  0.5593
   87SAPS    HS 8300   2.673   0.198  10.704  1.1218 -1.3817  0.6796
   87SAPS   O21 8301   2.821   0.190  10.549  0.3042  0.3046  0.1363
   87SAPS   C21 8302   2.765   0.080  10.502  0.3093  0.0347 -0.1930
   87SAPS   O22 8303   2.689   0.008  10.569 -0.1831  0.1999  0.7237
   87SAPS   C22 8304   2.809   0.063  10.358  0.2763  0.3443 -0.8630
   87SAPS   H2R 8305   2.766   0.147  10.300  0.8562  1.1546 -0.1341
   87SAPS   H2S 8306   2.919   0.060  10.340  0.3069 -1.6777 -0.4605
   87SAPS    C3 8307   2.796   0.384  10.687  0.1416  0.1251  0.2398
   87SAPS    HX 8308   2.899   0.416  10.665  0.4650  0.6958  2.4920
   87SAPS    HY 8309   2.775   0.413  10.792 -0.0013 -0.3182  0.3351
   87SAPS   O31 8310   2.708   0.445  10.590 -0.3268 -0.4092  0.4334
   87SAPS   C31 8311   2.715   0.586  10.594  0.0100  0.3609  0.4801
   87SAPS   O32 8312   2.770   0.650  10.680  0.3242 -0.8038  0.3855
   87SAPS   C32 8313   2.642   0.646  10.475 -0.2497  0.8368 -0.2929
   87SAPS   H2X 8314   2.651   0.756  10.480 -0.5386  0.8711 -0.4601
   87SAPS   H2Y 8315   2.534   0.618  10.476  0.2390 -1.0955  1.2314
   87SAPS   C23 8316   2.745  -0.062  10.299  0.3254 -0.0223 -0.2190
   87SAPS   H3R 8317   2.635  -0.069  10.315 -0.0265 -0.5291 -2.7223
   87SAPS   H3S 8318   2.806  -0.138  10.353 -0.3627 -1.1807 -1.0530
   87SAPS   C24 8319   2.766  -0.068  10.146 -0.1994 -0.7314 -0.1440
   87SAPS   H4R 8320   2.712   0.021  10.106  1.2705  1.3402  2.2834
   87SAPS   H4S 8321   2.727  -0.163  10.103 -0.7213 -0.1598 -0.9550
   87SAPS   C25 8322   2.915  -0.056  10.102 -0.3627  0.5224 -0.0748
   87SAPS   H5R 8323   2.980  -0.134  10.144 -2.2246 -2.0750 -1.9420
   87SAPS   C26 8324   2.964   0.034  10.011 -0.0771  0.3143 -0.4274
   87SAPS   H6R 8325   3.071   0.049   9.992 -0.5770  0.8867 -3.0585
   87SAPS   C27 8326   2.881   0.144   9.941  0.5167  0.6840 -0.4084
   87SAPS   H7R 8327   2.821   0.207  10.010 -0.2162 -0.7291  0.2701
   87SAPS   H7S 8328   2.798   0.109   9.876  0.2823  3.6833 -1.8082
   87SAPS   C28 8329   2.969   0.237   9.865  0.4050 -0.6199  0.3250
   87SAPS   H8R 8330   2.976   0.335   9.914  1.5164  1.0554 -3.0098
   87SAPS   C29 8331   3.011   0.215   9.741  0.7192 -0.3621 -0.1796
   87SAPS   H9R 8332   3.038   0.306   9.685  0.4979  1.0514  1.9487
   87SAPS  C210 8333   2.987   0.098   9.657  0.2753 -0.0081 -0.3687
   87SAPS  H10R 8334   2.947   0.009   9.710  1.0689 -0.3308 -0.3045
   87SAPS  H10S 8335   3.084   0.069   9.610 -0.9162 -1.4555 -1.9967
   87SAPS  C211 8336   2.878   0.140   9.563  0.8326 -0.1609 -0.8750
   87SAPS  H11R 8337   2.782   0.175   9.603  0.9676 -0.4151 -0.3295
   87SAPS  C212 8338   2.872   0.106   9.433  0.1685 -0.0633  0.0761
   87SAPS  H12R 8339   2.785   0.134   9.372  1.6831  0.8223 -1.6985
   87SAPS  C213 8340   2.970   0.025   9.351 -0.0413  0.5015  0.2441
   87SAPS  H13R 8341   2.911  -0.064   9.320  0.3687  0.5010 -0.5309
   87SAPS  H13S 8342   3.059  -0.013   9.405  0.3614  0.9602 -0.1028
   87SAPS  C214 8343   3.020   0.105   9.235 -0.0221  0.5810 -0.7461
   87SAPS  H14R 8344   3.102   0.169   9.273 -0.8680  2.3461 -1.8190
   87SAPS  C215 8345   2.981   0.128   9.110 -0.1432  0.1382  0.5072
   87SAPS  H15R 8346   3.045   0.193   9.048 -2.6242  1.2557 -0.9465
   87SAPS  C216 8347   2.863   0.074   9.043 -0.2592 -0.0134 -0.3650
   87SAPS  H16R 8348   2.813   0.144   8.973 -0.3997  1.2569  0.9907
   87SAPS  H16S 8349   2.786   0.038   9.114 -0.6531 -0.7005 -1.1258
   87SAPS  C217 8350   2.905  -0.055   8.961 -0.1893  0.5257  0.7363
   87SAPS  H17R 8351   2.815  -0.120   8.956  0.5993 -0.4592 -0.8229
   87SAPS  H17S 8352   2.971  -0.126   9.015  0.5768  1.5684  1.1929
   87SAPS  C218 8353   2.972  -0.016   8.819  0.0058 -0.7075 -0.4916
   87SAPS  H18R 8354   3.068   0.038   8.835  0.5876 -1.3704 -1.6240
   87SAPS  H18S 8355   2.906   0.056   8.765 -0.3655 -0.5356  0.1827
   87SAPS  C219 8356   2.998  -0.129   8.727  0.4818 -0.4781  0.1641
   87SAPS  H19R 8357   2.905  -0.156   8.673 -0.4430  0.0849  1.4720
   87SAPS  H19S 8358   3.024  -0.228   8.771  0.2787 -0.9515 -0.7527
   87SAPS  C220 8359   3.100  -0.094   8.620  0.3659  1.1050 -0.5916
   87SAPS  H20R 8360   3.077   0.004   8.573 -0.5854  0.6583 -1.0589
   87SAPS  H20S 8361   3.093  -0.171   8.540 -4.0534 -0.0558  0.8127
   87SAPS  H20T 8362   3.201  -0.097   8.667  0.5646  1.0256 -1.0166
   87SAPS   C33 8363   2.687   0.603  10.331  0.2107  0.3221  0.4883
   87SAPS   H3X 8364   2.632   0.508  10.310  0.7014  0.6016 -2.3648
   87SAPS   H3Y 8365   2.797   0.590  10.316  0.0242 -1.1303  0.2556
   87SAPS   C34 8366   2.637   0.709  10.224  0.6619 -0.0330  0.2943
   87SAPS   H4X 8367   2.681   0.673  10.129 -1.8960 -0.1527 -0.8917
   87SAPS   H4Y 8368   2.686   0.806  10.246 -0.7795  0.7262  0.2030
   87SAPS   C35 8369   2.486   0.742  10.211  0.1817 -0.3734  0.2701
   87SAPS   H5X 8370   2.460   0.808  10.125  1.3613  0.3039  0.4228
   87SAPS   H5Y 8371   2.471   0.794  10.308  1.7950  2.2004 -0.8197
   87SAPS   C36 8372   2.398   0.618  10.201 -0.6383  0.0030 -0.9207
   87SAPS   H6X 8373   2.292   0.650  10.196 -0.4255  0.9137  0.0618
   87SAPS   H6Y 8374   2.416   0.563  10.296  0.1281  2.7355  0.5671
   87SAPS   C37 8375   2.439   0.522  10.082  0.4261  0.2060  0.6157
   87SAPS   H7X 8376   2.364   0.440  10.091  1.5864 -0.8726  0.6420
   87SAPS   H7Y 8377   2.536   0.469  10.093 -1.2141 -3.1645 -0.3410
   87SAPS   C38 8378   2.429   0.585   9.939  0.0124 -0.1992  0.2341
   87SAPS   H8X 8379   2.500   0.671   9.939  0.3262 -0.4147 -1.7339
   87SAPS   H8Y 8380   2.329   0.631   9.930 -0.0866 -0.1878  1.4309
   87SAPS   C39 8381   2.448   0.489   9.821  0.1261 -0.6161  0.5253
   87SAPS   H9X 8382   2.367   0.413   9.823 -0.7399  0.3208  1.7278
   87SAPS   H9Y 8383   2.548   0.442   9.837 -0.4840 -1.0954  3.0061
   87SAPS  C310 8384   2.447   0.568   9.691  0.6811 -0.3967  0.2997
   87SAPS  H10X 8385   2.538   0.630   9.675  0.7451 -0.6340 -0.2866
   87SAPS  H10Y 8386   2.353   0.624   9.674  0.5122 -0.8319 -0.2192
   87SAPS  C311 8387   2.449   0.464   9.573  0.0785 -0.1341  0.3444
   87SAPS  H11X 8388   2.344   0.434   9.551 -0.4266  0.9524  1.2386
   87SAPS  H11Y 8389   2.517   0.378   9.595  2.2543  1.0253 -1.6296
   87SAPS  C312 8390   2.502   0.524   9.437 -0.3946 -0.0098 -0.2056
   87SAPS  H12X 8391   2.599   0.571   9.465 -0.4238  1.0705 -1.8543
   87SAPS  H12Y 8392   2.435   0.610   9.418 -1.3153 -0.7972 -0.5686
   87SAPS  C313 8393   2.497   0.432   9.313 -0.8794  0.0384  0.2210
   87SAPS  H13X 8394   2.394   0.408   9.276 -0.8386 -0.6495  0.5382
   87SAPS  H13Y 8395   2.550   0.339   9.344  0.7391  0.1044 -2.1698
   87SAPS  C314 8396   2.579   0.499   9.206  0.4742 -0.3665  0.7341
   87SAPS  H14X 8397   2.679   0.541   9.232 -0.0254  1.5579 -0.4656
   87SAPS  H14Y 8398   2.526   0.588   9.167  2.2269  0.2526 -0.3216
   87SAPS  C315 8399   2.585   0.400   9.087 -0.4618  0.1737 -0.0667
   87SAPS  H15X 8400   2.481   0.368   9.069 -1.7123  3.6328  0.6346
   87SAPS  H15Y 8401   2.640   0.308   9.117 -1.1662  0.2332  1.4560
   87SAPS  C316 8402   2.636   0.470   8.961 -0.3740 -0.7226 -0.1659
   87SAPS  H16X 8403   2.730   0.520   8.994 -1.3948  1.5879 -0.6499
   87SAPS  H16Y 8404   2.565   0.554   8.949 -0.4726 -0.7977 -0.0986
   87SAPS  C317 8405   2.640   0.378   8.833 -0.4852 -0.1821  0.6069
   87SAPS  H17X 8406   2.547   0.317   8.829  0.2847 -1.3765  0.6261
   87SAPS  H17Y 8407   2.728   0.312   8.850  0.9866  1.9774  1.5571
   87SAPS  C318 8408   2.652   0.445   8.698  0.2018 -0.1095 -0.3395
   87SAPS  H18X 8409   2.590   0.537   8.693 -0.9665 -0.9553 -2.0903
   87SAPS  H18Y 8410   2.615   0.386   8.611  0.4588  2.7388 -2.4572
   87SAPS  H18Z 8411   2.754   0.485   8.678  0.9161 -2.4067 -1.6158
   88SAPS     N 8412   4.637   6.203  10.954  0.3569 -0.4711  0.2738
   88SAPS   HN1 8413   4.597   6.123  11.007  0.8956 -2.3557 -2.0803
   88SAPS   HN2 8414   4.559   6.245  10.900  1.0142 -0.8063 -0.9503
   88SAPS   HN3 8415   4.704   6.165  10.884  1.5210 -1.0295  1.6432
   88SAPS   C12 8416   4.715   6.297  11.039  0.2714  0.2829  0.0130
   88SAPS  H12A 8417   4.734   6.392  10.991  1.2248  0.2528  0.3024
   88SAPS   C13 8418   4.629   6.331  11.165 -0.2511  0.0892 -0.5874
   88SAPS  O13A 8419   4.513   6.291  11.180 -0.1852 -0.5824 -0.9485
   88SAPS  O13B 8420   4.661   6.444  11.216  0.0582  0.4397 -0.5554
   88SAPS   C11 8421   4.853   6.229  11.079 -0.6963  0.6113  0.2841
   88SAPS  H11A 8422   4.838   6.127  11.120  2.4288  0.5321  1.3878
   88SAPS  H11B 8423   4.901   6.278  11.167 -0.1608  1.2504 -0.3603
   88SAPS     P 8424   5.014   6.111  10.896 -0.4783 -0.1475 -0.0505
   88SAPS   O13 8425   5.052   6.154  10.760  0.6201  0.4927 -0.5766
   88SAPS   O14 8426   5.121   6.070  10.988  0.3283 -0.2460  0.8266
   88SAPS   O12 8427   4.953   6.239  10.967  0.4853  0.1878 -0.1531
   88SAPS   O11 8428   4.891   6.012  10.905 -0.0812 -0.0905  0.3026
   88SAPS    C1 8429   4.920   5.874  10.916  0.2036  0.1877  0.2074
   88SAPS    HA 8430   4.964   5.842  11.013 -1.9008  1.8219  1.7474
   88SAPS    HB 8431   4.820   5.824  10.915 -1.0471  2.6301 -0.4054
   88SAPS    C2 8432   4.993   5.813  10.793  0.1928  0.6028  0.4046
   88SAPS    HS 8433   5.097   5.840  10.821  0.9791 -2.1528  0.2331
   88SAPS   O21 8434   4.937   5.873  10.679  0.6848  0.5287  0.5794
   88SAPS   C21 8435   5.015   5.862  10.577  0.7353  0.2884  0.4773
   88SAPS   O22 8436   5.135   5.837  10.582  0.4708 -0.5780  0.1296
   88SAPS   C22 8437   4.935   5.880  10.450  0.7765 -0.7510 -0.0583
   88SAPS   H2R 8438   4.850   5.809  10.449 -0.3288  0.4793  1.9653
   88SAPS   H2S 8439   4.890   5.981  10.460 -0.7122 -1.4047 -0.0789
   88SAPS    C3 8440   4.979   5.658  10.790 -0.3321 -0.2095  0.0125
   88SAPS    HX 8441   4.875   5.634  10.759 -0.4858 -0.5281  0.7621
   88SAPS    HY 8442   4.981   5.624  10.896 -0.9368 -0.3043  0.0006
   88SAPS   O31 8443   5.058   5.577  10.695  0.6693  1.0830 -0.8023
   88SAPS   C31 8444   5.187   5.574  10.723  0.0129  0.2791 -0.7886
   88SAPS   O32 8445   5.242   5.628  10.817  0.3365  0.1077 -0.1914
   88SAPS   C32 8446   5.260   5.500  10.609 -0.0999  0.4393  0.7259
   88SAPS   H2X 8447   5.180   5.490  10.532  0.4133  1.1081  0.1041
   88SAPS   H2Y 8448   5.285   5.399  10.648 -1.9663 -0.5823 -0.6578
   88SAPS   C23 8449   5.024   5.862  10.323 -0.0499  0.6186 -0.2908
   88SAPS   H3R 8450   5.068   5.761  10.335 -1.5830 -0.1978 -1.4196
   88SAPS   H3S 8451   5.116   5.923  10.329  2.4619 -3.0777  0.8872
   88SAPS   C24 8452   4.956   5.849  10.191  0.2026 -0.1195 -0.1178
   88SAPS   H4R 8453   4.865   5.786  10.200 -1.5274  1.9657 -2.2214
   88SAPS   H4S 8454   5.024   5.792  10.124  1.5823 -0.4014  1.4902
   88SAPS   C25 8455   4.924   5.995  10.159 -0.4940  0.3178  0.5213
   88SAPS   H5R 8456   4.884   6.059  10.238 -2.8135 -0.3219 -0.0768
   88SAPS   C26 8457   4.956   6.049  10.038 -0.0168  0.3248 -0.0218
   88SAPS   H6R 8458   4.946   6.156  10.018  1.3397  0.6010  0.7648
   88SAPS   C27 8459   5.032   5.965   9.929 -0.3993  0.3552  0.3917
   88SAPS   H7R 8460   5.106   5.905   9.987 -0.6280 -0.5942 -0.3004
   88SAPS   H7S 8461   5.092   6.031   9.863  0.5970  0.5848  1.4938
   88SAPS   C28 8462   4.936   5.879   9.841  0.1543 -0.1617 -0.5777
   88SAPS   H8R 8463   4.885   5.803   9.902 -0.6228  0.6585 -0.1995
   88SAPS   C29 8464   4.876   5.905   9.726  0.1468 -0.5371 -0.4932
   88SAPS   H9R 8465   4.799   5.837   9.686  1.0865 -1.1273 -1.3022
   88SAPS  C210 8466   4.897   6.025   9.638  0.1355 -0.2938  0.4677
   88SAPS  H10R 8467   4.931   6.110   9.700  1.2348 -0.4399  0.0810
   88SAPS  H10S 8468   4.802   6.046   9.585  0.9576 -1.9547 -1.7679
   88SAPS  C211 8469   5.006   6.001   9.541 -0.2522 -0.0777 -0.3078
   88SAPS  H11R 8470   5.104   6.025   9.585  0.7795  0.0459 -2.6055
   88SAPS  C212 8471   4.995   5.977   9.403  0.5268 -0.1396  0.2720
   88SAPS  H12R 8472   5.086   5.964   9.342  0.0901 -1.0752 -0.1990
   88SAPS  C213 8473   4.866   5.966   9.328 -0.3924 -0.1234  0.4176
   88SAPS  H13R 8474   4.837   6.061   9.277 -1.4571 -0.4987  0.3209
   88SAPS  H13S 8475   4.773   5.941   9.383 -0.4224 -0.7339  0.0862
   88SAPS  C214 8476   4.886   5.862   9.225 -0.0460 -0.3302  0.4330
   88SAPS  H14R 8477   4.887   5.757   9.257  0.1929 -0.6307 -0.5259
   88SAPS  C215 8478   4.889   5.887   9.094 -0.6190 -0.8348 -0.7092
   88SAPS  H15R 8479   4.882   5.802   9.025  0.9963 -1.1952 -0.4546
   88SAPS  C216 8480   4.895   6.022   9.032  0.0843 -0.4659  0.0032
   88SAPS  H16R 8481   4.956   6.094   9.091 -0.5348  2.6451 -3.0137
   88SAPS  H16S 8482   4.792   6.059   9.013  0.2143 -0.4597 -0.6878
   88SAPS  C217 8483   4.946   6.016   8.887 -0.5295  0.0653 -0.0116
   88SAPS  H17R 8484   4.964   6.118   8.845  2.1364 -0.3377  0.0852
   88SAPS  H17S 8485   4.875   5.962   8.822 -1.4400 -0.2434  1.2284
   88SAPS  C218 8486   5.089   5.955   8.880 -0.6578 -0.2168  0.4976
   88SAPS  H18R 8487   5.083   5.845   8.896  0.4540 -0.3541  0.0022
   88SAPS  H18S 8488   5.150   5.976   8.970  1.0975 -2.2538 -0.1834
   88SAPS  C219 8489   5.160   5.978   8.751 -0.3395 -0.3396  0.1089
   88SAPS  H19R 8490   5.256   5.924   8.739 -1.7218 -2.6727 -0.6621
   88SAPS  H19S 8491   5.171   6.089   8.747 -0.6412 -0.3444 -0.8977
   88SAPS  C220 8492   5.083   5.943   8.620  0.2148  0.6255  0.1904
   88SAPS  H20R 8493   5.138   5.962   8.526 -0.0847 -0.8884 -0.3077
   88SAPS  H20S 8494   4.981   5.982   8.601  0.0051 -0.8958 -2.0311
   88SAPS  H20T 8495   5.073   5.832   8.630  2.9856  0.3671  0.3225
   88SAPS   C33 8496   5.378   5.564  10.551 -0.1835  0.5997  0.3619
   88SAPS   H3X 8497   5.464   5.569  10.620 -0.8111  0.3608  1.1771
   88SAPS   H3Y 8498   5.353   5.664  10.511 -2.4414 -0.5261 -1.1969
   88SAPS   C34 8499   5.442   5.496  10.417  0.5846 -0.2270 -0.2586
   88SAPS   H4X 8500   5.368   5.500  10.334  2.5735  1.1084 -2.0383
   88SAPS   H4Y 8501   5.454   5.389  10.444 -1.1889 -0.3140  0.2005
   88SAPS   C35 8502   5.570   5.566  10.369 -0.7683 -0.0060 -0.2306
   88SAPS   H5X 8503   5.640   5.566  10.455 -0.4356 -1.3241 -0.4921
   88SAPS   H5Y 8504   5.545   5.670  10.337 -0.7788  0.1410  0.2548
   88SAPS   C36 8505   5.640   5.501  10.251 -0.1334  0.3254 -1.3614
   88SAPS   H6X 8506   5.646   5.391  10.260 -2.8835  0.2028 -0.5648
   88SAPS   H6Y 8507   5.745   5.535  10.262  0.6838 -2.5694  0.3881
   88SAPS   C37 8508   5.572   5.525  10.123 -1.0200  0.6368 -0.0009
   88SAPS   H7X 8509   5.563   5.632  10.095 -0.1915  1.5805  3.0968
   88SAPS   H7Y 8510   5.473   5.475  10.131 -0.4652 -0.5033 -0.1428
   88SAPS   C38 8511   5.660   5.473  10.011  0.0478  0.3100 -0.3024
   88SAPS   H8X 8512   5.660   5.363  10.022  0.2198  0.2811 -0.5933
   88SAPS   H8Y 8513   5.763   5.513  10.022 -0.9595  2.3807  2.1721
   88SAPS   C39 8514   5.591   5.495   9.875  0.7222  0.2932  0.1663
   88SAPS   H9X 8515   5.567   5.602   9.857  0.4949 -0.0546 -1.7931
   88SAPS   H9Y 8516   5.494   5.442   9.872  1.0489 -0.3367  0.6046
   88SAPS  C310 8517   5.676   5.451   9.752 -0.9079  0.6222 -0.0652
   88SAPS  H10X 8518   5.702   5.345   9.770 -0.0416  0.8461  0.0423
   88SAPS  H10Y 8519   5.770   5.509   9.736  0.4231 -0.9993  1.7206
   88SAPS  C311 8520   5.589   5.456   9.626 -0.4102  0.5538  0.1660
   88SAPS  H11X 8521   5.560   5.559   9.599 -0.5815  0.2400 -0.8759
   88SAPS  H11Y 8522   5.498   5.392   9.632 -1.2332  1.6487 -0.6555
   88SAPS  C312 8523   5.675   5.408   9.504  0.3838 -0.9834 -0.0837
   88SAPS  H12X 8524   5.700   5.302   9.525  1.2843 -0.4471  1.6708
   88SAPS  H12Y 8525   5.765   5.472   9.499 -1.3507  1.5405 -0.2083
   88SAPS  C313 8526   5.585   5.426   9.378  0.3931  0.7181  0.0076
   88SAPS  H13X 8527   5.584   5.533   9.351  2.1463  0.3174 -1.7422
   88SAPS  H13Y 8528   5.483   5.394   9.409  1.3548 -4.3982 -1.6989
   88SAPS  C314 8529   5.619   5.323   9.268  0.0749  0.1435 -0.3829
   88SAPS  H14X 8530   5.615   5.222   9.313  0.6185  1.4862  2.8468
   88SAPS  H14Y 8531   5.726   5.329   9.239  0.1979  1.1111  0.2460
   88SAPS  C315 8532   5.531   5.328   9.140  0.9585 -1.5097  0.2130
   88SAPS  H15X 8533   5.502   5.432   9.114  2.9510 -0.9116  0.3196
   88SAPS  H15Y 8534   5.435   5.272   9.154 -0.1170  0.4005  0.6688
   88SAPS  C316 8535   5.608   5.269   9.019  0.4523 -0.6234  0.0459
   88SAPS  H16X 8536   5.664   5.181   9.059  2.4620  0.2781 -0.7195
   88SAPS  H16Y 8537   5.686   5.339   8.985 -0.8806  0.7814 -0.1630
   88SAPS  C317 8538   5.513   5.232   8.911 -0.2663 -0.3080 -0.0860
   88SAPS  H17X 8539   5.496   5.326   8.854  1.6542  1.1799  1.7176
   88SAPS  H17Y 8540   5.424   5.180   8.954  1.3304 -2.2502  0.9231
   88SAPS  C318 8541   5.574   5.124   8.815 -0.3767 -0.4553  0.5206
   88SAPS  H18X 8542   5.509   5.100   8.728  0.6409  1.9401 -0.9377
   88SAPS  H18Y 8543   5.596   5.033   8.875 -2.2944 -0.5001  1.1934
   88SAPS  H18Z 8544   5.673   5.165   8.787 -2.0339  2.2769 -1.6068
   89SAPS     N 8545   5.038   1.777  10.803 -0.0129 -0.2379 -0.6590
   89SAPS   HN1 8546   5.014   1.876  10.786  1.4283  0.0544 -1.0814
   89SAPS   HN2 8547   5.014   1.751  10.901 -1.9394  0.1242 -1.0090
   89SAPS   HN3 8548   5.135   1.756  10.773 -0.5104 -2.9896 -0.5065
   89SAPS   C12 8549   4.940   1.698  10.721  0.4622  0.0047  0.3000
   89SAPS  H12A 8550   4.963   1.715  10.617  0.1801 -0.8008  0.1045
   89SAPS   C13 8551   4.952   1.546  10.735 -0.2736 -0.0684 -0.3578
   89SAPS  O13A 8552   5.021   1.502  10.825 -0.1369  0.4453 -0.1687
   89SAPS  O13B 8553   4.866   1.473  10.671 -0.1479  0.0715 -0.2506
   89SAPS   C11 8554   4.794   1.743  10.764  0.1265 -0.0009  0.5965
   89SAPS  H11A 8555   4.778   1.696  10.863  0.9792 -0.9453  0.2883
   89SAPS  H11B 8556   4.719   1.695  10.697  0.1238 -1.6622  1.7768
   89SAPS     P 8557   4.724   1.982  10.670  0.1915 -0.0685 -0.1040
   89SAPS   O13 8558   4.579   1.970  10.654 -0.4897  0.3091 -0.4293
   89SAPS   O14 8559   4.777   2.114  10.701  0.3518 -0.5617 -0.3916
   89SAPS   O12 8560   4.782   1.885  10.776 -0.1453 -0.0219  0.4387
   89SAPS   O11 8561   4.795   1.927  10.535  0.2538  0.6282  1.0512
   89SAPS    C1 8562   4.719   1.851  10.441 -0.2556 -0.4653  0.0418
   89SAPS    HA 8563   4.784   1.785  10.381 -0.6326 -1.2600  0.5031
   89SAPS    HB 8564   4.644   1.789  10.495 -0.3572 -0.0484  0.3866
   89SAPS    C2 8565   4.636   1.938  10.347 -0.1661 -0.1733 -0.8264
   89SAPS    HS 8566   4.563   2.002  10.399  1.1912  1.0911 -0.4292
   89SAPS   O21 8567   4.568   1.854  10.249  0.7908 -0.1838 -0.2181
   89SAPS   C21 8568   4.440   1.879  10.237 -0.1389  0.0414 -0.5861
   89SAPS   O22 8569   4.376   1.964  10.297  0.1026 -0.7416  0.3207
   89SAPS   C22 8570   4.382   1.792  10.128 -0.0074 -0.5508  0.9439
   89SAPS   H2R 8571   4.458   1.727  10.079  0.1270 -0.5970  1.2112
   89SAPS   H2S 8572   4.304   1.720  10.162 -0.6262 -0.4731 -0.2981
   89SAPS    C3 8573   4.739   2.033  10.281 -0.0730 -0.4550  0.3475
   89SAPS    HX 8574   4.807   1.972  10.218 -1.0063  0.7403 -1.8536
   89SAPS    HY 8575   4.798   2.087  10.359 -1.1397 -0.9731  1.5334
   89SAPS   O31 8576   4.684   2.127  10.185  0.3641 -0.2185 -0.0603
   89SAPS   C31 8577   4.616   2.233  10.227 -0.4072 -0.7596  0.9284
   89SAPS   O32 8578   4.585   2.268  10.337 -0.2469  0.4814  0.4987
   89SAPS   C32 8579   4.568   2.322  10.102  0.3978 -0.7949 -0.2110
   89SAPS   H2X 8580   4.573   2.427  10.140  0.8621  0.0303 -2.4439
   89SAPS   H2Y 8581   4.469   2.298  10.059  0.5877  0.3470 -1.3421
   89SAPS   C23 8582   4.327   1.896  10.024  0.0764  0.5219  0.3774
   89SAPS   H3R 8583   4.241   1.955  10.062 -1.5371 -2.4337  1.4630
   89SAPS   H3S 8584   4.282   1.845   9.936  0.2533  0.4308  0.3414
   89SAPS   C24 8585   4.430   1.991   9.955  0.1828  0.4009 -0.2290
   89SAPS   H4R 8586   4.481   2.059  10.026  1.3991 -0.0084 -0.6887
   89SAPS   H4S 8587   4.362   2.045   9.886 -2.4705 -0.7576  1.3871
   89SAPS   C25 8588   4.546   1.922   9.887  0.5348  0.1002  0.2666
   89SAPS   H5R 8589   4.641   1.916   9.941 -0.2897  1.2092  1.8693
   89SAPS   C26 8590   4.540   1.860   9.762 -0.4697  0.9678  0.3344
   89SAPS   H6R 8591   4.631   1.816   9.721 -0.1426  1.0923  0.9279
   89SAPS   C27 8592   4.423   1.842   9.674  0.3517  0.3567  1.2116
   89SAPS   H7R 8593   4.326   1.872   9.719  1.3606  2.7896  1.8474
   89SAPS   H7S 8594   4.409   1.736   9.645 -2.4233  1.0265 -0.0067
   89SAPS   C28 8595   4.441   1.901   9.535  0.2929  0.2630 -0.4565
   89SAPS   H8R 8596   4.490   1.849   9.452  2.8258  0.0928  1.0889
   89SAPS   C29 8597   4.391   2.019   9.494 -0.5109  0.5630 -0.3108
   89SAPS   H9R 8598   4.411   2.038   9.387  0.4498  2.4873  0.1958
   89SAPS  C210 8599   4.307   2.125   9.553 -0.0180 -0.2610 -0.1603
   89SAPS  H10R 8600   4.245   2.092   9.639  2.3671 -0.8450  1.3711
   89SAPS  H10S 8601   4.230   2.153   9.478 -3.2909 -1.6227  2.5265
   89SAPS  C211 8602   4.384   2.249   9.579 -1.3662 -0.9714 -0.2807
   89SAPS  H11R 8603   4.446   2.233   9.668  0.3021  0.0988 -1.2339
   89SAPS  C212 8604   4.397   2.361   9.497  0.4041  0.0744  0.1409
   89SAPS  H12R 8605   4.471   2.437   9.525  2.7434 -2.7232  1.8218
   89SAPS  C213 8606   4.327   2.384   9.370 -0.3809 -0.3506 -0.0296
   89SAPS  H13R 8607   4.221   2.409   9.392 -0.6708 -2.3061  0.8360
   89SAPS  H13S 8608   4.323   2.292   9.309  2.1890 -0.1158 -0.6445
   89SAPS  C214 8609   4.382   2.491   9.284  0.2526 -0.0032  0.2950
   89SAPS  H14R 8610   4.429   2.571   9.343  0.1214  0.6647 -0.5139
   89SAPS  C215 8611   4.391   2.494   9.154 -0.6829 -0.0143  0.3012
   89SAPS  H15R 8612   4.455   2.574   9.114 -0.9594  0.1506  0.1825
   89SAPS  C216 8613   4.351   2.381   9.059 -0.6057  0.1117 -0.5607
   89SAPS  H16R 8614   4.254   2.341   9.098 -1.7041  0.9362 -2.3811
   89SAPS  H16S 8615   4.419   2.295   9.042 -0.7735 -0.6198  2.1815
   89SAPS  C217 8616   4.317   2.454   8.924 -0.4057  0.0381  0.2831
   89SAPS  H17R 8617   4.404   2.511   8.886 -2.1329  3.1453  0.7605
   89SAPS  H17S 8618   4.244   2.535   8.947  0.4123  0.1853  2.4637
   89SAPS  C218 8619   4.264   2.374   8.812 -0.0727  0.0018  0.1710
   89SAPS  H18R 8620   4.156   2.356   8.828 -0.1250  0.0200 -0.1572
   89SAPS  H18S 8621   4.311   2.274   8.825 -4.0592 -1.9851  0.1826
   89SAPS  C219 8622   4.287   2.446   8.676  0.1471 -0.0213  0.6956
   89SAPS  H19R 8623   4.393   2.454   8.644 -0.6565  1.0584 -1.8834
   89SAPS  H19S 8624   4.251   2.551   8.681 -0.5680 -0.2986  1.4910
   89SAPS  C220 8625   4.210   2.373   8.575 -0.1250  0.3968  0.0071
   89SAPS  H20R 8626   4.265   2.397   8.481  1.2355  0.3187  0.7727
   89SAPS  H20S 8627   4.107   2.416   8.572 -1.6990 -3.2630 -0.9846
   89SAPS  H20T 8628   4.203   2.263   8.587  1.0612  0.4391  1.1181
   89SAPS   C33 8629   4.669   2.313   9.984 -0.2733 -0.7450 -0.0423
   89SAPS   H3X 8630   4.659   2.212   9.940  1.7425 -0.3866 -1.4173
   89SAPS   H3Y 8631   4.777   2.326  10.007 -0.4091  1.0854 -0.4005
   89SAPS   C34 8632   4.636   2.401   9.873 -0.4926 -0.0540 -0.4747
   89SAPS   H4X 8633   4.649   2.507   9.904 -1.3369 -0.0444 -0.1515
   89SAPS   H4Y 8634   4.531   2.375   9.850 -0.6460  2.0503 -2.3708
   89SAPS   C35 8635   4.728   2.394   9.753  0.9711 -0.8077 -0.2765
   89SAPS   H5X 8636   4.721   2.302   9.690  0.6070 -0.3640 -0.8832
   89SAPS   H5Y 8637   4.837   2.408   9.772  1.2239  1.0700 -2.8980
   89SAPS   C36 8638   4.698   2.515   9.658 -0.1251 -0.7240 -0.1209
   89SAPS   H6X 8639   4.734   2.609   9.705 -0.0507 -0.5239 -0.5737
   89SAPS   H6Y 8640   4.591   2.541   9.643  0.7401  3.3613  0.1158
   89SAPS   C37 8641   4.777   2.494   9.529  0.5656 -0.1800  0.2025
   89SAPS   H7X 8642   4.761   2.390   9.492 -2.7854 -0.8671  3.3954
   89SAPS   H7Y 8643   4.885   2.493   9.556  0.8998  0.2802 -1.0469
   89SAPS   C38 8644   4.752   2.605   9.424 -0.4216  0.9934 -0.1072
   89SAPS   H8X 8645   4.791   2.700   9.468 -1.4531  1.7277 -0.7574
   89SAPS   H8Y 8646   4.643   2.614   9.405 -0.9255 -1.6897  1.3368
   89SAPS   C39 8647   4.833   2.597   9.295  0.5722  0.0435 -0.1573
   89SAPS   H9X 8648   4.816   2.494   9.256  0.1550 -0.4272  1.2362
   89SAPS   H9Y 8649   4.943   2.591   9.306  0.7856  1.3257 -1.4772
   89SAPS  C310 8650   4.786   2.706   9.196 -0.2639 -0.0041  0.1360
   89SAPS  H10X 8651   4.798   2.809   9.237  0.5344 -1.0685  2.6833
   89SAPS  H10Y 8652   4.677   2.686   9.189 -0.0126 -1.3098  0.0012
   89SAPS  C311 8653   4.847   2.673   9.055  0.1573 -0.0264  0.4750
   89SAPS  H11X 8654   4.843   2.563   9.040  1.2295  0.0568 -0.5440
   89SAPS  H11Y 8655   4.954   2.705   9.049  0.3472 -0.3493  2.0006
   89SAPS  C312 8656   4.784   2.749   8.939  0.7322  0.2020  0.1016
   89SAPS  H12X 8657   4.820   2.703   8.844  1.7985  1.1070  0.0526
   89SAPS  H12Y 8658   4.825   2.852   8.944 -0.3129  0.6058  0.3498
   89SAPS  C313 8659   4.630   2.749   8.937 -0.0479  0.2854 -0.3811
   89SAPS  H13X 8660   4.589   2.794   9.029 -2.0371  0.5831 -1.3891
   89SAPS  H13Y 8661   4.598   2.643   8.930 -0.4539  0.4217 -0.6079
   89SAPS  C314 8662   4.574   2.823   8.813 -0.9556  0.6916 -0.9135
   89SAPS  H14X 8663   4.635   2.791   8.726 -1.5706  0.1619 -1.1475
   89SAPS  H14Y 8664   4.585   2.933   8.820 -0.2135  0.5959 -0.5006
   89SAPS  C315 8665   4.426   2.792   8.796 -0.1715 -0.0930  0.1826
   89SAPS  H15X 8666   4.386   2.760   8.894  1.1772  1.1017  1.1309
   89SAPS  H15Y 8667   4.399   2.714   8.721 -2.0839  0.4690  0.2441
   89SAPS  C316 8668   4.344   2.913   8.741  0.6238  0.2893  0.0489
   89SAPS  H16X 8669   4.363   3.004   8.802 -0.3639  0.1302  0.5921
   89SAPS  H16Y 8670   4.240   2.877   8.753  1.0396 -0.1879  2.4113
   89SAPS  C317 8671   4.391   2.940   8.596  0.3812  0.3297 -0.2116
   89SAPS  H17X 8672   4.433   2.850   8.547  2.7160  1.0903  0.3110
   89SAPS  H17Y 8673   4.476   3.011   8.599  2.1002 -1.7097  0.0630
   89SAPS  C318 8674   4.271   2.985   8.507 -0.1487  0.3674 -0.4993
   89SAPS  H18X 8675   4.194   2.910   8.535  1.2141 -0.1603  2.0185
   89SAPS  H18Y 8676   4.302   2.997   8.401 -1.7226  1.4291 -0.8590
   89SAPS  H18Z 8677   4.236   3.085   8.543 -0.5256  0.3397 -0.7853
   90SAPS     N 8678   0.051   1.976  10.489  0.1713  0.6197 -0.3450
   90SAPS   HN1 8679   0.065   1.947  10.390 -1.4539 -0.7403 -0.1920
   90SAPS   HN2 8680  -0.049   1.986  10.514 -0.0082 -0.6130 -0.5234
   90SAPS   HN3 8681   0.105   2.062  10.512  0.0843  0.6110 -0.1053
   90SAPS   C12 8682   0.107   1.870  10.572  0.3863 -0.7506 -0.0012
   90SAPS  H12A 8683   0.213   1.881  10.555  0.3894  0.3121  0.6760
   90SAPS   C13 8684   0.078   1.888  10.722  0.0668  0.0575 -0.6388
   90SAPS  O13A 8685   0.047   2.005  10.772  0.1557 -0.1640 -0.0147
   90SAPS  O13B 8686   0.122   1.796  10.801 -0.3716  0.0630 -0.2114
   90SAPS   C11 8687   0.053   1.738  10.518 -0.2562  0.2570  0.1022
   90SAPS  H11A 8688   0.096   1.659  10.584 -1.2110 -0.9956 -0.7648
   90SAPS  H11B 8689   0.098   1.704  10.422 -0.2429 -0.9847  0.5378
   90SAPS     P 8690  -0.172   1.592  10.493  0.6034 -0.1543  0.0424
   90SAPS   O13 8691  -0.156   1.495  10.604  0.4938 -0.5966 -0.0468
   90SAPS   O14 8692  -0.311   1.639  10.469 -0.6082 -0.0189 -0.7480
   90SAPS   O12 8693  -0.094   1.727  10.532  0.1259 -0.6810 -0.1086
   90SAPS   O11 8694  -0.116   1.534  10.357 -0.1230  0.0210  0.6141
   90SAPS    C1 8695  -0.119   1.604  10.230  0.5262 -0.4289  0.1595
   90SAPS    HA 8696  -0.150   1.710  10.232 -0.4366 -0.6903 -0.3821
   90SAPS    HB 8697  -0.023   1.607  10.175 -0.7449  5.3512 -2.0630
   90SAPS    C2 8698  -0.226   1.554  10.137  0.5763 -0.5246  0.4705
   90SAPS    HS 8699  -0.315   1.547  10.203 -0.5680 -0.1134 -1.0022
   90SAPS   O21 8700  -0.197   1.425  10.082 -0.2564  0.3418  0.4183
   90SAPS   C21 8701  -0.307   1.355  10.038 -0.1186 -1.0774  0.0456
   90SAPS   O22 8702  -0.422   1.388  10.052 -0.2833  0.7553 -0.7259
   90SAPS   C22 8703  -0.260   1.227   9.972  0.5333 -0.4547 -0.8643
   90SAPS   H2R 8704  -0.176   1.260   9.907 -1.6184  0.0642 -3.5244
   90SAPS   H2S 8705  -0.219   1.170  10.058 -0.0684 -0.6239 -0.6888
   90SAPS    C3 8706  -0.250   1.659  10.017 -0.1977  0.6531 -0.0923
   90SAPS    HX 8707  -0.284   1.744  10.081  0.6776 -1.0185  2.6670
   90SAPS    HY 8708  -0.330   1.625   9.948 -0.2271  1.1229 -0.2917
   90SAPS   O31 8709  -0.130   1.698   9.948 -0.2113 -0.2565  0.6178
   90SAPS   C31 8710  -0.095   1.625   9.843 -0.7965  0.2489  0.4587
   90SAPS   O32 8711  -0.159   1.528   9.808  0.0202  0.2170  0.4143
   90SAPS   C32 8712   0.031   1.676   9.782  0.4629 -0.6729  0.7648
   90SAPS   H2X 8713   0.112   1.666   9.856  0.3022 -0.1858  1.0103
   90SAPS   H2Y 8714   0.018   1.784   9.760  1.2984 -0.5935  0.6454
   90SAPS   C23 8715  -0.372   1.144   9.902  1.0928  0.3029  0.6105
   90SAPS   H3R 8716  -0.447   1.120   9.980 -0.7634 -0.1717 -1.2895
   90SAPS   H3S 8717  -0.335   1.043   9.873  0.7603 -0.0670  1.4391
   90SAPS   C24 8718  -0.433   1.218   9.788  0.2463 -0.9852  0.4133
   90SAPS   H4R 8719  -0.474   1.319   9.810 -1.2846 -1.1669 -1.4029
   90SAPS   H4S 8720  -0.525   1.168   9.751 -0.8304  2.5155 -1.9208
   90SAPS   C25 8721  -0.339   1.227   9.668 -0.4929  0.4390  0.0448
   90SAPS   H5R 8722  -0.324   1.333   9.644 -1.2501  0.4205 -0.5275
   90SAPS   C26 8723  -0.283   1.133   9.589 -0.3005 -0.2517 -0.9434
   90SAPS   H6R 8724  -0.213   1.170   9.513 -2.2470  0.2515 -2.5189
   90SAPS   C27 8725  -0.303   0.987   9.586  0.0243 -0.0852 -0.6192
   90SAPS   H7R 8726  -0.362   0.955   9.497  1.0862 -2.7818 -0.3978
   90SAPS   H7S 8727  -0.366   0.963   9.674  2.1370 -0.1102  0.9098
   90SAPS   C28 8728  -0.174   0.902   9.608  0.5838 -0.8866 -0.1748
   90SAPS   H8R 8729  -0.163   0.864   9.711 -2.2692  0.0998  0.5340
   90SAPS   C29 8730  -0.099   0.845   9.513  0.0789 -0.6203  0.3624
   90SAPS   H9R 8731  -0.005   0.798   9.546 -0.2858 -0.8580  1.0766
   90SAPS  C210 8732  -0.132   0.868   9.363  0.0099 -0.8150 -0.7553
   90SAPS  H10R 8733  -0.047   0.924   9.318  0.6026 -0.5706  0.6344
   90SAPS  H10S 8734  -0.222   0.933   9.356  2.3073  2.9932  2.6268
   90SAPS  C211 8735  -0.154   0.744   9.277  0.5980  0.6481 -0.4217
   90SAPS  H11R 8736  -0.249   0.691   9.292  2.2349 -1.7261  1.8199
   90SAPS  C212 8737  -0.072   0.682   9.189 -0.0625  0.2013 -0.3005
   90SAPS  H12R 8738  -0.114   0.601   9.128  0.7531  0.8637 -1.7726
   90SAPS  C213 8739   0.067   0.725   9.143  0.8962 -0.0362  0.8637
   90SAPS  H13R 8740   0.141   0.643   9.139 -0.4219 -1.2165  0.2075
   90SAPS  H13S 8741   0.109   0.803   9.211  2.3600 -1.2995  1.4340
   90SAPS  C214 8742   0.053   0.781   9.005 -0.5616  0.4335  0.4930
   90SAPS  H14R 8743  -0.022   0.859   8.990  0.0306  0.6624 -1.3627
   90SAPS  C215 8744   0.107   0.739   8.887 -0.1261  0.5203 -0.1043
   90SAPS  H15R 8745   0.085   0.800   8.798 -0.4569 -1.7133 -1.5846
   90SAPS  C216 8746   0.199   0.618   8.862  0.3685 -0.0638 -0.6001
   90SAPS  H16R 8747   0.196   0.545   8.946  3.2764 -2.7418 -2.6911
   90SAPS  H16S 8748   0.306   0.648   8.852 -0.1645  3.2170  2.3064
   90SAPS  C217 8749   0.150   0.541   8.733  0.2957  0.4803 -0.2127
   90SAPS  H17R 8750   0.149   0.613   8.648  0.3101  0.6357 -0.0822
   90SAPS  H17S 8751   0.048   0.501   8.750 -0.2309  1.5106 -0.9129
   90SAPS  C218 8752   0.244   0.431   8.691  0.0097 -0.5407 -0.0220
   90SAPS  H18R 8753   0.327   0.419   8.765  0.8905  0.5985 -0.8133
   90SAPS  H18S 8754   0.292   0.452   8.594  0.9609  0.5208  0.6624
   90SAPS  C219 8755   0.171   0.296   8.682 -0.8749  0.2847  0.1283
   90SAPS  H19R 8756   0.086   0.304   8.610 -0.9917  0.9165  0.3263
   90SAPS  H19S 8757   0.132   0.282   8.785 -1.8861  1.4218 -0.0852
   90SAPS  C220 8758   0.266   0.190   8.635  0.4278  0.0227 -0.3899
   90SAPS  H20R 8759   0.209   0.096   8.651  1.5433 -0.4707  0.7591
   90SAPS  H20S 8760   0.363   0.193   8.689 -0.3689  1.0173  1.0213
   90SAPS  H20T 8761   0.288   0.211   8.528 -2.0810  0.2582 -0.8747
   90SAPS   C33 8762   0.066   1.612   9.637 -0.4582 -0.8928  0.2897
   90SAPS   H3X 8763   0.046   1.503   9.640 -2.6360 -0.4903  0.6851
   90SAPS   H3Y 8764   0.173   1.626   9.609 -0.2432 -0.2644  1.3970
   90SAPS   C34 8765  -0.027   1.662   9.521  0.8385 -0.0575  0.6890
   90SAPS   H4X 8766  -0.029   1.771   9.502 -0.2235 -0.3182 -0.6951
   90SAPS   H4Y 8767  -0.130   1.623   9.539  0.6976 -0.6997 -1.3753
   90SAPS   C35 8768   0.007   1.597   9.379 -0.0278 -0.0538  0.5707
   90SAPS   H5X 8769  -0.089   1.593   9.323  2.5498 -1.4644 -4.0329
   90SAPS   H5Y 8770   0.039   1.491   9.384  2.0247  0.4177 -1.7011
   90SAPS   C36 8771   0.123   1.666   9.303 -0.1376 -0.1923  0.3796
   90SAPS   H6X 8772   0.220   1.670   9.357  1.0479  3.2538 -1.7757
   90SAPS   H6Y 8773   0.090   1.772   9.295 -0.1728 -0.0571  2.1323
   90SAPS   C37 8774   0.142   1.620   9.160  0.6695  0.3042  1.2492
   90SAPS   H7X 8775   0.152   1.510   9.152  2.9986  0.5906 -0.4593
   90SAPS   H7Y 8776   0.242   1.653   9.125  1.5357 -1.6614  1.7910
   90SAPS   C38 8777   0.026   1.666   9.061 -0.2688  0.4970 -0.2942
   90SAPS   H8X 8778   0.010   1.773   9.086 -0.5828  0.3725  0.0553
   90SAPS   H8Y 8779  -0.070   1.619   9.093  0.6070 -0.1822  1.3879
   90SAPS   C39 8780   0.052   1.651   8.905 -0.2163  0.2227 -0.1577
   90SAPS   H9X 8781   0.026   1.549   8.868  2.6899 -1.3862  1.9899
   90SAPS   H9Y 8782   0.161   1.672   8.892 -0.5877  2.1651 -0.2606
   90SAPS  C310 8783  -0.031   1.750   8.827 -0.2039 -0.5791  0.0779
   90SAPS  H10X 8784   0.025   1.778   8.735  0.3779 -0.0167  0.5972
   90SAPS  H10Y 8785  -0.045   1.842   8.887  3.9118  0.5292 -0.5061
   90SAPS  C311 8786  -0.168   1.693   8.793  0.3743 -0.0953  0.2818
   90SAPS  H11X 8787  -0.199   1.649   8.890 -1.2205 -0.9963 -0.5999
   90SAPS  H11Y 8788  -0.135   1.611   8.726  1.5238 -0.6860  1.5783
   90SAPS  C312 8789  -0.282   1.784   8.733  0.2856 -0.3633 -0.2790
   90SAPS  H12X 8790  -0.256   1.867   8.665  2.0263  0.0882  0.8882
   90SAPS  H12Y 8791  -0.333   1.834   8.818 -0.4768 -1.3862 -0.1264
   90SAPS  C313 8792  -0.379   1.699   8.664  0.3045 -0.3480  0.0545
   90SAPS  H13X 8793  -0.324   1.642   8.586  0.9240 -0.7157  0.7537
   90SAPS  H13Y 8794  -0.456   1.762   8.614  0.7125 -0.0240 -0.1673
   90SAPS  C314 8795  -0.455   1.595   8.747  0.2393  0.2786 -0.2177
   90SAPS  H14X 8796  -0.531   1.644   8.813  0.3479  0.0465  0.0792
   90SAPS  H14Y 8797  -0.381   1.548   8.815 -2.2566 -0.8055  1.8658
   90SAPS  C315 8798  -0.526   1.490   8.668 -0.4472  0.2226 -0.7539
   90SAPS  H15X 8799  -0.541   1.405   8.738 -3.2061 -1.8317 -3.6982
   90SAPS  H15Y 8800  -0.469   1.428   8.595  1.0109 -0.7359  1.1644
   90SAPS  C316 8801  -0.666   1.529   8.612  0.2685  0.8101 -0.3104
   90SAPS  H16X 8802  -0.661   1.628   8.563 -1.8504 -0.0685 -2.4111
   90SAPS  H16Y 8803  -0.732   1.548   8.699 -0.7748  0.5702 -1.0405
   90SAPS  C317 8804  -0.729   1.424   8.517 -0.1164 -0.2637 -0.4947
   90SAPS  H17X 8805  -0.674   1.419   8.421  2.8907 -2.5639  1.2826
   90SAPS  H17Y 8806  -0.827   1.465   8.483 -0.3062 -0.1596  0.1626
   90SAPS  C318 8807  -0.738   1.282   8.568 -0.1506 -0.2147 -0.2615
   90SAPS  H18X 8808  -0.798   1.217   8.501 -1.4888 -0.4799  1.1412
   90SAPS  H18Y 8809  -0.781   1.287   8.671 -0.6069  2.3870 -0.5252
   90SAPS  H18Z 8810  -0.640   1.235   8.589 -0.6940 -1.1466  0.1916
   91SAPS     N 8811   4.689   6.751   5.668  0.5069  0.2831 -0.0490
   91SAPS   HN1 8812   4.782   6.770   5.710 -0.0289  0.4840  1.0647
   91SAPS   HN2 8813   4.705   6.702   5.578  0.5891  1.6068 -0.7484
   91SAPS   HN3 8814   4.649   6.846   5.654 -2.0720 -0.6345  0.7562
   91SAPS   C12 8815   4.609   6.676   5.768  0.6106  0.5441  0.4375
   91SAPS  H12A 8816   4.574   6.747   5.841 -0.0588  0.6312  0.0302
   91SAPS   C13 8817   4.472   6.618   5.719 -0.7826  0.1225  0.3239
   91SAPS  O13A 8818   4.437   6.630   5.599 -0.0461 -0.0860 -0.2939
   91SAPS  O13B 8819   4.397   6.566   5.804 -0.2366 -0.6051  0.0131
   91SAPS   C11 8820   4.684   6.549   5.814  0.4368  0.5615  0.7512
   91SAPS  H11A 8821   4.702   6.472   5.736  1.2290  1.8519 -0.3689
   91SAPS  H11B 8822   4.615   6.504   5.888 -0.4289  1.7532  0.6849
   91SAPS     P 8823   4.939   6.501   5.862  0.3780  0.6586 -0.2399
   91SAPS   O13 8824   4.907   6.363   5.808  0.0827  0.1708 -0.3208
   91SAPS   O14 8825   5.023   6.577   5.764  0.5011 -0.0490 -0.0995
   91SAPS   O12 8826   4.804   6.580   5.882  0.8831  0.2064  0.2946
   91SAPS   O11 8827   4.997   6.487   6.002  0.2722  0.1714 -0.9987
   91SAPS    C1 8828   4.916   6.455   6.116  0.4430 -0.1901  0.0160
   91SAPS    HA 8829   4.827   6.521   6.125  2.2775  2.3097  0.4185
   91SAPS    HB 8830   4.885   6.350   6.095  0.7858 -0.5486  1.2700
   91SAPS    C2 8831   4.982   6.478   6.254  0.1328 -0.7540 -0.1562
   91SAPS    HS 8832   4.977   6.584   6.288 -0.7338 -1.0807  0.7404
   91SAPS   O21 8833   5.106   6.420   6.261 -0.9361 -0.7021  0.5804
   91SAPS   C21 8834   5.199   6.467   6.344 -0.9042  0.1181 -0.0125
   91SAPS   O22 8835   5.184   6.554   6.426 -0.1088 -0.0527  0.0985
   91SAPS   C22 8836   5.332   6.386   6.315 -0.1760  0.6308 -0.4907
   91SAPS   H2R 8837   5.294   6.282   6.327 -2.8744  1.6566  0.3580
   91SAPS   H2S 8838   5.356   6.404   6.208  1.1821 -2.2001 -0.7076
   91SAPS    C3 8839   4.893   6.411   6.372 -0.0639  0.1208 -0.0771
   91SAPS    HX 8840   4.878   6.303   6.349 -1.7628  0.7863 -2.3655
   91SAPS    HY 8841   4.793   6.460   6.375 -0.7696 -1.3537  1.3646
   91SAPS   O31 8842   4.949   6.420   6.503 -0.5878  0.6757 -0.1399
   91SAPS   C31 8843   4.873   6.384   6.611 -0.0232  0.1515  0.9478
   91SAPS   O32 8844   4.765   6.328   6.590 -0.1940 -0.3759 -0.2628
   91SAPS   C32 8845   4.938   6.432   6.737 -0.1377  0.4660 -0.4662
   91SAPS   H2X 8846   4.931   6.543   6.738 -2.8135  0.3661 -1.9843
   91SAPS   H2Y 8847   5.046   6.405   6.738 -0.4441 -0.7605  1.0020
   91SAPS   C23 8848   5.453   6.431   6.398  0.2976 -0.6753 -0.8794
   91SAPS   H3R 8849   5.456   6.542   6.403 -0.7824 -0.6997  0.3941
   91SAPS   H3S 8850   5.533   6.387   6.334  1.4749 -0.3093  0.3283
   91SAPS   C24 8851   5.469   6.361   6.542 -0.7147  0.2227  0.2876
   91SAPS   H4R 8852   5.392   6.393   6.616 -0.2404 -1.0708  1.3735
   91SAPS   H4S 8853   5.561   6.407   6.584  1.1515 -3.3116  0.3024
   91SAPS   C25 8854   5.503   6.209   6.533 -0.1878 -0.6981  0.2036
   91SAPS   H5R 8855   5.599   6.178   6.490  0.9404  0.1891  2.0123
   91SAPS   C26 8856   5.420   6.110   6.575 -0.2999 -0.3637  0.4290
   91SAPS   H6R 8857   5.451   6.008   6.547 -1.4628 -1.1499  1.9058
   91SAPS   C27 8858   5.282   6.122   6.632  0.2733 -0.0122 -0.2318
   91SAPS   H7R 8859   5.281   6.225   6.674 -2.4842 -1.2817  3.0569
   91SAPS   H7S 8860   5.269   6.065   6.727  2.1140  1.5278  0.9665
   91SAPS   C28 8861   5.167   6.096   6.539  0.2455  0.1199 -0.2996
   91SAPS   H8R 8862   5.177   6.143   6.440 -1.6319  2.7754  0.7091
   91SAPS   C29 8863   5.048   6.037   6.564  0.1222  0.2866 -0.4088
   91SAPS   H9R 8864   4.984   6.027   6.475  0.6605 -1.2519 -0.6322
   91SAPS  C210 8865   4.995   5.985   6.699 -0.7770  0.1063  0.9523
   91SAPS  H10R 8866   4.906   5.923   6.675  0.6210 -1.1166 -1.2801
   91SAPS  H10S 8867   4.968   6.065   6.771  1.3930  2.0411 -0.2889
   91SAPS  C211 8868   5.084   5.887   6.774 -0.3043  0.2715  0.5045
   91SAPS  H11R 8869   5.151   5.817   6.721  2.3013  0.4959  3.3153
   91SAPS  C212 8870   5.109   5.895   6.904 -0.2446 -0.4031 -0.3630
   91SAPS  H12R 8871   5.193   5.835   6.942  0.0717 -0.4064 -1.0614
   91SAPS  C213 8872   5.057   6.001   7.001 -0.2547 -0.0966 -0.5838
   91SAPS  H13R 8873   4.952   5.988   7.036 -0.7678 -1.8517 -2.6419
   91SAPS  H13S 8874   5.055   6.099   6.948  0.6131  0.5698  0.6015
   91SAPS  C214 8875   5.137   6.018   7.125  0.2483  0.3609 -0.0488
   91SAPS  H14R 8876   5.230   6.074   7.107 -1.5108  3.1002 -0.9609
   91SAPS  C215 8877   5.110   5.988   7.250  0.0248  0.2843 -0.3072
   91SAPS  H15R 8878   5.177   6.018   7.332  0.8180  1.8504 -1.4946
   91SAPS  C216 8879   4.978   5.916   7.279 -0.2681  0.7224 -0.3155
   91SAPS  H16R 8880   4.986   5.807   7.260 -0.5719  0.8110 -0.9449
   91SAPS  H16S 8881   4.886   5.959   7.233 -1.3961  1.6272  2.6668
   91SAPS  C217 8882   4.948   5.927   7.432  0.7668  0.1469  0.0056
   91SAPS  H17R 8883   4.838   5.914   7.439  0.4207  1.8057 -1.8181
   91SAPS  H17S 8884   4.962   6.034   7.459  2.7975  1.0246 -4.1357
   91SAPS  C218 8885   5.024   5.831   7.521  0.2343 -0.5279  0.0196
   91SAPS  H18R 8886   5.133   5.852   7.522 -0.1115  1.3619 -0.5811
   91SAPS  H18S 8887   5.009   5.731   7.474  1.0519 -1.5721  1.8977
   91SAPS  C219 8888   4.972   5.821   7.667  0.3800 -0.2431  0.0474
   91SAPS  H19R 8889   4.862   5.804   7.667  0.3856 -0.2812  0.0462
   91SAPS  H19S 8890   4.982   5.922   7.711  1.0581 -1.2507  2.2893
   91SAPS  C220 8891   5.053   5.718   7.748  0.0880 -0.3855  0.1000
   91SAPS  H20R 8892   5.159   5.748   7.746  0.3694 -1.3615 -0.0687
   91SAPS  H20S 8893   5.052   5.613   7.711  1.3994 -0.5142  0.4010
   91SAPS  H20T 8894   5.020   5.722   7.854  0.1443 -0.4782  0.1208
   91SAPS   C33 8895   4.878   6.369   6.874 -0.1874  0.1322  0.3949
   91SAPS   H3X 8896   4.871   6.258   6.873  0.7994  0.0282  2.3036
   91SAPS   H3Y 8897   4.773   6.399   6.893  0.0767  2.6446 -1.7817
   91SAPS   C34 8898   4.970   6.397   6.989  0.0196 -0.3888 -0.2603
   91SAPS   H4X 8899   4.982   6.507   6.989  1.4534 -0.5065  1.6674
   91SAPS   H4Y 8900   5.069   6.350   6.968 -0.1748 -0.5446 -0.8291
   91SAPS   C35 8901   4.926   6.350   7.120  0.2156 -0.4336  0.5452
   91SAPS   H5X 8902   5.009   6.351   7.194  0.1701  2.0659  0.6185
   91SAPS   H5Y 8903   4.880   6.249   7.127 -1.5948  0.4781  2.6903
   91SAPS   C36 8904   4.821   6.448   7.182  0.2049  0.7157 -0.1080
   91SAPS   H6X 8905   4.758   6.477   7.095  0.8732  2.0140 -0.1714
   91SAPS   H6Y 8906   4.867   6.533   7.236 -1.7891  0.6380  1.8040
   91SAPS   C37 8907   4.714   6.388   7.288 -0.5250  0.0904  0.4296
   91SAPS   H7X 8908   4.655   6.310   7.236 -1.0599  1.3012 -0.8334
   91SAPS   H7Y 8909   4.643   6.459   7.336  0.2145 -0.7854  2.8837
   91SAPS   C38 8910   4.772   6.310   7.406  0.2039 -0.5623 -0.1729
   91SAPS   H8X 8911   4.831   6.384   7.464  0.6853 -0.6778 -0.5129
   91SAPS   H8Y 8912   4.825   6.215   7.382  1.7913 -0.1170  1.4174
   91SAPS   C39 8913   4.667   6.274   7.510  0.3979  0.1752 -0.2843
   91SAPS   H9X 8914   4.587   6.212   7.464 -0.2834  0.8711 -0.0503
   91SAPS   H9Y 8915   4.617   6.367   7.546 -0.2718  0.1693 -1.1667
   91SAPS  C310 8916   4.733   6.196   7.627  0.6861  0.2776 -0.2988
   91SAPS  H10X 8917   4.810   6.267   7.666  2.7345 -2.4034  0.6422
   91SAPS  H10Y 8918   4.781   6.102   7.595  2.3110  0.7312  0.7751
   91SAPS  C311 8919   4.645   6.174   7.742 -0.4452 -0.9145  0.5930
   91SAPS  H11X 8920   4.568   6.106   7.701  1.5575 -1.3782 -2.5775
   91SAPS  H11Y 8921   4.597   6.271   7.767  0.0567 -0.3502 -0.5783
   91SAPS  C312 8922   4.719   6.124   7.859 -0.0044  1.4977 -0.0693
   91SAPS  H12X 8923   4.817   6.178   7.857  0.8732 -0.0681 -0.3327
   91SAPS  H12Y 8924   4.739   6.018   7.835 -0.7360  1.3963 -0.2326
   91SAPS  C313 8925   4.637   6.123   7.991 -0.4316  0.2331  0.0728
   91SAPS  H13X 8926   4.532   6.092   7.975 -1.7056  2.4543  3.6385
   91SAPS  H13Y 8927   4.644   6.225   8.035 -0.8752  0.8239 -1.2192
   91SAPS  C314 8928   4.689   6.019   8.093 -0.0326 -0.0321  0.3076
   91SAPS  H14X 8929   4.681   5.917   8.048  0.3696  0.1035 -0.0818
   91SAPS  H14Y 8930   4.624   6.020   8.183  3.2307 -1.2128  2.7597
   91SAPS  C315 8931   4.838   6.038   8.121  0.6118 -0.1402 -0.4186
   91SAPS  H15X 8932   4.850   6.124   8.190 -0.9519 -1.6132  1.7793
   91SAPS  H15Y 8933   4.888   6.066   8.026  0.9600  2.0888  0.3998
   91SAPS  C316 8934   4.896   5.908   8.174  0.0920  0.2090 -0.3942
   91SAPS  H16X 8935   5.005   5.903   8.192 -0.2207 -0.4989  1.4770
   91SAPS  H16Y 8936   4.885   5.831   8.094 -0.0606  0.7343 -0.8826
   91SAPS  C317 8937   4.835   5.869   8.311  0.2511  1.5025  0.2545
   91SAPS  H17X 8938   4.727   5.846   8.294  0.8127 -2.5412  1.5410
   91SAPS  H17Y 8939   4.847   5.950   8.385 -1.5727  0.4871  1.7015
   91SAPS  C318 8940   4.912   5.742   8.361  0.4299 -0.5035 -0.2360
   91SAPS  H18X 8941   4.909   5.653   8.295  0.1206 -1.1832  0.6793
   91SAPS  H18Y 8942   4.861   5.724   8.458 -1.3815  1.2090 -0.8302
   91SAPS  H18Z 8943   5.015   5.780   8.376 -0.0315  0.4316  0.6661
   92SAPS     N 8944   4.176   4.598   6.376  0.1623 -0.1278 -0.6212
   92SAPS   HN1 8945   4.280   4.589   6.368  0.0769 -2.6584  0.6052
   92SAPS   HN2 8946   4.140   4.605   6.473 -1.6631  3.2417 -1.4662
   92SAPS   HN3 8947   4.128   4.510   6.346  0.3258 -0.1400 -0.8546
   92SAPS   C12 8948   4.136   4.729   6.326 -0.2513  0.4804  0.2269
   92SAPS  H12A 8949   4.177   4.806   6.390 -0.8978  0.3987  0.7473
   92SAPS   C13 8950   4.166   4.745   6.172 -1.1744  0.2927 -0.0183
   92SAPS  O13A 8951   4.205   4.648   6.099  0.1800  0.3160 -0.2591
   92SAPS  O13B 8952   4.175   4.862   6.131 -0.0879  0.4173 -0.4818
   92SAPS   C11 8953   3.980   4.738   6.325  0.8819  0.3937 -0.4077
   92SAPS  H11A 8954   3.952   4.641   6.279  2.9511  0.2490 -1.4334
   92SAPS  H11B 8955   3.949   4.830   6.272 -0.6860 -0.2870 -0.7113
   92SAPS     P 8956   3.776   4.749   6.474 -0.0205  0.3160  0.4814
   92SAPS   O13 8957   3.737   4.842   6.583  0.4131  0.0084  1.0970
   92SAPS   O14 8958   3.724   4.777   6.341 -0.6256 -0.1208 -0.0182
   92SAPS   O12 8959   3.935   4.742   6.457 -0.3037  0.1571  0.3093
   92SAPS   O11 8960   3.741   4.600   6.509  0.5507 -0.6879  0.2320
   92SAPS    C1 8961   3.823   4.526   6.603 -0.3047  0.6380 -0.4872
   92SAPS    HA 8962   3.921   4.506   6.554  0.3370 -1.1010  1.4362
   92SAPS    HB 8963   3.852   4.579   6.696 -0.1098  0.9965 -0.7528
   92SAPS    C2 8964   3.749   4.392   6.648  0.7870  0.6057  0.1319
   92SAPS    HS 8965   3.731   4.335   6.555  3.3163 -0.7308  0.4352
   92SAPS   O21 8966   3.625   4.435   6.715  0.6945 -0.0789 -0.2026
   92SAPS   C21 8967   3.535   4.338   6.712 -0.6112  0.8823  0.1759
   92SAPS   O22 8968   3.545   4.224   6.672 -0.1945  0.5034  0.3329
   92SAPS   C22 8969   3.409   4.379   6.779  0.3711 -0.5224 -0.3086
   92SAPS   H2R 8970   3.382   4.472   6.723 -2.6990 -0.4443  1.1599
   92SAPS   H2S 8971   3.334   4.300   6.759 -2.6784  2.5019 -1.4483
   92SAPS    C3 8972   3.837   4.313   6.752  0.0670  0.0843  0.7560
   92SAPS    HX 8973   3.926   4.278   6.696  0.4008  0.4920  1.0267
   92SAPS    HY 8974   3.772   4.230   6.786 -0.1397 -1.4738 -3.2295
   92SAPS   O31 8975   3.877   4.399   6.863  0.3858  0.0426 -0.5062
   92SAPS   C31 8976   3.910   4.324   6.965  0.2926 -0.4368  0.8403
   92SAPS   O32 8977   3.911   4.203   6.967 -0.2449  0.0228 -0.0969
   92SAPS   C32 8978   3.971   4.395   7.090  0.4021  0.7736  0.2259
   92SAPS   H2X 8979   3.965   4.504   7.070  0.5935  0.8951  0.8145
   92SAPS   H2Y 8980   4.079   4.369   7.097  0.3618  0.8627  1.3073
   92SAPS   C23 8981   3.429   4.439   6.921  0.1154  0.3589  0.1225
   92SAPS   H3R 8982   3.328   4.473   6.953 -0.5104  1.5430 -2.9064
   92SAPS   H3S 8983   3.495   4.528   6.917  0.4750  0.1049  0.3768
   92SAPS   C24 8984   3.479   4.336   7.024 -0.5206  0.2439 -0.2696
   92SAPS   H4R 8985   3.502   4.378   7.124 -2.4681  0.2180  0.2023
   92SAPS   H4S 8986   3.566   4.290   6.972 -0.1954  1.6187 -0.9579
   92SAPS   C25 8987   3.375   4.231   7.060 -0.0271 -1.1197  0.1522
   92SAPS   H5R 8988   3.289   4.217   6.993 -1.2534  2.4144  0.8637
   92SAPS   C26 8989   3.384   4.149   7.165 -0.2714  0.0339  1.0169
   92SAPS   H6R 8990   3.303   4.077   7.182 -0.7744  0.2434 -0.4496
   92SAPS   C27 8991   3.499   4.146   7.267 -0.5465  0.3136 -0.0025
   92SAPS   H7R 8992   3.466   4.090   7.357  1.5329 -0.1017  0.5278
   92SAPS   H7S 8993   3.527   4.250   7.294 -0.7716  0.1082  1.0614
   92SAPS   C28 8994   3.629   4.088   7.219  0.1340 -0.0345 -0.0099
   92SAPS   H8R 8995   3.643   4.081   7.110  1.7091 -1.7688  0.2880
   92SAPS   C29 8996   3.713   4.021   7.291 -0.2289 -0.2233 -0.1148
   92SAPS   H9R 8997   3.801   3.975   7.243 -0.0982 -0.3027  0.1945
   92SAPS  C210 8998   3.709   3.968   7.435  0.6081 -0.3975  0.7952
   92SAPS  H10R 8999   3.713   3.857   7.432  0.1455 -0.5251  3.5440
   92SAPS  H10S 9000   3.613   3.990   7.486  1.3928  2.9494  0.9388
   92SAPS  C211 9001   3.822   4.018   7.524  0.6883 -0.2471  0.7752
   92SAPS  H11R 9002   3.860   4.120   7.509  1.3281 -0.7390 -1.1692
   92SAPS  C212 9003   3.867   3.952   7.635 -0.4978  0.7316  1.1623
   92SAPS  H12R 9004   3.939   4.008   7.697 -1.3597  2.7293  0.4229
   92SAPS  C213 9005   3.825   3.820   7.685 -0.2015 -1.1045 -0.4123
   92SAPS  H13R 9006   3.914   3.757   7.705 -0.7562 -1.5714  0.6113
   92SAPS  H13S 9007   3.772   3.765   7.604 -2.5544  0.5757 -0.0676
   92SAPS  C214 9008   3.730   3.824   7.793  0.0554  0.1180  0.0320
   92SAPS  H14R 9009   3.639   3.882   7.775 -0.0452 -0.4179 -1.2284
   92SAPS  C215 9010   3.747   3.760   7.911 -0.2557 -0.0802  0.6431
   92SAPS  H15R 9011   3.667   3.772   7.984 -0.8549  2.6967 -0.4279
   92SAPS  C216 9012   3.856   3.677   7.960  0.2316 -0.6395  0.0809
   92SAPS  H16R 9013   3.955   3.720   7.931 -0.6495  1.0833 -0.4400
   92SAPS  H16S 9014   3.847   3.570   7.932 -1.4640 -1.0425  2.1045
   92SAPS  C217 9015   3.860   3.677   8.115 -0.0802 -0.4556  0.8545
   92SAPS  H17R 9016   3.942   3.610   8.150  1.2696  0.9437  0.4002
   92SAPS  H17S 9017   3.761   3.633   8.141 -0.0466 -0.2214  1.3872
   92SAPS  C218 9018   3.877   3.818   8.176  0.2000  0.6450 -0.8173
   92SAPS  H18R 9019   3.805   3.889   8.130 -0.7910  0.9886  1.2202
   92SAPS  H18S 9020   3.984   3.839   8.155  1.2006 -1.5192  1.8353
   92SAPS  C219 9021   3.861   3.822   8.323 -0.1880 -0.0479 -0.2754
   92SAPS  H19R 9022   3.947   3.782   8.380  1.2655  1.2615 -1.5221
   92SAPS  H19S 9023   3.764   3.778   8.355 -1.6305  2.2737 -1.3380
   92SAPS  C220 9024   3.852   3.968   8.372  0.2434 -0.1732  0.2315
   92SAPS  H20R 9025   3.761   4.014   8.327 -0.9943 -2.4483  0.3190
   92SAPS  H20S 9026   3.943   4.029   8.353  0.6553 -1.0838 -0.7303
   92SAPS  H20T 9027   3.827   3.963   8.481 -1.5802  1.1577 -0.0898
   92SAPS   C33 9028   3.898   4.363   7.224 -0.6063 -0.8041  0.3376
   92SAPS   H3X 9029   3.903   4.252   7.234 -1.3779 -0.7933  0.8881
   92SAPS   H3Y 9030   3.793   4.399   7.215 -0.7341 -1.2187  0.1496
   92SAPS   C34 9031   3.963   4.428   7.349  0.3449 -0.6878 -0.1735
   92SAPS   H4X 9032   3.991   4.532   7.321  1.4201 -0.9803 -0.2308
   92SAPS   H4Y 9033   4.056   4.371   7.373  0.5536  0.4163  1.7551
   92SAPS   C35 9034   3.870   4.442   7.468  0.7332 -0.2809 -0.3330
   92SAPS   H5X 9035   3.844   4.339   7.503 -2.3759  0.7155  0.4616
   92SAPS   H5Y 9036   3.780   4.493   7.429 -0.3047  0.6175  3.0748
   92SAPS   C36 9037   3.937   4.526   7.577  0.4680  0.6258  0.1732
   92SAPS   H6X 9038   3.960   4.625   7.532 -0.7249  0.3097 -1.1749
   92SAPS   H6Y 9039   4.038   4.486   7.604  0.5829  1.3620  0.8672
   92SAPS   C37 9040   3.858   4.539   7.702  0.6063 -0.3023  0.5003
   92SAPS   H7X 9041   3.832   4.435   7.734  2.9485 -1.0436  0.0670
   92SAPS   H7Y 9042   3.761   4.585   7.673  0.5650 -0.8887 -0.3068
   92SAPS   C38 9043   3.929   4.615   7.818 -0.5312 -0.9220  0.2343
   92SAPS   H8X 9044   3.972   4.707   7.771  0.7727 -2.1612 -1.0634
   92SAPS   H8Y 9045   4.023   4.560   7.842 -0.2713 -0.6302 -0.0908
   92SAPS   C39 9046   3.846   4.631   7.944  0.4676 -0.0254 -0.8006
   92SAPS   H9X 9047   3.828   4.531   7.987 -0.5304  1.5219  2.5796
   92SAPS   H9Y 9048   3.750   4.679   7.915  1.6359  2.8473 -0.1146
   92SAPS  C310 9049   3.910   4.728   8.051  0.4525 -0.0770  0.4967
   92SAPS  H10X 9050   3.919   4.832   8.011  0.2051  0.5579  2.0633
   92SAPS  H10Y 9051   4.008   4.683   8.079  0.3668 -0.4381  0.2217
   92SAPS  C311 9052   3.828   4.729   8.180  0.4690 -0.2975  0.0674
   92SAPS  H11X 9053   3.835   4.626   8.220 -1.8526  0.4561  2.5772
   92SAPS  H11Y 9054   3.721   4.747   8.155  0.6062 -2.8844 -2.6965
   92SAPS  C312 9055   3.873   4.836   8.283  0.6209 -0.3463 -0.5840
   92SAPS  H12X 9056   3.836   4.792   8.378 -0.2675  0.8402 -0.3802
   92SAPS  H12Y 9057   3.825   4.934   8.265  0.0144 -1.0509 -3.1112
   92SAPS  C313 9058   4.024   4.844   8.291 -0.7796 -0.5053  0.4556
   92SAPS  H13X 9059   4.071   4.888   8.200  0.9607 -0.0500  1.5428
   92SAPS  H13Y 9060   4.059   4.739   8.302  0.9895 -0.3456 -3.0776
   92SAPS  C314 9061   4.082   4.926   8.407 -0.5224  1.2368  0.4692
   92SAPS  H14X 9062   4.038   5.028   8.411  0.9671  1.9863 -1.2513
   92SAPS  H14Y 9063   4.188   4.954   8.387 -0.4807  1.4216  0.9348
   92SAPS  C315 9064   4.070   4.854   8.540  0.4367  0.2081 -0.5209
   92SAPS  H15X 9065   4.127   4.759   8.550 -0.4970 -0.3354 -0.2876
   92SAPS  H15Y 9066   3.965   4.825   8.562  0.4920  2.5423  3.2398
   92SAPS  C316 9067   4.124   4.946   8.651 -0.2610 -0.3901  0.1391
   92SAPS  H16X 9068   4.049   5.026   8.657 -1.1792 -1.0767 -1.6341
   92SAPS  H16Y 9069   4.213   5.001   8.613 -2.1806  1.3110 -2.0343
   92SAPS  C317 9070   4.143   4.881   8.793  0.0673 -0.3452  0.1942
   92SAPS  H17X 9071   4.233   4.816   8.795  1.2727  1.2664 -0.6769
   92SAPS  H17Y 9072   4.060   4.815   8.825  1.9586 -3.2928 -0.7723
   92SAPS  C318 9073   4.182   4.981   8.898 -0.6623  0.2173  0.3177
   92SAPS  H18X 9074   4.102   5.055   8.918 -1.0965  0.1483 -1.0782
   92SAPS  H18Y 9075   4.274   5.028   8.857 -1.1181  0.5656 -0.3171
   92SAPS  H18Z 9076   4.203   4.933   8.995 -0.8114  1.6490  1.0743
   93SAPS     N 9077   5.688   3.894   6.570  0.8677 -0.4324 -0.2513
   93SAPS   HN1 9078   5.765   3.954   6.607 -0.6793  1.4253  0.0549
   93SAPS   HN2 9079   5.605   3.904   6.632  0.8869  2.0687 -0.5934
   93SAPS   HN3 9080   5.716   3.794   6.570 -2.4105 -1.4360 -2.1273
   93SAPS   C12 9081   5.643   3.947   6.432  0.0159 -0.3810  0.1677
   93SAPS  H12A 9082   5.723   3.923   6.364 -1.2135  3.2134 -2.7183
   93SAPS   C13 9083   5.503   3.890   6.382 -0.1215 -0.0544  0.1404
   93SAPS  O13A 9084   5.444   3.812   6.455 -0.4310 -0.4730 -0.8261
   93SAPS  O13B 9085   5.449   3.924   6.272  0.1272  0.6270  0.1169
   93SAPS   C11 9086   5.621   4.103   6.451  0.1482  0.0112 -0.2387
   93SAPS  H11A 9087   5.546   4.113   6.533 -0.4882 -0.6299 -0.7321
   93SAPS  H11B 9088   5.576   4.156   6.365 -0.6388  2.0969  1.4196
   93SAPS     P 9089   5.742   4.317   6.535  0.5141  0.3258 -0.4695
   93SAPS   O13 9090   5.870   4.370   6.585  0.0376 -0.1057  0.2215
   93SAPS   O14 9091   5.672   4.404   6.438  0.1608  1.1717 -0.0094
   93SAPS   O12 9092   5.741   4.171   6.481 -0.4627 -0.4017  0.3331
   93SAPS   O11 9093   5.640   4.288   6.652 -1.2933 -0.3466 -0.0411
   93SAPS    C1 9094   5.525   4.371   6.665  0.1732  0.4159  0.0968
   93SAPS    HA 9095   5.559   4.476   6.672 -0.6612  0.7490 -0.8580
   93SAPS    HB 9096   5.457   4.362   6.578  0.4301  0.7277 -0.1347
   93SAPS    C2 9097   5.440   4.355   6.793 -0.2944  0.3257  0.7156
   93SAPS    HS 9098   5.388   4.256   6.793  1.4456 -0.6030  1.7857
   93SAPS   O21 9099   5.344   4.463   6.794  0.3927  0.2689  0.4273
   93SAPS   C21 9100   5.234   4.453   6.714  0.4038 -0.7292 -0.0708
   93SAPS   O22 9101   5.218   4.373   6.626  0.4452 -0.2527  0.5001
   93SAPS   C22 9102   5.136   4.563   6.763 -0.7073  0.4478  0.9368
   93SAPS   H2R 9103   5.178   4.603   6.858  0.0692  0.8977  0.4018
   93SAPS   H2S 9104   5.146   4.650   6.694  1.8518 -0.1059  0.5759
   93SAPS    C3 9105   5.533   4.365   6.922  1.0273  0.2743 -0.4306
   93SAPS    HX 9106   5.576   4.466   6.905 -2.0881  1.9145  0.9215
   93SAPS    HY 9107   5.609   4.286   6.904 -1.3756 -2.2630  0.0479
   93SAPS   O31 9108   5.474   4.361   7.058 -0.6059 -0.5142 -0.2004
   93SAPS   C31 9109   5.444   4.235   7.088  0.0775  0.4653  0.2921
   93SAPS   O32 9110   5.467   4.135   7.024  0.2989 -0.8797  0.3927
   93SAPS   C32 9111   5.363   4.225   7.210  0.1335  0.9329 -0.2845
   93SAPS   H2X 9112   5.305   4.130   7.214 -0.9728  1.6543  1.5358
   93SAPS   H2Y 9113   5.292   4.311   7.214  1.3836  1.9055  2.1052
   93SAPS   C23 9114   4.994   4.510   6.779  0.0199 -0.3819  0.5940
   93SAPS   H3R 9115   4.982   4.430   6.702  1.3823  0.3905 -0.4482
   93SAPS   H3S 9116   4.924   4.583   6.734  1.4711  1.4042  1.2084
   93SAPS   C24 9117   4.934   4.470   6.913 -0.0662 -0.2193 -1.0771
   93SAPS   H4R 9118   4.830   4.442   6.888 -1.2949  3.2757 -0.1821
   93SAPS   H4S 9119   4.921   4.556   6.983 -0.4999  0.5282 -2.0574
   93SAPS   C25 9120   5.005   4.352   6.973  0.0289 -0.6327 -0.7450
   93SAPS   H5R 9121   5.043   4.286   6.894  3.6764  0.6936 -0.1886
   93SAPS   C26 9122   5.040   4.335   7.098 -0.5427  0.3386  0.0637
   93SAPS   H6R 9123   5.096   4.247   7.135 -0.2809 -0.4342 -2.0922
   93SAPS   C27 9124   5.043   4.434   7.211  0.7302  0.1576 -0.2622
   93SAPS   H7R 9125   5.046   4.531   7.157 -3.1405 -0.5247 -1.8465
   93SAPS   H7S 9126   5.134   4.423   7.274  0.1049 -0.0008  0.6248
   93SAPS   C28 9127   4.908   4.432   7.276 -0.0221  0.1763 -1.2211
   93SAPS   H8R 9128   4.835   4.448   7.195 -0.7255  1.4633 -0.3399
   93SAPS   C29 9129   4.882   4.424   7.406 -0.4145 -0.0978  0.2159
   93SAPS   H9R 9130   4.778   4.432   7.441 -0.0800 -0.1373  1.2594
   93SAPS  C210 9131   4.979   4.392   7.521  0.6712 -0.9317  0.1168
   93SAPS  H10R 9132   5.067   4.337   7.482  0.5525 -2.8995  2.5021
   93SAPS  H10S 9133   4.920   4.321   7.583 -0.7116 -1.2535 -1.5274
   93SAPS  C211 9134   5.030   4.511   7.600  0.5342  0.3302 -0.1301
   93SAPS  H11R 9135   5.092   4.581   7.543  0.4804  0.1463 -0.4155
   93SAPS  C212 9136   5.019   4.529   7.733 -0.4294 -0.0925  0.8543
   93SAPS  H12R 9137   5.068   4.620   7.772 -0.8482  1.5174 -2.1745
   93SAPS  C213 9138   4.950   4.437   7.823  0.3642  0.6299 -1.0391
   93SAPS  H13R 9139   5.028   4.368   7.861  0.3937  1.0628 -0.3039
   93SAPS  H13S 9140   4.878   4.368   7.774  0.0302  0.3290 -0.1323
   93SAPS  C214 9141   4.883   4.496   7.948 -0.5256 -0.6364  0.1677
   93SAPS  H14R 9142   4.775   4.516   7.942 -0.4227  0.1241  0.8086
   93SAPS  C215 9143   4.943   4.543   8.063 -0.5272  0.5211 -0.0608
   93SAPS  H15R 9144   4.880   4.599   8.133  0.0615  1.8820 -0.5981
   93SAPS  C216 9145   5.090   4.550   8.091 -0.9758 -0.4108 -0.5531
   93SAPS  H16R 9146   5.114   4.657   8.110 -0.2188 -0.5880 -0.4922
   93SAPS  H16S 9147   5.160   4.514   8.013  2.1467  0.8857  1.5373
   93SAPS  C217 9148   5.127   4.465   8.215  0.0628 -0.1472  0.6124
   93SAPS  H17R 9149   5.078   4.508   8.304  1.4294 -0.6363  1.6091
   93SAPS  H17S 9150   5.237   4.472   8.227  0.2573 -0.0462 -1.0500
   93SAPS  C218 9151   5.085   4.311   8.211  0.8655 -0.0965 -0.6590
   93SAPS  H18R 9152   5.151   4.266   8.134  0.6048  0.0182 -0.9487
   93SAPS  H18S 9153   4.979   4.290   8.188 -0.2858  2.2726  2.0958
   93SAPS  C219 9154   5.101   4.234   8.344  0.2547  0.4086  0.2527
   93SAPS  H19R 9155   5.039   4.142   8.349 -0.8767  1.0551 -1.3517
   93SAPS  H19S 9156   5.051   4.292   8.425 -0.1555 -0.9515  0.9973
   93SAPS  C220 9157   5.246   4.192   8.381  0.0313 -0.3141 -0.0139
   93SAPS  H20R 9158   5.307   4.280   8.409  0.1339 -1.0495  2.1605
   93SAPS  H20S 9159   5.294   4.145   8.292  0.6529 -0.7037  0.5321
   93SAPS  H20T 9160   5.257   4.125   8.468  0.2714 -1.6061 -1.0166
   93SAPS   C33 9161   5.448   4.224   7.335 -0.4512 -0.5288  0.2480
   93SAPS   H3X 9162   5.527   4.302   7.343 -1.8428  0.9105  0.2551
   93SAPS   H3Y 9163   5.493   4.122   7.334 -1.0729 -0.8262 -3.4297
   93SAPS   C34 9164   5.360   4.237   7.459 -0.5449 -0.0777 -0.2068
   93SAPS   H4X 9165   5.292   4.150   7.472  0.0205 -0.3529  1.0315
   93SAPS   H4Y 9166   5.294   4.325   7.449  0.1601  0.8629  2.8082
   93SAPS   C35 9167   5.455   4.244   7.578 -0.1096  0.5363 -0.9208
   93SAPS   H5X 9168   5.520   4.334   7.577  0.4817  0.1623  0.9485
   93SAPS   H5Y 9169   5.521   4.154   7.579 -1.3977 -0.4281  0.2898
   93SAPS   C36 9170   5.388   4.249   7.725 -0.8953  0.5362 -0.4331
   93SAPS   H6X 9171   5.320   4.161   7.728 -1.5185  0.9688 -1.4083
   93SAPS   H6Y 9172   5.321   4.337   7.728  0.6360  1.7011  0.9458
   93SAPS   C37 9173   5.493   4.257   7.835 -0.3817 -0.1218 -0.6879
   93SAPS   H7X 9174   5.574   4.317   7.789  1.7815 -1.8240  0.7834
   93SAPS   H7Y 9175   5.529   4.153   7.848  0.6727  0.4140  0.9442
   93SAPS   C38 9176   5.449   4.326   7.969  0.1936  0.1572 -0.0744
   93SAPS   H8X 9177   5.375   4.255   8.013  0.8588 -0.4246  0.1101
   93SAPS   H8Y 9178   5.399   4.422   7.948  1.9492  0.6755 -1.9813
   93SAPS   C39 9179   5.565   4.341   8.056 -0.6265 -0.4255  0.5402
   93SAPS   H9X 9180   5.640   4.415   8.019 -0.3096 -1.4732 -0.9455
   93SAPS   H9Y 9181   5.619   4.244   8.069 -1.2880 -0.7404  0.9800
   93SAPS  C310 9182   5.527   4.383   8.203  0.5509 -0.6016  0.8673
   93SAPS  H10X 9183   5.438   4.323   8.232  0.3340 -0.5015  0.4029
   93SAPS  H10Y 9184   5.494   4.488   8.196 -0.2297 -0.9240 -0.3314
   93SAPS  C311 9185   5.653   4.374   8.295 -0.5305  0.4965 -0.3361
   93SAPS  H11X 9186   5.722   4.435   8.233  0.9154 -1.3306 -0.5615
   93SAPS  H11Y 9187   5.688   4.269   8.306 -2.0574  0.0828  0.8342
   93SAPS  C312 9188   5.653   4.432   8.432  0.7058  0.7129  0.8232
   93SAPS  H12X 9189   5.574   4.401   8.504  0.7313  1.0301  0.9866
   93SAPS  H12Y 9190   5.636   4.541   8.419 -0.6567  0.2656 -1.4283
   93SAPS  C313 9191   5.793   4.405   8.490  0.0309 -0.6111 -0.0937
   93SAPS  H13X 9192   5.861   4.460   8.421  2.2689 -0.4448  2.1541
   93SAPS  H13Y 9193   5.820   4.298   8.486  1.1558 -0.3028 -0.9703
   93SAPS  C314 9194   5.813   4.436   8.636 -0.0427 -0.3570 -0.4839
   93SAPS  H14X 9195   5.803   4.546   8.645  0.0983 -0.3707 -0.1443
   93SAPS  H14Y 9196   5.919   4.428   8.669 -0.3616 -2.8851 -0.0076
   93SAPS  C315 9197   5.726   4.354   8.741  0.3829  0.7613 -0.6551
   93SAPS  H15X 9198   5.623   4.391   8.723  0.1693 -0.4534 -1.9516
   93SAPS  H15Y 9199   5.763   4.392   8.839 -0.6412 -0.7595  0.3405
   93SAPS  C316 9200   5.745   4.209   8.732 -0.6585 -0.1526  0.7045
   93SAPS  H16X 9201   5.698   4.178   8.636  0.2265  1.3549 -0.2475
   93SAPS  H16Y 9202   5.687   4.159   8.812 -1.5821  0.4678  0.4266
   93SAPS  C317 9203   5.888   4.161   8.760  0.5811  0.6417 -0.2036
   93SAPS  H17X 9204   5.930   4.205   8.853 -2.0963  1.6257  0.6108
   93SAPS  H17Y 9205   5.965   4.187   8.685 -0.3088  0.3168 -1.2524
   93SAPS  C318 9206   5.899   4.013   8.764  1.0466 -0.1067 -0.3836
   93SAPS  H18X 9207   5.995   3.966   8.798  1.0716  1.5659  1.9312
   93SAPS  H18Y 9208   5.887   3.977   8.660  0.0910  0.0013 -0.3065
   93SAPS  H18Z 9209   5.823   3.974   8.835  2.1375 -2.0260 -0.2092
   94SAPS     N 9210   5.191   0.437   6.037  0.0971 -0.3908 -0.3502
   94SAPS   HN1 9211   5.229   0.531   6.056  1.3972 -0.9943  0.1024
   94SAPS   HN2 9212   5.088   0.450   6.049 -0.0094 -1.3494 -0.1348
   94SAPS   HN3 9213   5.219   0.366   6.108  2.7913  0.8026 -0.1800
   94SAPS   C12 9214   5.230   0.394   5.901  0.0123 -0.7032 -0.3497
   94SAPS  H12A 9215   5.196   0.474   5.837 -0.6916 -0.2535  0.5933
   94SAPS   C13 9216   5.382   0.362   5.874 -0.0483  0.0447 -0.4165
   94SAPS  O13A 9217   5.469   0.366   5.966 -0.3434 -0.6719  0.0252
   94SAPS  O13B 9218   5.415   0.349   5.755  0.0383  0.2125  0.3817
   94SAPS   C11 9219   5.147   0.267   5.860 -0.7787  0.0215  0.4269
   94SAPS  H11A 9220   5.199   0.178   5.902 -0.8095  0.0176  0.4563
   94SAPS  H11B 9221   5.140   0.257   5.749 -0.8630 -0.6447  0.4874
   94SAPS     P 9222   4.895   0.183   5.893  0.2439  0.6744  0.0942
   94SAPS   O13 9223   4.783   0.278   5.868  0.5738  0.0196  0.4156
   94SAPS   O14 9224   4.917   0.092   5.777 -0.3444 -0.0313 -0.2059
   94SAPS   O12 9225   5.020   0.275   5.920  0.3347  0.0789  0.1180
   94SAPS   O11 9226   4.881   0.111   6.032  0.0780 -0.2554  0.1290
   94SAPS    C1 9227   4.982   0.076   6.118  0.3436  0.5004 -0.1755
   94SAPS    HA 9228   4.958  -0.029   6.144 -0.3086  0.8683  0.7481
   94SAPS    HB 9229   5.079   0.085   6.064  0.9908 -0.0774  0.8859
   94SAPS    C2 9230   4.987   0.175   6.239  0.5529  0.6404  0.2199
   94SAPS    HS 9231   5.022   0.272   6.199  0.6857  1.2794  1.8505
   94SAPS   O21 9232   5.093   0.123   6.327  0.0856  0.3195  0.4783
   94SAPS   C21 9233   5.216   0.168   6.303  0.2050  0.4147  0.1733
   94SAPS   O22 9234   5.251   0.221   6.196  0.3508 -0.0730  0.2097
   94SAPS   C22 9235   5.310   0.121   6.412 -0.7227  0.1144  1.1213
   94SAPS   H2R 9236   5.268   0.162   6.505  2.4585  1.6089  1.9674
   94SAPS   H2S 9237   5.316   0.010   6.418  1.1541  0.1878  0.9341
   94SAPS    C3 9238   4.857   0.185   6.311 -0.0084 -0.1122 -0.2650
   94SAPS    HX 9239   4.804   0.089   6.327  0.4282 -0.1684  0.9290
   94SAPS    HY 9240   4.784   0.243   6.251  0.2261  1.9115  1.3676
   94SAPS   O31 9241   4.882   0.228   6.443 -0.2170 -1.2194 -0.2961
   94SAPS   C31 9242   4.863   0.356   6.464 -1.4318  0.8377 -0.4117
   94SAPS   O32 9243   4.808   0.436   6.387 -0.7032  0.2134  0.7212
   94SAPS   C32 9244   4.900   0.390   6.605 -0.1484  0.3421 -1.2136
   94SAPS   H2X 9245   5.008   0.373   6.624  0.2925  3.3134 -0.7708
   94SAPS   H2Y 9246   4.846   0.321   6.672  1.2875  0.1008 -0.2963
   94SAPS   C23 9247   5.458   0.167   6.404 -0.6885  0.2422  0.3573
   94SAPS   H3R 9248   5.473   0.276   6.416 -1.6042  0.4730 -0.4669
   94SAPS   H3S 9249   5.498   0.129   6.307 -0.1263  1.6855  0.0058
   94SAPS   C24 9250   5.554   0.102   6.506  0.1446  0.1248 -0.4675
   94SAPS   H4R 9251   5.652   0.147   6.479 -0.0665  0.0885 -1.3176
   94SAPS   H4S 9252   5.562  -0.005   6.477 -1.8239  0.1755 -1.3153
   94SAPS   C25 9253   5.507   0.142   6.649 -0.2929  0.2272 -1.1586
   94SAPS   H5R 9254   5.496   0.251   6.662  1.6895  0.5253 -1.7416
   94SAPS   C26 9255   5.464   0.049   6.737 -0.4692 -0.2925 -0.3288
   94SAPS   H6R 9256   5.432   0.078   6.838 -0.3554  2.9025 -1.1491
   94SAPS   C27 9257   5.457  -0.102   6.713 -0.3185  0.4836 -0.4004
   94SAPS   H7R 9258   5.535  -0.155   6.772 -0.0526  1.4713  0.1358
   94SAPS   H7S 9259   5.480  -0.141   6.612  1.0671  0.8432 -0.2323
   94SAPS   C28 9260   5.313  -0.146   6.744  0.3554  0.4311 -0.3695
   94SAPS   H8R 9261   5.247  -0.125   6.658 -0.5424  2.0267  0.6904
   94SAPS   C29 9262   5.272  -0.243   6.824 -0.4123  0.2738 -0.5762
   94SAPS   H9R 9263   5.166  -0.273   6.817  0.3569 -2.4436 -1.2432
   94SAPS  C210 9264   5.358  -0.322   6.919  0.6392 -0.1780 -0.3145
   94SAPS  H10R 9265   5.461  -0.335   6.878  0.9697  2.8943 -0.5973
   94SAPS  H10S 9266   5.302  -0.417   6.934 -0.6039  0.7344  0.9781
   94SAPS  C211 9267   5.380  -0.243   7.043 -1.4940  0.3801 -0.5757
   94SAPS  H11R 9268   5.421  -0.144   7.016 -0.3658 -0.3328 -1.5561
   94SAPS  C212 9269   5.360  -0.272   7.176 -0.2599  0.7792  0.3590
   94SAPS  H12R 9270   5.378  -0.197   7.255 -0.6608 -1.6217  2.8073
   94SAPS  C213 9271   5.306  -0.403   7.231 -0.3878  0.0486  0.0569
   94SAPS  H13R 9272   5.258  -0.463   7.151 -0.4432  0.0625  0.0796
   94SAPS  H13S 9273   5.223  -0.373   7.299 -0.5713  0.7129 -0.4626
   94SAPS  C214 9274   5.403  -0.492   7.302 -0.3635  0.1214 -0.8798
   94SAPS  H14R 9275   5.498  -0.501   7.246 -1.1761 -1.3974 -2.0533
   94SAPS  C215 9276   5.383  -0.566   7.417  0.5385 -0.3586 -0.5422
   94SAPS  H15R 9277   5.472  -0.606   7.469 -1.3614 -1.0346  2.2705
   94SAPS  C216 9278   5.255  -0.558   7.497  0.3448  0.4355 -0.1326
   94SAPS  H16R 9279   5.239  -0.654   7.551 -0.4348  0.9801  0.6068
   94SAPS  H16S 9280   5.164  -0.557   7.434 -0.0144 -1.5725  0.3236
   94SAPS  C217 9281   5.246  -0.454   7.610 -0.0728 -0.2185 -0.9691
   94SAPS  H17R 9282   5.262  -0.350   7.574 -0.2850  0.3063  0.4163
   94SAPS  H17S 9283   5.325  -0.475   7.686  0.2667  1.1305 -0.9463
   94SAPS  C218 9284   5.118  -0.454   7.691 -1.2878 -0.4432 -0.6442
   94SAPS  H18R 9285   5.089  -0.561   7.704  0.5484 -1.1753 -2.2343
   94SAPS  H18S 9286   5.031  -0.417   7.633 -2.1792  2.3586  2.3524
   94SAPS  C219 9287   5.127  -0.390   7.834 -0.5056 -0.1458 -0.0696
   94SAPS  H19R 9288   5.018  -0.380   7.853 -1.1267 -3.4448 -1.5857
   94SAPS  H19S 9289   5.174  -0.289   7.832  1.4341 -1.0533 -0.3879
   94SAPS  C220 9290   5.197  -0.475   7.936 -0.0969  0.2140  0.2059
   94SAPS  H20R 9291   5.305  -0.496   7.917 -1.2197 -4.1188 -1.7931
   94SAPS  H20S 9292   5.140  -0.569   7.948 -1.0246  0.6637 -0.5999
   94SAPS  H20T 9293   5.201  -0.424   8.035  1.2391 -0.2164  0.3911
   94SAPS   C33 9294   4.871   0.536   6.645  0.7759 -0.0051 -0.0063
   94SAPS   H3X 9295   4.773   0.566   6.600  0.4862 -1.3069 -0.2460
   94SAPS   H3Y 9296   4.952   0.604   6.612 -1.2724  1.0517 -3.0073
   94SAPS   C34 9297   4.837   0.520   6.791  0.2728  0.3515 -0.2600
   94SAPS   H4X 9298   4.896   0.440   6.841  0.3561  0.3808 -0.3120
   94SAPS   H4Y 9299   4.728   0.501   6.800  0.4130 -0.5987 -0.5618
   94SAPS   C35 9300   4.865   0.648   6.864 -0.1425 -0.1184  0.1981
   94SAPS   H5X 9301   4.797   0.722   6.816 -0.1406 -0.4663 -0.3559
   94SAPS   H5Y 9302   4.971   0.677   6.848  0.5135 -1.1534  2.4374
   94SAPS   C36 9303   4.822   0.641   7.011  0.3652 -0.3994 -0.2681
   94SAPS   H6X 9304   4.712   0.637   7.026  0.5054  2.0749  1.8808
   94SAPS   H6Y 9305   4.849   0.736   7.063 -0.2844 -0.7989  0.8063
   94SAPS   C37 9306   4.874   0.528   7.098 -0.4767  0.4475  0.2552
   94SAPS   H7X 9307   4.981   0.528   7.068 -0.9334  1.4138 -1.4426
   94SAPS   H7Y 9308   4.815   0.435   7.085 -1.1170  1.0100 -0.9635
   94SAPS   C38 9309   4.857   0.567   7.246 -0.1457 -0.0616  0.5678
   94SAPS   H8X 9310   4.751   0.601   7.256 -1.0050 -2.7393  1.2070
   94SAPS   H8Y 9311   4.929   0.648   7.268  3.5432 -2.5384 -1.8822
   94SAPS   C39 9312   4.883   0.458   7.347 -0.1593 -0.3264  0.2638
   94SAPS   H9X 9313   4.982   0.409   7.331 -0.0143  0.0956 -0.1446
   94SAPS   H9Y 9314   4.813   0.377   7.317  1.5345 -1.3486 -1.0452
   94SAPS  C310 9315   4.868   0.510   7.487  0.2174 -0.2948  0.7275
   94SAPS  H10X 9316   4.760   0.533   7.490  0.1261 -0.6142  0.0875
   94SAPS  H10Y 9317   4.937   0.597   7.492 -0.4095  0.2710 -0.3567
   94SAPS  C311 9318   4.887   0.408   7.593 -0.7507  0.1143  1.0697
   94SAPS  H11X 9319   4.991   0.371   7.579 -0.5563  1.6131 -1.7736
   94SAPS  H11Y 9320   4.818   0.325   7.565 -1.1006  1.1220 -1.1268
   94SAPS  C312 9321   4.849   0.457   7.733 -0.4143  0.1794  0.4413
   94SAPS  H12X 9322   4.744   0.490   7.721  0.8728  3.7410 -1.7117
   94SAPS  H12Y 9323   4.912   0.540   7.770  1.2736 -0.7663 -0.2576
   94SAPS  C313 9324   4.864   0.337   7.834 -0.7025 -0.7826  0.5045
   94SAPS  H13X 9325   4.969   0.304   7.848 -0.8708 -1.8176 -0.6115
   94SAPS  H13Y 9326   4.822   0.254   7.774  2.0866 -1.3266 -0.7624
   94SAPS  C314 9327   4.798   0.344   7.974  0.0270  0.5290 -0.4832
   94SAPS  H14X 9328   4.795   0.237   8.004 -1.3127  0.8015  0.4386
   94SAPS  H14Y 9329   4.693   0.380   7.975 -0.1055  0.1662 -1.2254
   94SAPS  C315 9330   4.888   0.407   8.081  0.5632 -0.0465 -0.0460
   94SAPS  H15X 9331   4.992   0.379   8.055  0.8233  0.3953  0.4955
   94SAPS  H15Y 9332   4.866   0.353   8.176  2.2763 -1.3443 -0.3610
   94SAPS  C316 9333   4.860   0.554   8.081 -0.2065  0.3624 -0.2957
   94SAPS  H16X 9334   4.764   0.585   8.128 -0.2496  0.7790 -0.6531
   94SAPS  H16Y 9335   4.868   0.587   7.975  0.2004  0.3646 -0.2672
   94SAPS  C317 9336   4.968   0.635   8.161  0.7900 -0.4249 -0.2983
   94SAPS  H17X 9337   5.061   0.614   8.104 -0.7464 -2.3297 -2.1675
   94SAPS  H17Y 9338   4.986   0.591   8.261  2.3084  0.3866 -0.1876
   94SAPS  C318 9339   4.952   0.784   8.171  0.4019  0.0035 -0.2961
   94SAPS  H18X 9340   4.845   0.800   8.197  0.3375  1.2925 -1.2415
   94SAPS  H18Y 9341   4.955   0.840   8.074 -0.0661  2.0408  0.8299
   94SAPS  H18Z 9342   5.025   0.831   8.240 -0.8819  1.9033 -0.1741
   95SAPS     N 9343   1.588   5.117   5.923  0.1127 -0.3045 -0.3044
   95SAPS   HN1 9344   1.626   5.168   5.841 -1.0491 -1.1425 -1.3904
   95SAPS   HN2 9345   1.532   5.041   5.879 -0.4043 -0.9448  1.4163
   95SAPS   HN3 9346   1.530   5.185   5.978  3.6091  1.6562  1.1082
   95SAPS   C12 9347   1.699   5.075   6.009  0.6596 -0.1722 -0.9480
   95SAPS  H12A 9348   1.751   4.999   5.953  1.6661 -1.3068  1.4464
   95SAPS   C13 9349   1.790   5.191   6.045 -1.2943 -0.7103 -0.0391
   95SAPS  O13A 9350   1.760   5.312   6.027 -0.4818 -0.4191 -0.0298
   95SAPS  O13B 9351   1.895   5.170   6.110 -0.1625  0.4406 -0.1863
   95SAPS   C11 9352   1.639   5.027   6.148 -0.0632 -0.6434 -0.2702
   95SAPS  H11A 9353   1.601   5.116   6.203  0.3357 -1.2277  0.9711
   95SAPS  H11B 9354   1.725   4.993   6.209  2.0474 -1.8937 -3.7804
   95SAPS     P 9355   1.564   4.783   6.143  0.4698 -0.1461 -0.2088
   95SAPS   O13 9356   1.446   4.718   6.085 -0.1802  0.4887  0.3013
   95SAPS   O14 9357   1.692   4.746   6.079 -0.3401 -0.1858 -0.0300
   95SAPS   O12 9358   1.532   4.937   6.126 -1.1068 -0.4349 -0.4847
   95SAPS   O11 9359   1.563   4.760   6.299  0.4319  0.1925 -0.1614
   95SAPS    C1 9360   1.503   4.848   6.398 -0.7396  0.3018 -0.0133
   95SAPS    HA 9361   1.575   4.877   6.478 -1.4844  2.6576 -0.1511
   95SAPS    HB 9362   1.459   4.942   6.359 -0.8586  1.7846  3.4629
   95SAPS    C2 9363   1.388   4.779   6.478 -0.1389 -0.5601 -0.3358
   95SAPS    HS 9364   1.358   4.849   6.559  0.4245 -0.0620 -0.5488
   95SAPS   O21 9365   1.428   4.643   6.526  0.3236  0.0755 -0.1393
   95SAPS   C21 9366   1.441   4.633   6.663 -0.7621 -0.1276 -0.3374
   95SAPS   O22 9367   1.408   4.721   6.739 -0.2630 -0.1569  0.1452
   95SAPS   C22 9368   1.487   4.495   6.705  0.3972 -0.5976 -0.6801
   95SAPS   H2R 9369   1.389   4.462   6.747 -0.8098  1.7873 -1.5174
   95SAPS   H2S 9370   1.503   4.437   6.612 -2.9924 -0.9962 -1.0872
   95SAPS    C3 9371   1.268   4.768   6.380  0.1499  0.2274  0.2715
   95SAPS    HX 9372   1.293   4.700   6.296  1.5119 -0.3326  1.1071
   95SAPS    HY 9373   1.252   4.865   6.328  1.0482  0.5392  0.5649
   95SAPS   O31 9374   1.150   4.716   6.437 -0.7378 -0.5152 -0.0675
   95SAPS   C31 9375   1.078   4.810   6.503 -0.0538  0.3449 -0.1268
   95SAPS   O32 9376   1.100   4.927   6.507  0.2759 -0.2405 -0.2176
   95SAPS   C32 9377   0.957   4.745   6.563  0.3185  0.5866 -0.1694
   95SAPS   H2X 9378   0.887   4.724   6.479  0.0436  2.5338 -0.4501
   95SAPS   H2Y 9379   0.918   4.811   6.644 -1.2053  0.1754 -0.5369
   95SAPS   C23 9380   1.606   4.467   6.800  0.7760 -0.2445 -1.0465
   95SAPS   H3R 9381   1.707   4.472   6.754  0.6856  2.3958 -1.0772
   95SAPS   H3S 9382   1.603   4.366   6.845  2.7140  0.2264  0.2059
   95SAPS   C24 9383   1.606   4.559   6.924 -0.2458  0.8149  0.0389
   95SAPS   H4R 9384   1.503   4.558   6.964 -1.1590 -2.0434 -2.2384
   95SAPS   H4S 9385   1.616   4.667   6.899  0.6789  0.3000 -1.9270
   95SAPS   C25 9386   1.721   4.529   7.017  0.9662 -0.1092  0.5583
   95SAPS   H5R 9387   1.811   4.581   6.980  0.6456 -0.4146 -0.6649
   95SAPS   C26 9388   1.707   4.456   7.131  0.5789 -0.1021  0.4774
   95SAPS   H6R 9389   1.799   4.443   7.191  0.1614 -0.4884  1.0330
   95SAPS   C27 9390   1.583   4.393   7.179 -0.1187 -0.0999  0.3414
   95SAPS   H7R 9391   1.498   4.397   7.108  0.1925  1.0580  0.0207
   95SAPS   H7S 9392   1.533   4.452   7.260 -0.1225  1.1114 -0.5377
   95SAPS   C28 9393   1.589   4.247   7.223 -0.0928 -0.1552  0.6845
   95SAPS   H8R 9394   1.576   4.171   7.145 -0.4240  0.6506 -0.0527
   95SAPS   C29 9395   1.602   4.209   7.350 -0.3773 -0.7126 -0.4900
   95SAPS   H9R 9396   1.619   4.101   7.361  0.7054 -0.4932  0.0950
   95SAPS  C210 9397   1.629   4.297   7.470  0.1808  0.3668 -0.0606
   95SAPS  H10R 9398   1.584   4.397   7.451 -1.5823 -0.2138  0.9136
   95SAPS  H10S 9399   1.737   4.312   7.490  0.2656  0.6330 -0.6985
   95SAPS  C211 9400   1.563   4.237   7.588  0.1356 -0.2014  0.1267
   95SAPS  H11R 9401   1.520   4.138   7.566 -0.4236 -0.1847  1.1425
   95SAPS  C212 9402   1.528   4.299   7.703 -0.6763  0.3707 -0.1511
   95SAPS  H12R 9403   1.487   4.239   7.786  0.2865 -0.6608 -0.4032
   95SAPS  C213 9404   1.564   4.449   7.738 -0.2377  0.3933 -0.5390
   95SAPS  H13R 9405   1.465   4.493   7.761 -0.3877  0.4516 -1.2616
   95SAPS  H13S 9406   1.591   4.510   7.649  2.2484 -0.3374 -0.3270
   95SAPS  C214 9407   1.646   4.473   7.864  0.1073 -0.7124  0.0371
   95SAPS  H14R 9408   1.754   4.493   7.857 -0.1095  0.2571 -0.6801
   95SAPS  C215 9409   1.604   4.476   7.990  0.0208  0.0435  0.7558
   95SAPS  H15R 9410   1.672   4.500   8.073  0.3591  0.4878  0.3520
   95SAPS  C216 9411   1.460   4.447   8.029  0.3167 -0.5760 -0.4561
   95SAPS  H16R 9412   1.466   4.360   8.098  0.8744  1.0853  1.6159
   95SAPS  H16S 9413   1.395   4.433   7.940 -0.8975 -0.4241  0.3926
   95SAPS  C217 9414   1.398   4.570   8.108 -0.1979  0.5946  0.1599
   95SAPS  H17R 9415   1.289   4.554   8.121 -0.1108  0.6850  1.0470
   95SAPS  H17S 9416   1.407   4.667   8.054 -0.3997  0.8227  0.5379
   95SAPS  C218 9417   1.461   4.584   8.253 -0.1636 -0.1501 -0.6038
   95SAPS  H18R 9418   1.572   4.588   8.242 -0.4213  0.4587 -3.2609
   95SAPS  H18S 9419   1.449   4.484   8.302  0.7791 -0.1665 -0.3809
   95SAPS  C219 9420   1.411   4.703   8.332 -0.6281 -0.0409  0.6276
   95SAPS  H19R 9421   1.303   4.683   8.344 -0.3818 -2.0736 -0.2612
   95SAPS  H19S 9422   1.420   4.796   8.271  0.7283 -2.2496 -2.7123
   95SAPS  C220 9423   1.475   4.711   8.470  1.0398  0.5852  0.4452
   95SAPS  H20R 9424   1.434   4.790   8.537 -2.1353 -0.8442  0.2656
   95SAPS  H20S 9425   1.586   4.708   8.462  1.0458  1.8623 -0.1175
   95SAPS  H20T 9426   1.444   4.615   8.517  0.3449  0.2748 -0.6289
   95SAPS   C33 9427   0.977   4.605   6.629 -0.2304 -0.1300  0.1257
   95SAPS   H3X 9428   1.031   4.538   6.559  1.0407 -0.5079  1.4437
   95SAPS   H3Y 9429   0.884   4.552   6.659 -0.2743  0.3277  0.7996
   95SAPS   C34 9430   1.058   4.611   6.750 -0.6900  0.0215 -0.2775
   95SAPS   H4X 9431   1.018   4.681   6.826 -2.0846 -0.6941 -0.3526
   95SAPS   H4Y 9432   1.160   4.644   6.718  0.6492 -0.6854  3.0841
   95SAPS   C35 9433   1.085   4.471   6.812 -0.1358  0.5483  0.0468
   95SAPS   H5X 9434   1.146   4.411   6.741 -0.8011 -2.2831  1.8011
   95SAPS   H5Y 9435   0.985   4.423   6.825  0.9053 -2.3280 -2.0766
   95SAPS   C36 9436   1.174   4.481   6.940  0.3169 -0.1558 -0.0074
   95SAPS   H6X 9437   1.125   4.559   7.002 -1.2436 -0.0230 -1.3840
   95SAPS   H6Y 9438   1.279   4.513   6.919  0.8040 -0.5713  1.6715
   95SAPS   C37 9439   1.169   4.349   7.023 -0.0646 -0.5595 -0.5879
   95SAPS   H7X 9440   1.228   4.264   6.981 -1.8921 -2.6498  0.9258
   95SAPS   H7Y 9441   1.065   4.308   7.023 -0.7346  1.0524  1.5973
   95SAPS   C38 9442   1.192   4.377   7.173 -0.5550 -0.5943 -0.5535
   95SAPS   H8X 9443   1.113   4.440   7.219  1.4703 -0.0246  2.2507
   95SAPS   H8Y 9444   1.285   4.436   7.183 -0.3694 -0.7348 -1.4359
   95SAPS   C39 9445   1.203   4.251   7.256 -0.6642 -0.2842 -0.3748
   95SAPS   H9X 9446   1.286   4.187   7.219  0.2052 -0.8675  2.4490
   95SAPS   H9Y 9447   1.111   4.191   7.239  0.1829 -2.1793  1.4374
   95SAPS  C310 9448   1.227   4.277   7.407  0.3274  0.2873  0.0861
   95SAPS  H10X 9449   1.331   4.311   7.427  0.4567 -0.0218 -0.0442
   95SAPS  H10Y 9450   1.236   4.176   7.455 -2.2237  0.5061  1.0740
   95SAPS  C311 9451   1.124   4.361   7.484 -0.1295 -0.0380 -0.0498
   95SAPS  H11X 9452   1.024   4.314   7.489 -0.9046  1.3068 -2.0840
   95SAPS  H11Y 9453   1.114   4.458   7.430 -0.4280 -0.2273 -0.3365
   95SAPS  C312 9454   1.165   4.399   7.632  0.6677 -0.4330  0.5541
   95SAPS  H12X 9455   1.272   4.426   7.626  0.3616  0.4711 -1.2427
   95SAPS  H12Y 9456   1.152   4.304   7.689 -1.1502 -0.3945  0.2471
   95SAPS  C313 9457   1.077   4.505   7.686  0.0555  0.5161  0.2115
   95SAPS  H13X 9458   0.970   4.484   7.669  0.0020 -0.9549  2.2057
   95SAPS  H13Y 9459   1.112   4.599   7.637  2.4156  0.5801  1.9219
   95SAPS  C314 9460   1.087   4.523   7.839  0.6662 -0.0564 -0.1933
   95SAPS  H14X 9461   1.182   4.576   7.862 -0.6884  1.9070  0.9291
   95SAPS  H14Y 9462   1.094   4.423   7.888 -6.1238 -0.5304  0.1746
   95SAPS  C315 9463   0.971   4.612   7.891 -0.2534 -0.1002  0.5670
   95SAPS  H15X 9464   0.867   4.575   7.879  0.0168 -0.3793 -1.0349
   95SAPS  H15Y 9465   0.977   4.705   7.831  2.4592 -0.4802  0.1511
   95SAPS  C316 9466   0.984   4.644   8.038  0.2659 -0.3193  0.0284
   95SAPS  H16X 9467   1.089   4.676   8.053 -0.2963  1.7092 -0.2756
   95SAPS  H16Y 9468   0.981   4.555   8.104 -0.2086  0.4311  1.0119
   95SAPS  C317 9469   0.901   4.755   8.090 -0.4869  0.2868  0.4021
   95SAPS  H17X 9470   0.794   4.733   8.070  0.1602 -2.8259 -0.0080
   95SAPS  H17Y 9471   0.934   4.843   8.031  0.1351 -0.0496  0.2287
   95SAPS  C318 9472   0.931   4.781   8.240 -0.4034 -0.6358 -0.1816
   95SAPS  H18X 9473   0.889   4.877   8.277 -1.1901 -0.8674 -0.4554
   95SAPS  H18Y 9474   1.040   4.772   8.261 -0.2494 -0.1582 -0.7597
   95SAPS  H18Z 9475   0.868   4.701   8.286 -0.5474  0.4643  1.5621
   96SAPS     N 9476   2.049   5.401   6.073 -0.1412  0.0120  0.7981
   96SAPS   HN1 9477   2.133   5.340   6.070 -0.7638 -0.7910 -3.3949
   96SAPS   HN2 9478   2.029   5.419   6.173 -1.1097 -2.6284  1.1008
   96SAPS   HN3 9479   1.974   5.348   6.026  0.5130 -0.9171  0.7938
   96SAPS   C12 9480   2.083   5.526   5.989  0.1299  0.2074 -0.5328
   96SAPS  H12A 9481   2.179   5.553   6.032  0.0061  1.6856 -1.1230
   96SAPS   C13 9482   2.118   5.489   5.836 -0.0551  0.0910 -0.4095
   96SAPS  O13A 9483   2.128   5.369   5.801  0.6024 -0.0812 -0.0106
   96SAPS  O13B 9484   2.198   5.576   5.794 -0.1404 -0.1352  0.0209
   96SAPS   C11 9485   1.962   5.628   5.991  0.6904  0.0572  0.2144
   96SAPS  H11A 9486   1.870   5.578   5.955  1.2111  0.6838 -2.0587
   96SAPS  H11B 9487   1.985   5.703   5.913 -1.4345  1.6613  1.0819
   96SAPS     P 9488   1.817   5.772   6.163  0.1532  0.5730  0.2912
   96SAPS   O13 9489   1.758   5.842   6.046 -0.3567  0.5290 -0.0515
   96SAPS   O14 9490   1.726   5.678   6.238 -0.7152 -0.0362  0.5484
   96SAPS   O12 9491   1.948   5.694   6.114  0.3445 -0.0447 -0.1481
   96SAPS   O11 9492   1.882   5.878   6.261 -0.0959 -0.0616 -0.4175
   96SAPS    C1 9493   2.007   5.859   6.330 -0.0652  0.3872  0.3652
   96SAPS    HA 9494   2.096   5.853   6.263  1.0075  2.7451  1.5283
   96SAPS    HB 9495   2.036   5.942   6.398 -1.6686  1.5751 -0.3613
   96SAPS    C2 9496   2.008   5.744   6.442 -0.1371 -0.1763 -0.7365
   96SAPS    HS 9497   1.993   5.641   6.401  0.5508 -0.2506 -0.8020
   96SAPS   O21 9498   1.917   5.782   6.547 -0.3675 -0.0369 -0.4982
   96SAPS   C21 9499   1.894   5.688   6.631 -0.3474  0.6519 -0.4114
   96SAPS   O22 9500   1.926   5.573   6.621  0.3709  0.1563  0.4310
   96SAPS   C22 9501   1.806   5.742   6.745 -0.4735  0.8278  0.5879
   96SAPS   H2R 9502   1.846   5.842   6.772 -0.5272  0.7328  1.0139
   96SAPS   H2S 9503   1.699   5.762   6.722  0.0830  4.2525  0.8624
   96SAPS    C3 9504   2.153   5.731   6.489 -0.3399 -0.3623 -0.4126
   96SAPS    HX 9505   2.216   5.731   6.397  0.1532  0.4558 -0.0786
   96SAPS    HY 9506   2.169   5.632   6.537 -1.2818 -1.5439 -2.4943
   96SAPS   O31 9507   2.189   5.840   6.575 -0.4829  0.0725 -0.5481
   96SAPS   C31 9508   2.320   5.832   6.606 -0.1902 -0.3032 -0.3020
   96SAPS   O32 9509   2.399   5.763   6.539  0.1570 -0.4554  0.0513
   96SAPS   C32 9510   2.345   5.913   6.727 -0.8983 -0.3648  0.2877
   96SAPS   H2X 9511   2.274   5.881   6.806  0.8280 -2.2071  1.1162
   96SAPS   H2Y 9512   2.322   6.020   6.710  0.2769 -0.1385  0.0883
   96SAPS   C23 9513   1.817   5.657   6.875  0.2637 -0.1265  0.5232
   96SAPS   H3R 9514   1.919   5.668   6.918 -0.2931 -3.2322  2.8426
   96SAPS   H3S 9515   1.814   5.550   6.847 -2.1876 -0.4928  1.9976
   96SAPS   C24 9516   1.701   5.670   6.969 -0.0235 -0.1559 -0.1905
   96SAPS   H4R 9517   1.717   5.580   7.033  0.2435  0.1384  0.1582
   96SAPS   H4S 9518   1.600   5.653   6.924  0.3460 -2.7137 -0.1650
   96SAPS   C25 9519   1.688   5.809   7.030 -0.5341  0.7984  0.4397
   96SAPS   H5R 9520   1.636   5.886   6.972 -1.2118 -0.6896 -0.9807
   96SAPS   C26 9521   1.724   5.838   7.156 -0.2292 -0.0844  0.3359
   96SAPS   H6R 9522   1.698   5.940   7.188 -1.7153 -0.5269  0.5698
   96SAPS   C27 9523   1.785   5.752   7.259 -0.1294 -0.9197 -0.2268
   96SAPS   H7R 9524   1.863   5.814   7.310 -1.3426  0.0528  0.4630
   96SAPS   H7S 9525   1.832   5.668   7.204  0.7542  1.0855 -2.6178
   96SAPS   C28 9526   1.680   5.697   7.356  0.8146 -0.6820  0.4835
   96SAPS   H8R 9527   1.606   5.623   7.320  0.4016 -0.6185  1.1830
   96SAPS   C29 9528   1.681   5.728   7.488  0.4546 -0.1223 -0.3817
   96SAPS   H9R 9529   1.594   5.685   7.540  0.0793  1.0148 -0.0325
   96SAPS  C210 9530   1.773   5.809   7.568  0.5993 -0.7982 -0.5358
   96SAPS  H10R 9531   1.874   5.763   7.561  2.1226  2.1712  1.0040
   96SAPS  H10S 9532   1.750   5.802   7.676  0.1057 -1.4585 -0.6824
   96SAPS  C211 9533   1.795   5.953   7.540  0.0796 -0.0002  0.1701
   96SAPS  H11R 9534   1.740   5.998   7.457 -1.3627 -0.3077  0.9319
   96SAPS  C212 9535   1.852   6.041   7.627 -0.2229  0.6028  0.1095
   96SAPS  H12R 9536   1.858   6.146   7.597 -0.3162  0.0575 -1.9151
   96SAPS  C213 9537   1.919   5.996   7.749  0.0169  0.0354  0.3368
   96SAPS  H13R 9538   2.026   5.976   7.729 -0.5288 -1.0346 -1.7140
   96SAPS  H13S 9539   1.890   5.896   7.788  1.7307 -1.4305 -2.0558
   96SAPS  C214 9540   1.915   6.102   7.858 -0.5745 -0.9281 -0.6242
   96SAPS  H14R 9541   1.985   6.186   7.850 -1.2454 -0.1414  1.3969
   96SAPS  C215 9542   1.820   6.114   7.950  0.3171  0.1226  0.4594
   96SAPS  H15R 9543   1.816   6.190   8.029 -0.0528 -1.3668  1.9047
   96SAPS  C216 9544   1.700   6.018   7.967 -0.2763  0.1625  0.2014
   96SAPS  H16R 9545   1.700   5.946   7.882  2.7535  2.1977 -1.6060
   96SAPS  H16S 9546   1.598   6.061   7.967 -0.6151 -0.5162  2.9996
   96SAPS  C217 9547   1.701   5.934   8.095 -0.3775  0.2143  0.2748
   96SAPS  H17R 9548   1.787   5.865   8.108  0.8832  1.5078 -1.0732
   96SAPS  H17S 9549   1.619   5.860   8.087 -0.0789  0.0586 -1.3972
   96SAPS  C218 9550   1.681   6.026   8.216  0.9068 -0.1826  0.8096
   96SAPS  H18R 9551   1.579   6.070   8.212  1.6500  1.4352 -1.5389
   96SAPS  H18S 9552   1.754   6.109   8.199  0.3210  0.7760  2.7541
   96SAPS  C219 9553   1.696   5.952   8.349 -1.4404 -0.0520 -0.4507
   96SAPS  H19R 9554   1.799   5.909   8.346 -1.3877  0.0869 -0.6726
   96SAPS  H19S 9555   1.623   5.869   8.338  1.3495 -2.3855 -2.1278
   96SAPS  C220 9556   1.676   6.040   8.469 -0.2156 -0.3629  0.3509
   96SAPS  H20R 9557   1.751   6.121   8.481  0.3350 -0.6917 -0.7874
   96SAPS  H20S 9558   1.672   5.969   8.555  0.6117 -1.3321 -0.4001
   96SAPS  H20T 9559   1.578   6.090   8.454  1.3929  2.6101 -0.8266
   96SAPS   C33 9560   2.499   5.898   6.769  0.0250  0.4540  0.3136
   96SAPS   H3X 9561   2.563   5.961   6.703  0.3638 -0.7266 -0.4880
   96SAPS   H3Y 9562   2.530   5.792   6.761 -2.8738 -0.6359  2.6102
   96SAPS   C34 9563   2.515   5.953   6.909  0.3302  0.6188 -0.2561
   96SAPS   H4X 9564   2.615   5.925   6.947  0.5562  1.9612  0.1682
   96SAPS   H4Y 9565   2.437   5.924   6.982 -1.1123  0.3207 -1.8685
   96SAPS   C35 9566   2.517   6.100   6.892 -0.8675 -0.6159  0.2950
   96SAPS   H5X 9567   2.416   6.137   6.864 -1.4983 -0.0001  3.2352
   96SAPS   H5Y 9568   2.578   6.140   6.808 -1.5418  0.8590  0.4801
   96SAPS   C36 9569   2.571   6.172   7.015  0.3380 -0.3989  0.2806
   96SAPS   H6X 9570   2.577   6.275   6.975  1.3011 -0.4952  0.1554
   96SAPS   H6Y 9571   2.674   6.144   7.045  0.7467  0.1673 -0.5578
   96SAPS   C37 9572   2.473   6.172   7.130  0.9457 -0.0554  0.4642
   96SAPS   H7X 9573   2.375   6.127   7.100  1.3580  0.5167 -1.8036
   96SAPS   H7Y 9574   2.464   6.278   7.163  3.0064 -0.6616  3.1319
   96SAPS   C38 9575   2.529   6.100   7.249  0.1428  0.7277 -0.3867
   96SAPS   H8X 9576   2.618   6.160   7.276 -1.7709  2.4795  2.2918
   96SAPS   H8Y 9577   2.555   5.993   7.235  0.1687  0.8297 -1.1256
   96SAPS   C39 9578   2.435   6.118   7.377  0.2696 -0.0026 -0.2524
   96SAPS   H9X 9579   2.343   6.057   7.361  1.6993 -1.8177 -1.7078
   96SAPS   H9Y 9580   2.409   6.226   7.373  0.3745 -0.0046 -0.9804
   96SAPS  C310 9581   2.492   6.095   7.518 -0.5015  0.4570 -0.6581
   96SAPS  H10X 9582   2.593   6.142   7.514 -0.2036  0.2333  2.6523
   96SAPS  H10Y 9583   2.497   5.987   7.545  0.1599  0.5433 -0.4199
   96SAPS  C311 9584   2.407   6.151   7.628  0.4791  0.4001  0.0518
   96SAPS  H11X 9585   2.311   6.095   7.626  1.4419 -1.3280  0.8315
   96SAPS  H11Y 9586   2.402   6.259   7.602 -0.7962  0.1459 -0.8423
   96SAPS  C312 9587   2.469   6.147   7.766  0.0995  0.3327 -0.3410
   96SAPS  H12X 9588   2.557   6.214   7.751  1.3499 -1.1533  0.2019
   96SAPS  H12Y 9589   2.496   6.040   7.777  0.4290  0.4599  0.0942
   96SAPS  C313 9590   2.370   6.197   7.879 -0.0593 -0.4462 -0.0504
   96SAPS  H13X 9591   2.266   6.159   7.866 -1.5541  3.5006 -0.2878
   96SAPS  H13Y 9592   2.355   6.307   7.883  1.6838 -0.1811 -0.5224
   96SAPS  C314 9593   2.416   6.155   8.021  0.4688  0.5151  0.8141
   96SAPS  H14X 9594   2.524   6.180   8.030  0.5852  0.4386 -0.3327
   96SAPS  H14Y 9595   2.410   6.045   8.038 -0.0957  0.1270 -1.6999
   96SAPS  C315 9596   2.346   6.240   8.134 -0.0788  0.7205  0.2513
   96SAPS  H15X 9597   2.243   6.201   8.150  0.1865 -0.6511 -1.3157
   96SAPS  H15Y 9598   2.333   6.345   8.100 -3.3316  1.0725  2.3076
   96SAPS  C316 9599   2.422   6.225   8.265  0.0517  0.2715 -0.3786
   96SAPS  H16X 9600   2.513   6.290   8.260 -0.1050  0.7743  2.1817
   96SAPS  H16Y 9601   2.443   6.119   8.289 -0.7802  0.2480  0.2663
   96SAPS  C317 9602   2.343   6.270   8.388 -0.2645  0.0512  0.6340
   96SAPS  H17X 9603   2.398   6.246   8.481  1.8449  0.1963 -0.5467
   96SAPS  H17Y 9604   2.252   6.208   8.377  0.7270 -1.3468  0.1600
   96SAPS  C318 9605   2.307   6.416   8.407  0.5066  0.0534 -0.0152
   96SAPS  H18X 9606   2.259   6.455   8.314  0.0341  0.7546  0.5202
   96SAPS  H18Y 9607   2.394   6.483   8.417  0.0014  0.7097  0.0132
   96SAPS  H18Z 9608   2.239   6.424   8.495  0.0307 -0.4766 -0.3271
   97SAPS     N 9609   2.333   3.762   6.404 -0.8087 -0.0126 -0.4327
   97SAPS   HN1 9610   2.421   3.745   6.458 -1.9052 -1.0441  1.0796
   97SAPS   HN2 9611   2.265   3.809   6.468  0.5462  1.4151 -0.0200
   97SAPS   HN3 9612   2.299   3.668   6.377 -0.2857 -0.1157 -0.7393
   97SAPS   C12 9613   2.369   3.856   6.295 -0.1332  0.2337 -0.0745
   97SAPS  H12A 9614   2.445   3.819   6.228  0.5613  1.2686  0.1321
   97SAPS   C13 9615   2.252   3.901   6.204 -0.1877  0.3514 -0.6339
   97SAPS  O13A 9616   2.130   3.864   6.233  0.1997 -0.4392 -0.2248
   97SAPS  O13B 9617   2.274   3.949   6.090  0.1893 -0.3090  0.1383
   97SAPS   C11 9618   2.427   3.981   6.364 -0.0558  0.0678  0.1500
   97SAPS  H11A 9619   2.345   4.023   6.425  2.1360 -0.6955  3.7568
   97SAPS  H11B 9620   2.455   4.050   6.281  0.2155  0.6935  0.7607
   97SAPS     P 9621   2.618   4.056   6.534 -0.0435  0.1896  0.2450
   97SAPS   O13 9622   2.741   3.993   6.593 -0.0564  0.0169  0.4787
   97SAPS   O14 9623   2.642   4.176   6.451 -0.1298 -0.1366 -0.0171
   97SAPS   O12 9624   2.540   3.944   6.445  0.1376 -0.7221 -0.6000
   97SAPS   O11 9625   2.534   4.096   6.657 -0.0413 -0.0047  0.0949
   97SAPS    C1 9626   2.455   4.011   6.729 -0.1512 -0.3077 -0.2102
   97SAPS    HA 9627   2.352   4.009   6.687 -0.3425  0.1049  0.2318
   97SAPS    HB 9628   2.492   3.907   6.723  0.8007  0.0409 -0.4110
   97SAPS    C2 9629   2.464   4.038   6.881 -0.1687  0.4266  0.1636
   97SAPS    HS 9630   2.440   4.146   6.886  1.1606  0.7033  0.6811
   97SAPS   O21 9631   2.598   4.014   6.934  0.2498  0.1390 -0.1544
   97SAPS   C21 9632   2.695   4.106   6.930  0.8180  0.1788 -1.1356
   97SAPS   O22 9633   2.675   4.225   6.905  0.3623 -0.1812  0.4934
   97SAPS   C22 9634   2.827   4.034   6.975 -0.4882 -0.7096  0.2477
   97SAPS   H2R 9635   2.861   3.983   6.882 -2.1457  1.4460 -1.6063
   97SAPS   H2S 9636   2.888   4.124   7.001  1.1066 -1.4002 -1.0115
   97SAPS    C3 9637   2.364   3.944   6.963  0.3278 -0.5648 -0.5879
   97SAPS    HX 9638   2.386   3.836   6.950 -1.8516 -0.7843 -2.8416
   97SAPS    HY 9639   2.267   3.960   6.912 -0.5568 -1.2719  0.8485
   97SAPS   O31 9640   2.359   3.992   7.097  0.0460 -0.3821  0.6325
   97SAPS   C31 9641   2.431   3.927   7.187  0.2907  0.1225  0.3091
   97SAPS   O32 9642   2.499   3.829   7.159  0.1435 -0.0222  0.1452
   97SAPS   C32 9643   2.436   4.007   7.317 -0.8571 -0.6033  0.5825
   97SAPS   H2X 9644   2.378   4.102   7.315  3.5148  2.2035  0.0024
   97SAPS   H2Y 9645   2.541   4.039   7.335 -0.7635 -1.0102  0.7735
   97SAPS   C23 9646   2.803   3.939   7.094  0.3843 -0.8104 -0.2065
   97SAPS   H3R 9647   2.778   3.836   7.059  0.9238 -0.6099 -1.1814
   97SAPS   H3S 9648   2.719   3.974   7.158 -0.4578 -1.6202 -0.8584
   97SAPS   C24 9649   2.938   3.918   7.168  0.2772 -0.4439  0.2031
   97SAPS   H4R 9650   3.002   3.880   7.086  1.2170  3.0040 -0.7377
   97SAPS   H4S 9651   2.920   3.836   7.241  1.9976 -0.1938  0.9284
   97SAPS   C25 9652   3.011   4.034   7.230 -0.0732  0.2324 -0.1796
   97SAPS   H5R 9653   2.985   4.137   7.201 -2.5916  0.4207  2.5004
   97SAPS   C26 9654   3.097   4.026   7.341  0.4461 -0.8363  0.0855
   97SAPS   H6R 9655   3.140   4.119   7.382  0.3013 -0.0595 -1.4962
   97SAPS   C27 9656   3.126   3.903   7.427 -0.0519  0.2409  1.1101
   97SAPS   H7R 9657   3.085   3.809   7.384 -0.3251 -0.1221  2.1322
   97SAPS   H7S 9658   3.071   3.908   7.524 -2.6012 -1.5934 -0.1858
   97SAPS   C28 9659   3.271   3.896   7.437 -0.0290 -0.1662  0.0169
   97SAPS   H8R 9660   3.325   3.900   7.341  0.3721 -1.6163  0.1703
   97SAPS   C29 9661   3.350   3.892   7.547  0.2738  0.7367  0.4081
   97SAPS   H9R 9662   3.453   3.860   7.527 -0.9363 -2.4943 -1.0148
   97SAPS  C210 9663   3.301   3.893   7.690  0.6708 -0.1343 -0.1493
   97SAPS  H10R 9664   3.233   3.980   7.702  1.9397  0.9609 -0.8006
   97SAPS  H10S 9665   3.382   3.921   7.761 -0.7048  1.6317  0.7888
   97SAPS  C211 9666   3.229   3.762   7.720  0.2248 -0.1127 -0.7399
   97SAPS  H11R 9667   3.147   3.745   7.649 -0.3450 -0.6660  0.0464
   97SAPS  C212 9668   3.248   3.678   7.831 -0.5364  0.1614  0.1096
   97SAPS  H12R 9669   3.182   3.591   7.843 -0.6100  0.4326  1.8657
   97SAPS  C213 9670   3.348   3.697   7.938 -0.1159 -0.4985 -0.1179
   97SAPS  H13R 9671   3.445   3.742   7.907 -0.4757  0.8627  0.6921
   97SAPS  H13S 9672   3.378   3.597   7.976  2.4955 -1.0012 -3.2794
   97SAPS  C214 9673   3.304   3.774   8.062  0.3437  0.5107 -0.0326
   97SAPS  H14R 9674   3.199   3.805   8.054  0.3496  0.3298 -0.8360
   97SAPS  C215 9675   3.352   3.789   8.188 -0.2812 -0.5018  0.0607
   97SAPS  H15R 9676   3.304   3.861   8.256 -0.4455 -0.2721 -0.2918
   97SAPS  C216 9677   3.487   3.742   8.229  0.0448  0.0382 -0.1650
   97SAPS  H16R 9678   3.556   3.822   8.261 -1.2438  0.3168  1.9716
   97SAPS  H16S 9679   3.538   3.690   8.145 -2.4997 -1.0651 -1.0637
   97SAPS  C217 9680   3.471   3.649   8.350 -0.7454  0.2489  0.0963
   97SAPS  H17R 9681   3.573   3.607   8.362 -1.3700 -0.8507  1.8317
   97SAPS  H17S 9682   3.402   3.563   8.332  1.5315 -1.9616  1.5730
   97SAPS  C218 9683   3.415   3.710   8.478 -0.3676  0.6876  0.0240
   97SAPS  H18R 9684   3.400   3.628   8.551 -0.6191  0.2355 -0.5249
   97SAPS  H18S 9685   3.310   3.747   8.468 -0.7835 -0.9192 -2.0812
   97SAPS  C219 9686   3.506   3.824   8.535  0.5164 -0.4993 -0.4336
   97SAPS  H19R 9687   3.518   3.904   8.459  2.1570 -0.7939 -0.5006
   97SAPS  H19S 9688   3.605   3.785   8.566 -1.0415 -4.0979  0.3968
   97SAPS  C220 9689   3.443   3.908   8.653 -0.8470  0.5758  0.4698
   97SAPS  H20R 9690   3.449   3.839   8.740  0.3542 -2.3926 -1.8828
   97SAPS  H20S 9691   3.335   3.929   8.635 -0.8328  1.6038  1.4924
   97SAPS  H20T 9692   3.500   4.001   8.673 -1.9937  1.5749 -0.8020
   97SAPS   C33 9693   2.379   3.933   7.443  0.4769 -0.2339  0.2279
   97SAPS   H3X 9694   2.422   3.831   7.447 -0.0181 -0.4883 -0.7224
   97SAPS   H3Y 9695   2.269   3.918   7.431  0.1743  1.7365  0.3656
   97SAPS   C34 9696   2.416   4.010   7.567  0.0092  0.2249  0.7393
   97SAPS   H4X 9697   2.398   4.119   7.562  1.0741  0.4919  2.3009
   97SAPS   H4Y 9698   2.525   4.009   7.590  0.7233 -1.7991 -2.3359
   97SAPS   C35 9699   2.355   3.959   7.700 -0.9152  0.1338 -0.6544
   97SAPS   H5X 9700   2.248   3.937   7.679 -0.7531 -1.8414  0.3811
   97SAPS   H5Y 9701   2.365   4.046   7.769  0.2572  1.2279 -2.1804
   97SAPS   C36 9702   2.414   3.830   7.759  0.2857 -0.2712 -0.1039
   97SAPS   H6X 9703   2.521   3.846   7.786 -0.2691  1.7723  1.0175
   97SAPS   H6Y 9704   2.409   3.742   7.691 -0.2181 -0.4362  0.1511
   97SAPS   C37 9705   2.347   3.795   7.890 -0.4697  0.1011  0.6494
   97SAPS   H7X 9706   2.392   3.870   7.960 -1.1655  0.1326  1.0721
   97SAPS   H7Y 9707   2.372   3.690   7.914 -1.0670 -0.2124 -0.0973
   97SAPS   C38 9708   2.197   3.799   7.881 -0.4926 -0.0552 -0.5263
   97SAPS   H8X 9709   2.158   3.741   7.794  0.7643  1.7340 -2.3311
   97SAPS   H8Y 9710   2.159   3.903   7.869  1.4200  0.6150 -0.9817
   97SAPS   C39 9711   2.139   3.743   8.008 -0.3585  0.2814  0.3224
   97SAPS   H9X 9712   2.183   3.801   8.092 -2.1049  2.8403 -0.5083
   97SAPS   H9Y 9713   2.165   3.635   8.013 -0.4628  0.2761  0.7890
   97SAPS  C310 9714   1.989   3.758   8.024 -0.1877 -0.0707  0.5127
   97SAPS  H10X 9715   1.943   3.734   7.925  1.5127  0.7522 -0.4967
   97SAPS  H10Y 9716   1.969   3.865   8.043  2.1597  0.6561 -0.9915
   97SAPS  C311 9717   1.924   3.678   8.144 -0.1813 -0.3602 -0.4820
   97SAPS  H11X 9718   1.925   3.567   8.138 -0.0187 -0.3951  0.1502
   97SAPS  H11Y 9719   1.819   3.713   8.138 -0.0087  0.5755  1.4520
   97SAPS  C312 9720   1.986   3.721   8.276  0.1646 -0.3173 -0.3678
   97SAPS  H12X 9721   1.976   3.832   8.284  0.0456 -0.3152 -0.5527
   97SAPS  H12Y 9722   2.092   3.688   8.287  0.4356  1.0618  1.4506
   97SAPS  C313 9723   1.907   3.665   8.401  0.3482  0.2823 -0.0225
   97SAPS  H13X 9724   1.940   3.728   8.487 -0.7826  0.2573  0.4333
   97SAPS  H13Y 9725   1.940   3.564   8.434  0.5895  0.7767  1.2785
   97SAPS  C314 9726   1.759   3.692   8.411 -0.2031  0.1020  0.6506
   97SAPS  H14X 9727   1.704   3.634   8.334 -0.0547  0.2668  0.4187
   97SAPS  H14Y 9728   1.735   3.801   8.403  1.9656  0.5343 -0.2112
   97SAPS  C315 9729   1.699   3.659   8.555  0.5687 -0.1496  0.1887
   97SAPS  H15X 9730   1.595   3.698   8.553  0.6210 -0.0575 -1.7188
   97SAPS  H15Y 9731   1.764   3.715   8.626 -1.0505  2.3178 -0.1866
   97SAPS  C316 9732   1.702   3.507   8.570 -0.1078 -0.0199 -0.4052
   97SAPS  H16X 9733   1.786   3.453   8.522  0.7511  0.4974  0.4909
   97SAPS  H16Y 9734   1.614   3.466   8.516  0.5167  1.3591 -2.5309
   97SAPS  C317 9735   1.704   3.469   8.717 -0.0317  0.7593  0.4517
   97SAPS  H17X 9736   1.630   3.531   8.771 -0.0273  0.9190  0.2727
   97SAPS  H17Y 9737   1.808   3.489   8.752  0.8506 -0.3551 -1.4117
   97SAPS  C318 9738   1.667   3.324   8.740 -0.5929  0.2891  0.2695
   97SAPS  H18X 9739   1.663   3.292   8.847 -2.6439  4.4301  1.5353
   97SAPS  H18Y 9740   1.735   3.258   8.682  1.5296  1.7891  1.0037
   97SAPS  H18Z 9741   1.565   3.295   8.708 -0.6302  1.5867 -0.8249
   98SAPS     N 9742   0.833   4.581   5.797 -0.1307 -0.1388  0.3659
   98SAPS   HN1 9743   0.889   4.498   5.772  0.1431  0.6914 -1.8525
   98SAPS   HN2 9744   0.733   4.552   5.789  0.0905 -0.4540 -1.3641
   98SAPS   HN3 9745   0.857   4.658   5.731 -1.1469 -2.5295 -2.9038
   98SAPS   C12 9746   0.873   4.643   5.931 -0.0121  0.5415 -0.6935
   98SAPS  H12A 9747   0.980   4.654   5.933  0.0169  0.4542 -1.6033
   98SAPS   C13 9748   0.816   4.781   5.953 -0.7812  0.7007  0.3864
   98SAPS  O13A 9749   0.771   4.848   5.854 -0.1985  0.3674 -0.1351
   98SAPS  O13B 9750   0.821   4.833   6.073  0.2201 -0.1192 -0.3779
   98SAPS   C11 9751   0.850   4.544   6.045 -0.1499 -0.6209  0.0774
   98SAPS  H11A 9752   0.862   4.591   6.146 -2.1149  0.4707 -0.1729
   98SAPS  H11B 9753   0.927   4.465   6.039  0.4158 -0.1008  0.3734
   98SAPS     P 9754   0.638   4.412   6.128  0.1172  0.3796  0.2612
   98SAPS   O13 9755   0.496   4.434   6.112 -0.1184  0.8065 -0.2716
   98SAPS   O14 9756   0.684   4.271   6.108  0.6540 -0.0872 -0.0248
   98SAPS   O12 9757   0.716   4.507   6.035 -0.0087  0.1307  0.0267
   98SAPS   O11 9758   0.687   4.475   6.270 -0.1510  0.4591  0.5572
   98SAPS    C1 9759   0.800   4.418   6.343  0.0739 -0.1104 -0.1109
   98SAPS    HA 9760   0.886   4.398   6.277  0.2901 -0.1001  0.1669
   98SAPS    HB 9761   0.837   4.498   6.410  0.8623  0.0137 -0.7024
   98SAPS    C2 9762   0.765   4.297   6.434 -0.2902  0.4490 -0.3626
   98SAPS    HS 9763   0.765   4.209   6.366  3.1468  0.6992 -0.7632
   98SAPS   O21 9764   0.634   4.320   6.502 -0.1909  0.0544 -0.2294
   98SAPS   C21 9765   0.561   4.213   6.512  0.5416  0.7059 -0.7305
   98SAPS   O22 9766   0.585   4.106   6.463  0.3276  0.0478 -0.1906
   98SAPS   C22 9767   0.432   4.248   6.597  0.1329  0.2613 -0.7741
   98SAPS   H2R 9768   0.428   4.358   6.616 -0.0345  0.3184 -1.1396
   98SAPS   H2S 9769   0.345   4.210   6.539 -1.2475  0.2656  1.2314
   98SAPS    C3 9770   0.887   4.270   6.520  0.3941 -0.5715  0.6007
   98SAPS    HX 9771   0.906   4.343   6.601  0.5044  1.0987 -0.8887
   98SAPS    HY 9772   0.976   4.269   6.454  1.7701  0.5490  2.3990
   98SAPS   O31 9773   0.863   4.143   6.581 -0.0065  0.4551 -0.0595
   98SAPS   C31 9774   0.957   4.106   6.675  0.0970 -0.6707 -0.3794
   98SAPS   O32 9775   1.047   4.176   6.712  0.7817  0.8009  0.4751
   98SAPS   C32 9776   0.921   3.973   6.735 -0.6256 -0.2543  0.0623
   98SAPS   H2X 9777   0.946   3.895   6.661 -2.2803  0.9360 -1.7989
   98SAPS   H2Y 9778   0.810   3.971   6.741 -0.6517  0.7940 -0.0024
   98SAPS   C23 9779   0.446   4.190   6.751  0.2330 -0.2569 -0.0693
   98SAPS   H3R 9780   0.432   4.080   6.739 -0.5010 -0.0538 -1.1680
   98SAPS   H3S 9781   0.360   4.237   6.804 -0.5258  0.1423 -1.6194
   98SAPS   C24 9782   0.577   4.239   6.818  0.6992  0.6898 -0.5361
   98SAPS   H4R 9783   0.663   4.212   6.753  1.6216  2.0729  0.0873
   98SAPS   H4S 9784   0.588   4.192   6.918 -0.3094 -1.2341 -1.3091
   98SAPS   C25 9785   0.595   4.391   6.825  0.6960 -0.1800 -0.1026
   98SAPS   H5R 9786   0.592   4.439   6.727 -1.3072  0.7644  0.4052
   98SAPS   C26 9787   0.611   4.461   6.938 -0.4518  0.5237 -0.7839
   98SAPS   H6R 9788   0.623   4.570   6.936  1.9471  0.2764 -1.5801
   98SAPS   C27 9789   0.617   4.390   7.075  0.0504  0.0462 -0.1081
   98SAPS   H7R 9790   0.537   4.314   7.079  0.8579 -0.7826  0.6970
   98SAPS   H7S 9791   0.597   4.467   7.153  0.0765  0.0718 -0.1270
   98SAPS   C28 9792   0.754   4.329   7.113 -0.5781  0.0515  0.2260
   98SAPS   H8R 9793   0.827   4.312   7.033 -2.7239 -1.3795 -1.4849
   98SAPS   C29 9794   0.802   4.310   7.235  0.7365 -0.6607  0.2051
   98SAPS   H9R 9795   0.903   4.270   7.252  1.2615  0.8579  0.7380
   98SAPS  C210 9796   0.731   4.334   7.366 -0.4662  0.0648  0.0196
   98SAPS  H10R 9797   0.629   4.372   7.347 -1.2970 -1.9660  0.2740
   98SAPS  H10S 9798   0.786   4.415   7.418  2.0807 -1.4397 -0.2315
   98SAPS  C211 9799   0.729   4.213   7.459 -0.5055  0.3616  0.3024
   98SAPS  H11R 9800   0.750   4.114   7.415  0.2282  0.1526  1.0959
   98SAPS  C212 9801   0.706   4.206   7.593  0.1858 -0.2230 -0.3203
   98SAPS  H12R 9802   0.701   4.106   7.638 -1.4259  0.4429  1.0255
   98SAPS  C213 9803   0.680   4.330   7.687  0.3817  0.2491  0.0508
   98SAPS  H13R 9804   0.662   4.417   7.620 -0.5036 -1.5971 -2.1715
   98SAPS  H13S 9805   0.775   4.353   7.740  1.3444 -0.2332 -1.4461
   98SAPS  C214 9806   0.562   4.304   7.783  1.1639  0.0220  0.0571
   98SAPS  H14R 9807   0.468   4.302   7.726  1.6591  0.6875 -0.7879
   98SAPS  C215 9808   0.575   4.289   7.922 -0.1938  0.1021  0.2922
   98SAPS  H15R 9809   0.481   4.286   7.980 -0.0012 -1.9482  0.5360
   98SAPS  C216 9810   0.701   4.293   8.007 -0.1491  0.2109 -0.1932
   98SAPS  H16R 9811   0.795   4.296   7.948  1.2196  0.9768  1.9475
   98SAPS  H16S 9812   0.705   4.207   8.077  0.6755 -0.1580 -0.6912
   98SAPS  C217 9813   0.705   4.426   8.092  0.4891 -0.7596 -0.8549
   98SAPS  H17R 9814   0.711   4.516   8.027  2.3176  0.7265  1.2959
   98SAPS  H17S 9815   0.802   4.415   8.145 -0.1621 -1.0044  0.3043
   98SAPS  C218 9816   0.598   4.432   8.199  0.1406 -0.2288  0.1938
   98SAPS  H18R 9817   0.569   4.338   8.250 -1.3331 -1.0670 -2.1143
   98SAPS  H18S 9818   0.501   4.465   8.156  0.9897 -2.4263 -3.6747
   98SAPS  C219 9819   0.634   4.517   8.323 -0.6807 -0.4665 -0.2979
   98SAPS  H19R 9820   0.643   4.618   8.277  1.7803  0.2776  1.6878
   98SAPS  H19S 9821   0.737   4.493   8.356  0.4483  3.1600 -0.9184
   98SAPS  C220 9822   0.534   4.529   8.441  1.0625 -0.1304 -0.1745
   98SAPS  H20R 9823   0.513   4.433   8.492  1.8689  0.2347  0.8589
   98SAPS  H20S 9824   0.439   4.575   8.407  0.1901 -0.2945  1.9902
   98SAPS  H20T 9825   0.580   4.595   8.518 -0.0979  0.7205 -0.2130
   98SAPS   C33 9826   0.966   3.953   6.876 -0.6442  0.3346  0.0504
   98SAPS   H3X 9827   0.957   4.039   6.946  2.0029  0.4880  0.2492
   98SAPS   H3Y 9828   1.074   3.927   6.865 -0.8499 -1.0943  1.2955
   98SAPS   C34 9829   0.905   3.824   6.942  0.6551  0.3140  0.4344
   98SAPS   H4X 9830   0.898   3.744   6.865 -0.3563 -0.3023  1.1554
   98SAPS   H4Y 9831   0.806   3.854   6.983  0.7600  1.6471 -0.2556
   98SAPS   C35 9832   1.004   3.778   7.051 -0.0343 -0.5523 -0.6640
   98SAPS   H5X 9833   1.105   3.743   7.021 -0.2814 -0.7228 -1.3118
   98SAPS   H5Y 9834   0.951   3.696   7.105  0.8543 -0.5421  0.2409
   98SAPS   C36 9835   1.026   3.887   7.161  0.3148 -0.1449 -0.2722
   98SAPS   H6X 9836   0.932   3.946   7.173  0.1762 -0.3621 -0.2753
   98SAPS   H6Y 9837   1.104   3.954   7.120  0.4267  0.0219  0.2092
   98SAPS   C37 9838   1.075   3.831   7.294  0.0634  0.1716 -0.8774
   98SAPS   H7X 9839   1.166   3.768   7.281  0.4691  0.3473  0.9466
   98SAPS   H7Y 9840   1.007   3.754   7.337  0.3381 -0.5752 -1.7657
   98SAPS   C38 9841   1.120   3.932   7.403  0.5200 -0.5777 -0.8978
   98SAPS   H8X 9842   1.035   3.990   7.442  0.5728 -1.5746  0.7325
   98SAPS   H8Y 9843   1.193   3.999   7.353 -2.4953  1.5147 -2.6537
   98SAPS   C39 9844   1.179   3.848   7.520 -0.0751  0.1586 -0.2090
   98SAPS   H9X 9845   1.265   3.787   7.486 -0.3889 -0.3601 -0.0747
   98SAPS   H9Y 9846   1.096   3.784   7.555 -0.8985  0.4061 -1.7084
   98SAPS  C310 9847   1.237   3.929   7.642  0.2823 -0.1080  0.0824
   98SAPS  H10X 9848   1.295   4.014   7.601 -0.7237  0.5806  0.0748
   98SAPS  H10Y 9849   1.300   3.858   7.700  2.6987  0.9087 -1.2317
   98SAPS  C311 9850   1.137   3.993   7.736 -1.0486 -0.2158  0.1655
   98SAPS  H11X 9851   1.061   3.915   7.758 -1.7444  0.4593  0.1761
   98SAPS  H11Y 9852   1.076   4.075   7.693 -0.5898 -0.1230 -0.3069
   98SAPS  C312 9853   1.198   4.043   7.871  0.2304 -0.2073  0.1921
   98SAPS  H12X 9854   1.286   4.106   7.845 -0.8056  0.9002 -0.6743
   98SAPS  H12Y 9855   1.235   3.949   7.917  0.1132 -1.2687 -1.8273
   98SAPS  C313 9856   1.090   4.113   7.958  0.0273 -0.0086  0.3321
   98SAPS  H13X 9857   1.013   4.033   7.966  1.7068 -1.8654 -1.3283
   98SAPS  H13Y 9858   1.044   4.205   7.917  1.2491  0.4327 -0.0604
   98SAPS  C314 9859   1.142   4.145   8.092  0.2194 -0.0448  0.1900
   98SAPS  H14X 9860   1.241   4.195   8.086  0.8601 -0.9313  2.5255
   98SAPS  H14Y 9861   1.154   4.053   8.153  0.8931  0.5934  1.0397
   98SAPS  C315 9862   1.058   4.245   8.181  0.3449 -0.0879 -0.1884
   98SAPS  H15X 9863   0.950   4.221   8.172 -0.2621  1.9400  1.3785
   98SAPS  H15Y 9864   1.069   4.347   8.139  1.2965 -0.4018 -0.7155
   98SAPS  C316 9865   1.106   4.232   8.325 -0.4290 -0.2645 -0.8363
   98SAPS  H16X 9866   1.215   4.238   8.340 -0.7114 -0.3041  1.3523
   98SAPS  H16Y 9867   1.077   4.131   8.362 -2.8458 -0.0735 -2.0957
   98SAPS  C317 9868   1.042   4.344   8.412 -0.1992  0.0437 -0.5058
   98SAPS  H17X 9869   1.047   4.317   8.520 -1.6555  3.1457  0.3701
   98SAPS  H17Y 9870   0.931   4.352   8.401 -0.1209  2.7451  0.3785
   98SAPS  C318 9871   1.105   4.475   8.391  0.0109  0.8241  0.7864
   98SAPS  H18X 9872   1.078   4.506   8.287 -2.4527  0.2383  1.2089
   98SAPS  H18Y 9873   1.215   4.464   8.385  0.1395  1.8767  1.1100
   98SAPS  H18Z 9874   1.065   4.544   8.469  0.6989 -0.9384  2.7315
   99SAPS     N 9875   0.866   1.714   6.003  0.5869 -0.4071 -0.2455
   99SAPS   HN1 9876   0.875   1.799   5.944 -0.9774  1.0144  1.4718
   99SAPS   HN2 9877   0.872   1.738   6.105  1.1224  0.8884 -0.5634
   99SAPS   HN3 9878   0.935   1.641   5.978  0.7383 -0.0582 -0.8559
   99SAPS   C12 9879   0.732   1.662   5.969  0.2787  0.4491  0.4331
   99SAPS  H12A 9880   0.683   1.727   5.899  1.5287  0.4458 -0.4805
   99SAPS   C13 9881   0.722   1.521   5.907 -0.1077 -0.6366 -0.5225
   99SAPS  O13A 9882   0.830   1.460   5.890  0.0690 -0.2955 -0.7711
   99SAPS  O13B 9883   0.611   1.476   5.868  0.5105 -0.2790  0.1457
   99SAPS   C11 9884   0.649   1.650   6.098 -0.6757 -0.0709  0.2012
   99SAPS  H11A 9885   0.712   1.589   6.167  0.7477  1.0785 -0.0536
   99SAPS  H11B 9886   0.554   1.593   6.093  1.0459 -2.8965 -1.2132
   99SAPS     P 9887   0.516   1.867   6.145 -0.1800 -0.2779  0.1859
   99SAPS   O13 9888   0.542   1.953   6.028 -0.6145  0.5507 -0.5062
   99SAPS   O14 9889   0.392   1.782   6.128  0.5325 -0.5400  0.0567
   99SAPS   O12 9890   0.642   1.775   6.165 -0.3931  0.5250 -0.1401
   99SAPS   O11 9891   0.509   1.950   6.284 -0.2880 -0.3557  0.1235
   99SAPS    C1 9892   0.594   1.901   6.386  0.6616  0.0097 -0.5912
   99SAPS    HA 9893   0.700   1.912   6.357  1.3140 -2.1108  0.8711
   99SAPS    HB 9894   0.582   1.972   6.471  1.7994 -0.3856 -0.0898
   99SAPS    C2 9895   0.561   1.770   6.450  0.4636  0.0262 -0.1498
   99SAPS    HS 9896   0.562   1.695   6.369  0.4651 -0.2098  0.0698
   99SAPS   O21 9897   0.430   1.771   6.509  0.3564 -0.1553 -0.8302
   99SAPS   C21 9898   0.357   1.665   6.496  0.2419  0.0121  0.2419
   99SAPS   O22 9899   0.383   1.571   6.422  0.2206  0.0506  0.2677
   99SAPS   C22 9900   0.228   1.678   6.584  0.0348 -0.1007  0.2083
   99SAPS   H2R 9901   0.238   1.772   6.643  2.8354 -0.1282 -0.1463
   99SAPS   H2S 9902   0.149   1.706   6.511 -0.4218  0.4834  0.9130
   99SAPS    C3 9903   0.675   1.725   6.549  0.0994 -0.2410  0.1520
   99SAPS    HX 9904   0.764   1.691   6.492 -0.0642  0.4010 -0.5009
   99SAPS    HY 9905   0.640   1.627   6.588 -0.8022 -1.1132 -2.6873
   99SAPS   O31 9906   0.699   1.811   6.662 -0.2036  0.3497 -0.2061
   99SAPS   C31 9907   0.806   1.879   6.651 -1.0482 -0.6606  0.3485
   99SAPS   O32 9908   0.866   1.900   6.543 -0.2345  0.0149 -0.3385
   99SAPS   C32 9909   0.839   1.931   6.795 -0.0553 -0.1097 -0.3750
   99SAPS   H2X 9910   0.902   1.856   6.846  0.7495  2.1752  2.0680
   99SAPS   H2Y 9911   0.757   1.958   6.865 -0.2417 -0.0887 -0.5983
   99SAPS   C23 9912   0.188   1.554   6.672 -0.3543 -0.0332 -0.2614
   99SAPS   H3R 9913   0.191   1.464   6.608 -0.5574 -0.1409 -0.1188
   99SAPS   H3S 9914   0.080   1.568   6.693 -0.7351 -0.9896 -1.5197
   99SAPS   C24 9915   0.264   1.530   6.796  0.2312  0.3141 -0.3382
   99SAPS   H4R 9916   0.369   1.507   6.765  0.0746  0.2082 -0.7867
   99SAPS   H4S 9917   0.228   1.440   6.850 -0.7717  0.9498  0.0543
   99SAPS   C25 9918   0.255   1.652   6.885  0.0571  0.2428 -1.3004
   99SAPS   H5R 9919   0.153   1.693   6.893 -0.3181 -1.1118  1.6404
   99SAPS   C26 9920   0.349   1.725   6.947  0.2144  0.1225  0.0184
   99SAPS   H6R 9921   0.319   1.801   7.020 -0.0531  2.6266 -2.6181
   99SAPS   C27 9922   0.501   1.687   6.944 -0.5240 -0.2444 -0.2128
   99SAPS   H7R 9923   0.553   1.785   6.945  1.2057 -1.1273 -0.8915
   99SAPS   H7S 9924   0.527   1.651   6.841 -0.4351  0.7730 -0.5470
   99SAPS   C28 9925   0.543   1.593   7.056 -0.0473  0.2384 -0.0918
   99SAPS   H8R 9926   0.574   1.496   7.012  2.3339  1.5455 -1.4075
   99SAPS   C29 9927   0.539   1.615   7.197  0.0638 -1.1233  0.3215
   99SAPS   H9R 9928   0.566   1.528   7.257 -0.5737 -0.9949  0.7947
   99SAPS  C210 9929   0.493   1.742   7.263  0.0548  0.0988 -0.8046
   99SAPS  H10R 9930   0.386   1.734   7.291  0.5704 -1.2144  0.8143
   99SAPS  H10S 9931   0.491   1.832   7.197 -2.8187 -1.2487 -2.6506
   99SAPS  C211 9932   0.555   1.796   7.389 -0.6259 -0.0901  0.1109
   99SAPS  H11R 9933   0.657   1.759   7.403 -1.1616 -1.7542 -0.2725
   99SAPS  C212 9934   0.495   1.875   7.480 -0.1223  0.7898 -0.0833
   99SAPS  H12R 9935   0.547   1.899   7.573 -1.2006 -1.7736  1.2343
   99SAPS  C213 9936   0.351   1.929   7.488 -0.1839 -0.1855  0.6314
   99SAPS  H13R 9937   0.346   1.991   7.581 -0.7432 -0.1309  0.5646
   99SAPS  H13S 9938   0.281   1.847   7.512 -1.3227  0.3736 -0.7059
   99SAPS  C214 9939   0.315   2.020   7.369 -0.1369  1.0485  0.1229
   99SAPS  H14R 9940   0.313   1.975   7.269 -0.4371  0.6018  0.3331
   99SAPS  C215 9941   0.304   2.160   7.381  0.5643  0.5462 -0.6561
   99SAPS  H15R 9942   0.289   2.225   7.293 -0.4330 -0.2302 -1.0688
   99SAPS  C216 9943   0.319   2.232   7.511  0.0510 -0.3994  0.5022
   99SAPS  H16R 9944   0.415   2.214   7.564 -0.4615  0.8706  1.8961
   99SAPS  H16S 9945   0.242   2.191   7.579 -0.1316 -0.9710 -0.0376
   99SAPS  C217 9946   0.292   2.388   7.506 -0.3529  0.4239 -0.0302
   99SAPS  H17R 9947   0.203   2.422   7.450 -0.2573  0.2521 -0.2849
   99SAPS  H17S 9948   0.382   2.432   7.457 -0.0878  0.2563  0.3010
   99SAPS  C218 9949   0.279   2.441   7.646  1.3532 -0.0579 -0.5713
   99SAPS  H18R 9950   0.381   2.443   7.690  0.8958  2.9501  0.4091
   99SAPS  H18S 9951   0.203   2.390   7.709 -0.8773  0.8282 -2.4556
   99SAPS  C219 9952   0.251   2.594   7.647 -0.0237  0.0182  0.2816
   99SAPS  H19R 9953   0.153   2.625   7.604  0.0834  0.0635  0.0699
   99SAPS  H19S 9954   0.316   2.639   7.569  1.6353 -0.6529  1.2512
   99SAPS  C220 9955   0.263   2.657   7.780 -0.3078 -0.1979 -0.0207
   99SAPS  H20R 9956   0.177   2.635   7.847 -1.7789  0.5621 -1.6306
   99SAPS  H20S 9957   0.257   2.767   7.771 -0.8835 -0.2154  0.0991
   99SAPS  H20T 9958   0.349   2.620   7.840 -0.0607  0.6463  0.1426
   99SAPS   C33 9959   0.922   2.061   6.790 -0.4114 -0.4193 -0.2624
   99SAPS   H3X 9960   0.865   2.151   6.760  1.3781  0.8302  0.0376
   99SAPS   H3Y 9961   0.998   2.045   6.711 -0.1462 -0.0197 -0.0871
   99SAPS   C34 9962   0.991   2.087   6.918  0.2286  0.1405  0.1432
   99SAPS   H4X 9963   1.075   2.017   6.936  1.4710  0.8788 -2.5375
   99SAPS   H4Y 9964   0.926   2.069   7.006  1.2380  2.4392  1.4366
   99SAPS   C35 9965   1.025   2.234   6.914 -0.7732 -0.2883 -0.5438
   99SAPS   H5X 9966   0.947   2.303   6.876 -1.4702 -1.0618 -0.5221
   99SAPS   H5Y 9967   1.108   2.241   6.840  0.6270  2.0929  1.1761
   99SAPS   C36 9968   1.081   2.287   7.049  0.1935  0.4505 -0.1441
   99SAPS   H6X 9969   1.188   2.260   7.051 -0.1538 -0.9657  0.2541
   99SAPS   H6Y 9970   1.038   2.227   7.133  3.4758 -1.5571  0.1725
   99SAPS   C37 9971   1.070   2.440   7.071  0.2078  0.5187 -0.5950
   99SAPS   H7X 9972   0.964   2.469   7.092  0.8097  2.3141  0.0491
   99SAPS   H7Y 9973   1.111   2.491   6.981 -0.5664  0.0748 -1.2021
   99SAPS   C38 9974   1.149   2.490   7.184  0.0863 -0.5000  0.8138
   99SAPS   H8X 9975   1.120   2.594   7.210 -0.1326 -0.8064  1.8163
   99SAPS   H8Y 9976   1.259   2.489   7.167 -0.0364 -0.6319  0.0188
   99SAPS   C39 9977   1.124   2.411   7.310  0.3474 -0.5625 -0.7148
   99SAPS   H9X 9978   1.164   2.308   7.297 -0.4732 -0.7598 -1.6887
   99SAPS   H9Y 9979   1.017   2.404   7.338  0.5803  0.1914  0.4242
   99SAPS  C310 9980   1.190   2.482   7.437 -0.3861  0.0965 -0.9825
   99SAPS  H10X 9981   1.165   2.589   7.455 -0.9570 -0.1090 -0.5356
   99SAPS  H10Y 9982   1.299   2.484   7.420  0.2098  0.6927  2.6086
   99SAPS  C311 9983   1.152   2.407   7.564  0.5952 -0.1517  0.4802
   99SAPS  H11X 9984   1.180   2.300   7.552 -0.6267 -0.3661 -0.6250
   99SAPS  H11Y 9985   1.041   2.404   7.569  0.5759  2.3323  2.9686
   99SAPS  C312 9986   1.204   2.463   7.692 -0.1087  0.1274 -0.6856
   99SAPS  H12X 9987   1.177   2.570   7.698 -0.5262  0.0065 -0.4212
   99SAPS  H12Y 9988   1.314   2.452   7.702 -0.1690  1.1592  1.2326
   99SAPS  C313 9989   1.137   2.388   7.803 -0.1890  0.3665  0.4076
   99SAPS  H13X 9990   1.177   2.284   7.807  0.3827  0.6495  3.2215
   99SAPS  H13Y 9991   1.028   2.386   7.782 -0.0972 -1.5326  0.0551
   99SAPS  C314 9992   1.160   2.470   7.934  0.2324  0.0390  0.9084
   99SAPS  H14X 9993   1.106   2.565   7.913 -0.2819 -0.4547 -0.0579
   99SAPS  H14Y 9994   1.268   2.487   7.953  0.2825 -2.0551  2.6347
   99SAPS  C315 9995   1.096   2.411   8.055 -0.4414 -0.0110  0.5833
   99SAPS  H15X 9996   1.124   2.305   8.073 -1.4906 -0.9373 -2.8105
   99SAPS  H15Y 9997   0.985   2.404   8.044 -0.2736 -0.6013 -0.9353
   99SAPS  C316 9998   1.118   2.497   8.183  0.3073 -0.3623 -0.0829
   99SAPS  H16X 9999   1.225   2.523   8.198 -0.0363  0.1487  1.5931
   99SAPS  H16Y10000   1.095   2.454   8.282  0.2657 -1.6854 -0.6588
   99SAPS  C31710001   1.059   2.637   8.176 -0.5355  0.0284 -0.0035
   99SAPS  H17X10002   0.949   2.624   8.178 -0.6084  0.1796 -1.8570
   99SAPS  H17Y10003   1.094   2.682   8.080  0.7574 -4.5946 -1.8187
   99SAPS  C31810004   1.105   2.726   8.290 -0.5565 -0.8920 -0.0151
   99SAPS  H18X10005   1.211   2.749   8.268 -0.9134 -2.3733 -3.5915
   99SAPS  H18Y10006   1.100   2.667   8.384  3.4424 -1.7101 -0.2471
   99SAPS  H18Z10007   1.048   2.821   8.287 -0.6001 -0.9479 -1.0372
  100SAPS     N10008   2.763   3.762   6.711 -0.3162 -0.3326 -0.2444
  100SAPS   HN110009   2.857   3.766   6.755  0.6620  0.7923 -2.3904
  100SAPS   HN210010   2.765   3.846   6.650 -0.5599 -1.3103 -1.6239
  100SAPS   HN310011   2.690   3.771   6.785  0.6753  0.5591  0.6310
  100SAPS   C1210012   2.742   3.637   6.629  0.3400  0.0613 -0.2512
  100SAPS  H12A10013   2.753   3.559   6.703  2.2121  2.0054  1.5768
  100SAPS   C1310014   2.607   3.607   6.562 -0.1509  0.1762 -0.0386
  100SAPS  O13A10015   2.513   3.690   6.586 -0.9829  0.9281 -0.2683
  100SAPS  O13B10016   2.591   3.516   6.475 -0.0272  0.1607  0.0970
  100SAPS   C1110017   2.858   3.619   6.524 -0.7649 -0.2535  0.1119
  100SAPS  H11A10018   2.864   3.696   6.444  1.6529 -1.6109 -1.0455
  100SAPS  H11B10019   2.849   3.519   6.477 -0.3361  0.2491 -1.0357
  100SAPS     P10020   3.118   3.636   6.516 -0.1061 -0.1272 -0.1005
  100SAPS   O1310021   3.110   3.551   6.387 -0.3599 -0.2499 -0.2828
  100SAPS   O1410022   3.143   3.778   6.489  0.0615 -0.2654  0.0172
  100SAPS   O1210023   2.979   3.620   6.593 -0.0645  0.0311 -0.0563
  100SAPS   O1110024   3.219   3.575   6.609 -0.1943 -0.5703  0.2846
  100SAPS    C110025   3.222   3.442   6.661 -0.1638  0.7397  0.0754
  100SAPS    HA10026   3.130   3.383   6.640 -0.1882  0.7173  0.2396
  100SAPS    HB10027   3.304   3.388   6.610 -0.1233  0.4888  0.4001
  100SAPS    C210028   3.242   3.426   6.813 -0.6904 -0.5563 -0.0561
  100SAPS    HS10029   3.253   3.319   6.838  0.7647 -0.6821 -1.1417
  100SAPS   O2110030   3.135   3.482   6.885  0.3710  0.2505 -0.3507
  100SAPS   C2110031   3.030   3.409   6.902  0.0877  0.4497  0.0165
  100SAPS   O2210032   3.013   3.297   6.858  1.0012  0.4357  0.0204
  100SAPS   C2210033   2.927   3.481   6.992  0.3965 -0.2887  0.1673
  100SAPS   H2R10034   2.871   3.552   6.927  0.9857  0.0816  0.0597
  100SAPS   H2S10035   2.845   3.413   7.023 -0.9847  1.9548  1.5479
  100SAPS    C310036   3.380   3.497   6.858  0.0404 -0.1666  0.1166
  100SAPS    HX10037   3.375   3.605   6.834  1.6186 -0.3515 -1.1570
  100SAPS    HY10038   3.462   3.463   6.790 -0.4365  0.7327 -0.9313
  100SAPS   O3110039   3.414   3.458   6.994  0.2094 -0.4952 -0.3994
  100SAPS   C3110040   3.389   3.541   7.092 -0.1903 -0.6871  0.4584
  100SAPS   O3210041   3.338   3.648   7.085 -0.1608 -0.2346 -0.4248
  100SAPS   C3210042   3.417   3.458   7.217 -0.2391  0.9584 -0.5709
  100SAPS   H2X10043   3.502   3.391   7.193 -0.1954  1.1266 -0.8707
  100SAPS   H2Y10044   3.329   3.393   7.239  0.8280 -0.0544  0.8193
  100SAPS   C2310045   2.985   3.561   7.111 -0.4676 -0.0866 -0.7407
  100SAPS   H3R10046   2.897   3.617   7.150  1.1186  1.1030  1.2225
  100SAPS   H3S10047   3.068   3.623   7.074 -1.6328  1.0876 -1.4167
  100SAPS   C2410048   3.021   3.459   7.224 -0.6120  0.2758 -0.2460
  100SAPS   H4R10049   3.090   3.508   7.296 -0.4003  0.6233 -0.6850
  100SAPS   H4S10050   3.083   3.378   7.181  0.1450  0.8089 -0.1668
  100SAPS   C2510051   2.902   3.409   7.304  0.5869  0.3649  0.1920
  100SAPS   H5R10052   2.875   3.307   7.272  0.7073  0.0103  1.2045
  100SAPS   C2610053   2.840   3.461   7.411  0.0453 -0.1364 -0.1692
  100SAPS   H6R10054   2.754   3.402   7.447  0.1465  0.4873  1.1117
  100SAPS   C2710055   2.870   3.598   7.472 -0.1571 -0.0570 -0.8151
  100SAPS   H7R10056   2.945   3.654   7.412 -1.7591 -0.8376 -3.6873
  100SAPS   H7S10057   2.922   3.576   7.567 -1.0238 -1.3451 -0.6342
  100SAPS   C2810058   2.740   3.674   7.483 -0.6485  0.4074  0.8852
  100SAPS   H8R10059   2.671   3.667   7.398 -1.5727 -1.5196  1.7430
  100SAPS   C2910060   2.705   3.735   7.598  0.8799  0.6775 -0.1639
  100SAPS   H9R10061   2.606   3.781   7.606  0.6340  0.1084  0.0569
  100SAPS  C21010062   2.786   3.738   7.733 -0.2100 -0.1251 -0.0271
  100SAPS  H10R10063   2.780   3.840   7.778  1.8352 -0.6712  1.5605
  100SAPS  H10S10064   2.892   3.726   7.700 -0.2179  1.6162 -0.7687
  100SAPS  C21110065   2.763   3.634   7.840  0.1026  0.3970 -0.1507
  100SAPS  H11R10066   2.710   3.542   7.810 -0.6488  1.1001 -0.9680
  100SAPS  C21210067   2.812   3.632   7.967  0.2799 -0.0710  0.1759
  100SAPS  H12R10068   2.805   3.539   8.027  1.8409 -1.1135 -1.2272
  100SAPS  C21310069   2.902   3.732   8.024 -0.3947  0.2723 -0.0969
  100SAPS  H13R10070   2.938   3.801   7.945  1.5879 -1.6336 -0.9197
  100SAPS  H13S10071   2.993   3.678   8.057  0.7111  1.3230 -1.3880
  100SAPS  C21410072   2.843   3.798   8.149  0.4640  0.2816  0.4733
  100SAPS  H14R10073   2.796   3.896   8.132 -0.6834 -0.4794 -0.8995
  100SAPS  C21510074   2.842   3.747   8.275 -0.1410 -0.2905 -0.5043
  100SAPS  H15R10075   2.793   3.798   8.359  0.2412 -2.1521  0.8878
  100SAPS  C21610076   2.899   3.619   8.324  0.3156 -0.2953 -0.4501
  100SAPS  H16R10077   2.955   3.573   8.239  0.9552 -2.1292  0.9365
  100SAPS  H16S10078   2.809   3.558   8.348 -0.0742  0.3439 -0.2758
  100SAPS  C21710079   2.990   3.632   8.446 -0.5431 -0.2638  0.2412
  100SAPS  H17R10080   3.073   3.703   8.425  1.6552 -2.9917 -0.5990
  100SAPS  H17S10081   3.053   3.543   8.466  0.9086  0.3131 -1.6286
  100SAPS  C21810082   2.930   3.674   8.573  1.4674  0.6423  0.1357
  100SAPS  H18R10083   2.846   3.610   8.608  1.4181  0.9118  0.5204
  100SAPS  H18S10084   2.877   3.771   8.566 -2.5991 -1.5423 -1.0381
  100SAPS  C21910085   3.031   3.694   8.685  0.2446 -0.6682  0.3629
  100SAPS  H19R10086   3.086   3.787   8.656 -1.6156  0.4536  0.3143
  100SAPS  H19S10087   3.098   3.608   8.704  0.6028 -0.0190  2.1881
  100SAPS  C22010088   2.955   3.721   8.813  0.1550  0.5974  0.4542
  100SAPS  H20R10089   3.033   3.726   8.892 -0.3814 -1.3749  1.1073
  100SAPS  H20S10090   2.883   3.639   8.833  1.5706 -1.2613 -1.7579
  100SAPS  H20T10091   2.907   3.821   8.806  1.6356  1.2051 -1.4488
  100SAPS   C3310092   3.466   3.537   7.344  0.0613  1.2571 -0.3236
  100SAPS   H3X10093   3.386   3.610   7.371  0.2310  1.7765 -1.1889
  100SAPS   H3Y10094   3.560   3.590   7.316  0.9362 -0.0507  0.1438
  100SAPS   C3410095   3.501   3.452   7.465 -0.7385 -0.1935 -0.3106
  100SAPS   H4X10096   3.554   3.360   7.433 -0.1548 -0.0264  0.1846
  100SAPS   H4Y10097   3.406   3.416   7.511 -2.6969  0.8722 -3.3546
  100SAPS   C3510098   3.595   3.528   7.567 -0.5976 -0.2423 -1.2258
  100SAPS   H5X10099   3.552   3.620   7.610 -0.1856 -0.1642 -0.9816
  100SAPS   H5Y10100   3.681   3.565   7.507 -2.4201  3.5028 -1.6682
  100SAPS   C3610101   3.646   3.446   7.688 -0.0830  0.6563  0.1076
  100SAPS   H6X10102   3.728   3.506   7.733 -0.2039  0.8609  0.0564
  100SAPS   H6Y10103   3.690   3.347   7.665  0.1507 -0.0464  3.3690
  100SAPS   C3710104   3.533   3.416   7.787  0.0709 -0.1993 -0.1654
  100SAPS   H7X10105   3.469   3.337   7.744 -0.5725 -0.0598  0.5441
  100SAPS   H7Y10106   3.467   3.506   7.789  0.4592  0.2046 -2.9554
  100SAPS   C3810107   3.568   3.381   7.933 -0.2956 -0.0351  0.4518
  100SAPS   H8X10108   3.467   3.379   7.980 -0.2469  0.4277  0.5859
  100SAPS   H8Y10109   3.629   3.465   7.974 -0.2599 -0.4700  1.3000
  100SAPS   C3910110   3.642   3.247   7.942  0.1985  0.0448 -0.0219
  100SAPS   H9X10111   3.712   3.241   7.855  0.6804  0.2593  0.3501
  100SAPS   H9Y10112   3.580   3.158   7.917 -0.8288  0.2200  1.8492
  100SAPS  C31010113   3.716   3.217   8.072  1.0205  0.0973 -0.4069
  100SAPS  H10X10114   3.821   3.255   8.071  0.6006  1.2737 -2.5054
  100SAPS  H10Y10115   3.725   3.107   8.087  1.4075  0.5245  2.8692
  100SAPS  C31110116   3.644   3.256   8.204 -0.4530  0.6536  0.5386
  100SAPS  H11X10117   3.536   3.253   8.176  0.5009 -3.4186 -3.2633
  100SAPS  H11Y10118   3.659   3.361   8.238 -1.4841  1.2392 -0.7637
  100SAPS  C31210119   3.678   3.159   8.317  1.0574 -0.2953  0.2153
  100SAPS  H12X10120   3.665   3.055   8.280  2.2962 -0.9501  1.5473
  100SAPS  H12Y10121   3.608   3.178   8.401  0.0492  0.5717 -0.8001
  100SAPS  C31310122   3.822   3.171   8.360  0.1195 -0.1068  0.5532
  100SAPS  H13X10123   3.835   3.280   8.380  0.4104  0.6361 -3.2796
  100SAPS  H13Y10124   3.886   3.146   8.273  1.7548 -0.4738  1.8218
  100SAPS  C31410125   3.868   3.084   8.479  0.5656  0.1875 -0.7511
  100SAPS  H14X10126   3.790   3.102   8.556 -0.4668 -0.3480 -1.6685
  100SAPS  H14Y10127   3.964   3.127   8.513 -0.1353 -0.2906  1.9310
  100SAPS  C31510128   3.888   2.934   8.450 -0.6588  0.4967 -0.2064
  100SAPS  H15X10129   3.974   2.911   8.385 -0.2376 -1.6241  1.0422
  100SAPS  H15Y10130   3.793   2.902   8.401 -1.9491  1.2142  1.7656
  100SAPS  C31610131   3.906   2.858   8.577  0.1200  0.3939 -0.1959
  100SAPS  H16X10132   3.817   2.871   8.643  2.0073 -0.7081  2.6733
  100SAPS  H16Y10133   3.997   2.892   8.630 -0.2847 -0.7719  1.3175
  100SAPS  C31710134   3.934   2.705   8.556 -0.6272 -0.3340  0.2061
  100SAPS  H17X10135   4.032   2.695   8.506  0.8665  2.3464  2.4713
  100SAPS  H17Y10136   3.856   2.654   8.496 -1.2859 -2.2437  2.5835
  100SAPS  C31810137   3.947   2.633   8.691 -0.1973  0.0796  0.6699
  100SAPS  H18X10138   3.939   2.523   8.680  1.5253 -0.0529  0.4715
  100SAPS  H18Y10139   3.858   2.665   8.748 -1.2380 -1.9052  0.1688
  100SAPS  H18Z10140   4.040   2.650   8.749 -1.7624 -0.1853  3.2958
  101OSM      N10141   2.112   3.705  11.129  0.3274 -0.5023 -0.4569
  101OSM    C1510142   2.096   3.857  11.132  0.3327 -0.7009 -0.6323
  101OSM   H15A10143   2.081   3.912  11.040 -0.2850  1.8764  0.9500
  101OSM   H15B10144   2.184   3.891  11.185  0.7360 -0.7103 -1.2788
  101OSM   H15C10145   2.016   3.890  11.195  2.0530 -0.8270  1.6915
  101OSM    C1410146   2.177   3.684  11.267 -0.4811 -0.3055 -0.1750
  101OSM   H14A10147   2.197   3.578  11.274 -1.7466 -0.5895 -0.8674
  101OSM   H14B10148   2.115   3.713  11.350 -0.3489 -0.2667 -0.0910
  101OSM   H14C10149   2.268   3.744  11.274  0.8479 -1.8855 -3.0360
  101OSM    C1310150   1.974   3.644  11.125 -0.0807  0.9142  0.5257
  101OSM   H13A10151   1.928   3.668  11.030  0.4963  1.4586  0.3826
  101OSM   H13B10152   1.915   3.683  11.207 -2.4395  0.4156 -0.8774
  101OSM   H13C10153   1.977   3.537  11.136  0.2980  0.8502 -0.1669
  101OSM    C1210154   2.192   3.663  11.008  0.1559  0.2771 -0.1520
  101OSM   H12A10155   2.200   3.556  11.019  1.0798  0.3206 -0.3485
  101OSM   H12B10156   2.290   3.708  11.015  1.0093 -1.2474 -1.9147
  101OSM    C1110157   2.127   3.685  10.872 -0.4438 -0.3131  0.1917
  101OSM   H11A10158   2.208   3.669  10.797 -1.5055 -0.8358 -0.8622
  101OSM   H11B10159   2.119   3.796  10.859  2.2013 -0.1876 -0.6613
  101OSM      P10160   2.026   3.475  10.759  0.2344 -0.1689 -0.1199
  101OSM    O1310161   2.143   3.410  10.823  0.5528 -0.3259  0.1959
  101OSM    O1410162   1.898   3.399  10.758 -0.0617  0.2563 -0.1718
  101OSM    O1110163   2.068   3.522  10.615  0.6225  0.8449  0.2861
  101OSM    O1210164   2.007   3.612  10.840  0.3053  0.4705  0.1215
  101OSM    C1S10165   1.985   3.582  10.525  0.3636  0.0073  1.2041
  101OSM    H1S10166   1.955   3.678  10.572 -0.5577  0.8699 -1.0779
  101OSM    H1T10167   1.896   3.518  10.510 -0.2200  1.1891 -0.5403
  101OSM     NF10168   1.976   3.676  10.292  0.4830 -0.7305 -0.0231
  101OSM    HNF10169   1.943   3.616  10.220 -0.6332 -0.1466 -0.0046
  101OSM    C2S10170   2.064   3.610  10.391  1.4058  1.0360 -0.4130
  101OSM    H2S10171   2.148   3.676  10.420  2.2339 -0.4582  0.6376
  101OSM    C3S10172   2.123   3.473  10.338  0.3045 -0.5064 -0.3130
  101OSM    H3S10173   2.035   3.419  10.299  0.1270 -0.0813 -0.4981
  101OSM     O310174   2.206   3.402  10.433  0.4620 -0.1449  0.4952
  101OSM    HO310175   2.191   3.448  10.515 -2.2430  0.4987 -0.3049
  101OSM    C4S10176   2.207   3.502  10.222 -0.5560  0.0854  0.2474
  101OSM    H4S10177   2.148   3.498  10.129  1.1342 -0.8378 -0.8093
  101OSM    C5S10178   2.340   3.517  10.208 -0.4132 -0.4027 -0.0010
  101OSM    H5S10179   2.405   3.492  10.293 -0.0069 -0.0970 -0.2220
  101OSM    C6S10180   2.418   3.539  10.076  0.0225  0.3945  0.0688
  101OSM    H6S10181   2.526   3.516  10.085 -0.2851 -0.9674  0.4085
  101OSM    H6T10182   2.417   3.649  10.060  1.1865  0.5160  0.7867
  101OSM    C7S10183   2.358   3.478   9.950 -0.4749 -0.5681  0.1467
  101OSM    H7S10184   2.254   3.513   9.935  0.4023  2.1310 -0.0096
  101OSM    H7T10185   2.353   3.367   9.951  1.4091 -0.6806 -0.3090
  101OSM    C8S10186   2.446   3.509   9.824 -0.8398 -0.2716  0.7206
  101OSM    H8S10187   2.541   3.453   9.840 -1.3140 -1.4062 -0.3201
  101OSM    H8T10188   2.468   3.618   9.821  2.8985 -0.9774  0.1097
  101OSM    C9S10189   2.387   3.455   9.690  0.4107  0.2047 -0.1156
  101OSM    H9S10190   2.345   3.354   9.710  2.8884 -0.5391  1.5233
  101OSM    H9T10191   2.471   3.454   9.617  1.2578 -1.8139  0.8618
  101OSM   C10S10192   2.264   3.539   9.646  0.3220  0.2165 -0.6917
  101OSM   H10S10193   2.290   3.645   9.668 -0.8577  0.2081  0.7997
  101OSM   H10T10194   2.186   3.500   9.715  2.8208 -1.7013  1.1767
  101OSM   C11S10195   2.225   3.508   9.503  0.6415 -0.2286  0.1848
  101OSM   H11S10196   2.121   3.541   9.479  0.8481  0.5575  0.3572
  101OSM   H11T10197   2.225   3.399   9.486 -0.3636 -0.0021 -1.3336
  101OSM   C12S10198   2.313   3.563   9.393 -0.0022 -0.1166 -0.2342
  101OSM   H12S10199   2.415   3.521   9.409  0.0692 -0.2775 -1.0609
  101OSM   H12T10200   2.312   3.674   9.396  0.7968 -0.1299  0.4992
  101OSM   C13S10201   2.267   3.518   9.262  0.7676 -0.9532  0.1360
  101OSM   H13S10202   2.156   3.513   9.254  0.6567  1.8459 -0.5235
  101OSM   H13T10203   2.304   3.417   9.236  0.7193 -0.8451 -0.3513
  101OSM   C14S10204   2.321   3.595   9.144 -0.4536  0.6251  0.6965
  101OSM   H14S10205   2.430   3.616   9.149 -0.2955 -0.2198  0.8290
  101OSM   H14T10206   2.259   3.688   9.135 -0.0728  0.9569  1.4451
  101OSM   C15S10207   2.298   3.518   9.011 -0.5764  0.4002 -0.2363
  101OSM   H15S10208   2.187   3.511   9.012 -0.6359  1.2166  1.9321
  101OSM   H15T10209   2.336   3.414   9.016 -2.4645 -0.3587 -1.0173
  101OSM   C16S10210   2.340   3.594   8.886  0.1665  1.2853  1.0045
  101OSM   H16S10211   2.450   3.606   8.889  0.3089  0.0806  1.0030
  101OSM   H16T10212   2.287   3.691   8.874 -0.3691  1.0328  1.2874
  101OSM   C17S10213   2.305   3.517   8.757  0.0316  0.1765  0.3100
  101OSM   H17S10214   2.196   3.537   8.749  0.1393  1.0983  1.0087
  101OSM   H17T10215   2.319   3.410   8.779 -2.2425 -0.5073 -1.3248
  101OSM   C18S10216   2.366   3.573   8.623  0.0044  0.0045  0.4973
  101OSM   H18S10217   2.307   3.541   8.534  3.0110  1.0890 -2.0077
  101OSM   H18T10218   2.472   3.541   8.620 -0.7139 -2.4749 -0.1016
  101OSM   H18U10219   2.360   3.683   8.639  1.3859  0.2952 -0.8538
  101OSM    C1F10220   1.923   3.799  10.308  0.4170  0.3956  0.2496
  101OSM     OF10221   1.957   3.871  10.399 -0.1667  0.1909  0.0297
  101OSM    C2F10222   1.816   3.843  10.209  0.0626  0.0049  0.4413
  101OSM    H2F10223   1.739   3.896  10.268  0.5739  1.8107 -0.4661
  101OSM    H2G10224   1.762   3.764  10.152 -0.1398  1.1425 -0.9795
  101OSM    C3F10225   1.868   3.945  10.106 -0.2030 -0.3992  0.1805
  101OSM    H3F10226   1.937   3.897  10.033 -0.4437  2.0514 -1.7267
  101OSM    H3G10227   1.919   4.026  10.162 -1.9098  2.2002 -1.8969
  101OSM    C4F10228   1.758   4.023  10.034 -0.0891 -0.0969 -0.4317
  101OSM    H4F10229   1.809   4.117  10.004  0.8335  0.2677  2.1261
  101OSM    H4G10230   1.670   4.037  10.100  0.1129  0.0541 -0.1915
  101OSM    C5F10231   1.705   3.956   9.908 -0.2854 -0.5412  0.2338
  101OSM    H5F10232   1.662   3.857   9.936  1.1804 -1.3499 -0.3452
  101OSM    H5G10233   1.787   3.938   9.836 -0.1749  0.5228  0.0846
  101OSM    C6F10234   1.611   4.041   9.835  0.1163  0.5889 -0.9398
  101OSM    H6F10235   1.668   4.133   9.812 -1.0913  1.5032 -0.3175
  101OSM    H6G10236   1.521   4.066   9.895  0.0510 -1.3472 -0.1720
  101OSM    C7F10237   1.564   3.968   9.709  0.3043  0.7218 -0.4251
  101OSM    H7F10238   1.483   3.896   9.734 -1.5140  2.6073 -0.7775
  101OSM    H7G10239   1.648   3.911   9.663 -0.5628  0.0386 -1.1857
  101OSM    C8F10240   1.510   4.064   9.607 -0.7113  0.0625  0.1544
  101OSM    H8F10241   1.574   4.155   9.601 -1.6530  0.7783  0.8823
  101OSM    H8G10242   1.422   4.111   9.655 -1.1909 -1.0627  0.3923
  101OSM    C9F10243   1.464   4.013   9.470 -0.4196  0.0941 -0.0138
  101OSM    H9F10244   1.425   3.911   9.475  1.5245 -0.7057 -0.7759
  101OSM   C10F10245   1.468   4.070   9.347  0.1311 -0.5498  0.7958
  101OSM   H10F10246   1.427   4.004   9.269  1.3245 -0.2166 -0.1363
  101OSM   C11F10247   1.512   4.211   9.311  0.8287  0.1316  0.0271
  101OSM   H11F10248   1.623   4.213   9.320  0.8562  0.0334 -0.3090
  101OSM   H11G10249   1.468   4.280   9.387  0.7175 -1.4837  1.4557
  101OSM   C12F10250   1.480   4.266   9.177 -0.2550 -0.6153  1.0117
  101OSM   H12F10251   1.372   4.272   9.152  0.4366  0.9144 -1.7792
  101OSM   H12G10252   1.529   4.204   9.100 -1.4543  0.2305 -0.4564
  101OSM   C13F10253   1.540   4.413   9.149 -0.1536 -0.1985 -0.3581
  101OSM   H13F10254   1.650   4.398   9.145  0.0144  1.4185 -2.1715
  101OSM   H13G10255   1.525   4.467   9.245 -0.1132  0.2721 -0.6166
  101OSM   C14F10256   1.492   4.482   9.017  0.2662 -0.1809  0.7659
  101OSM   H14F10257   1.382   4.500   9.020 -0.0366 -1.4570 -1.8613
  101OSM   H14G10258   1.512   4.410   8.935 -1.7269 -1.2889  1.2063
  101OSM   C15F10259   1.570   4.614   8.985 -0.3909  0.4481 -0.2273
  101OSM   H15F10260   1.665   4.571   8.947 -0.2475 -0.1753  0.8233
  101OSM   H15G10261   1.589   4.661   9.083 -1.7801  0.5948 -0.0131
  101OSM   C16F10262   1.488   4.709   8.900 -0.1721  0.3129  0.1132
  101OSM   H16F10263   1.387   4.724   8.945 -0.1838  0.4173  0.0511
  101OSM   H16G10264   1.479   4.670   8.797  0.2849  2.9668 -0.9503
  101OSM   C17F10265   1.566   4.840   8.882  0.0740  0.5594  0.3081
  101OSM   H17F10266   1.614   4.871   8.977 -0.9694  0.7822  0.7688
  101OSM   H17G10267   1.498   4.921   8.850 -1.1800 -1.1298 -1.4884
  101OSM   C18F10268   1.678   4.841   8.774 -0.3547  0.4509 -0.0015
  101OSM   H18F10269   1.716   4.943   8.755  0.0862  0.8514  2.7489
  101OSM   H18G10270   1.650   4.785   8.682 -1.5572  0.7197  0.1914
  101OSM   H18H10271   1.768   4.786   8.810  1.0218  1.3354 -2.0134
  102OSM      N10272   1.655   2.856  10.994  0.2118 -0.2270  0.5133
  102OSM    C1510273   1.524   2.890  11.046  0.4340  0.6059  0.1104
  102OSM   H15A10274   1.519   2.980  11.106  1.5421  0.0133  1.1001
  102OSM   H15B10275   1.471   2.810  11.096 -1.0614  1.2443 -0.4147
  102OSM   H15C10276   1.466   2.917  10.958 -0.0089  1.7113  0.7295
  102OSM    C1410277   1.742   2.969  10.965 -0.1090 -0.5052 -0.0839
  102OSM   H14A10278   1.841   2.935  10.939 -1.2211 -3.1636 -0.9902
  102OSM   H14B10279   1.758   3.034  11.050 -1.9363 -2.0041  1.4423
  102OSM   H14C10280   1.694   3.037  10.895  0.0858 -1.3327 -1.0372
  102OSM    C1310281   1.722   2.773  11.092  0.5452  0.3324  0.2735
  102OSM   H13A10282   1.701   2.667  11.094  1.2120  0.2038  0.7299
  102OSM   H13B10283   1.704   2.818  11.189  2.8989  0.3566  0.7298
  102OSM   H13C10284   1.828   2.778  11.073  0.1181  1.4872 -1.8901
  102OSM    C1210285   1.614   2.781  10.863 -0.1000  0.3988  0.9172
  102OSM   H12A10286   1.560   2.695  10.898  1.3832  0.0314  2.3844
  102OSM   H12B10287   1.702   2.726  10.832 -1.8460 -2.2035  0.4490
  102OSM    C1110288   1.545   2.855  10.740  0.6964 -0.6498  0.1838
  102OSM   H11A10289   1.456   2.912  10.773  0.2699  0.0880 -2.1409
  102OSM   H11B10290   1.522   2.775  10.667  0.8358 -1.5042  1.0691
  102OSM      P10291   1.768   2.916  10.597  0.1918 -0.1650 -0.5122
  102OSM    O1310292   1.841   3.046  10.575  0.1971  0.0699 -0.0094
  102OSM    O1410293   1.842   2.805  10.652 -0.7245  0.0760  0.4214
  102OSM    O1110294   1.691   2.872  10.466  0.0957 -0.4347  0.0518
  102OSM    O1210295   1.641   2.953  10.689  0.0358  0.6314  0.0620
  102OSM    C1S10296   1.573   2.930  10.408 -0.6260 -0.2759  0.3504
  102OSM    H1S10297   1.583   3.040  10.396  0.9676 -0.5192 -0.5774
  102OSM    H1T10298   1.476   2.903  10.456 -1.2532 -1.3968 -1.4740
  102OSM     NF10299   1.444   2.956  10.187  0.2694  0.3930  0.2905
  102OSM    HNF10300   1.370   2.891  10.172  2.6084 -2.4149  0.1951
  102OSM    C2S10301   1.556   2.897  10.254 -0.3425 -0.0556 -0.6082
  102OSM    H2S10302   1.644   2.950  10.211  0.0104 -0.0987  0.0487
  102OSM    C3S10303   1.570   2.749  10.231 -0.0264  0.4855  0.4517
  102OSM    H3S10304   1.484   2.699  10.279  1.1931 -1.6123  0.5122
  102OSM     O310305   1.694   2.687  10.278  0.0578  0.0169  0.3714
  102OSM    HO310306   1.711   2.747  10.351  0.3774  0.5852 -0.1668
  102OSM    C4S10307   1.563   2.711  10.079 -0.4319  0.5150 -0.5006
  102OSM    H4S10308   1.653   2.730  10.018 -1.3986  2.1780 -1.4503
  102OSM    C5S10309   1.462   2.648  10.022  0.2529 -0.2535  0.1159
  102OSM    H5S10310   1.372   2.624  10.079  0.6828 -1.3048  0.3597
  102OSM    C6S10311   1.468   2.625   9.876 -0.0047  0.9541 -0.9062
  102OSM    H6S10312   1.416   2.529   9.861  2.5189 -0.6686  0.3365
  102OSM    H6T10313   1.575   2.600   9.859  0.1752  0.5355  0.8122
  102OSM    C7S10314   1.426   2.737   9.785  0.6835 -0.3563 -0.0537
  102OSM    H7S10315   1.320   2.766   9.804  0.5985 -1.2922  0.9247
  102OSM    H7T10316   1.440   2.696   9.682  0.1213  1.0586 -0.7127
  102OSM    C8S10317   1.516   2.870   9.797  0.1758  0.8779 -0.6583
  102OSM    H8S10318   1.609   2.821   9.759  0.4160  0.9680 -0.1861
  102OSM    H8T10319   1.523   2.910   9.900 -0.6929 -3.7851  1.3357
  102OSM    C9S10320   1.484   2.982   9.694  0.4393  0.0150 -0.3216
  102OSM    H9S10321   1.554   3.064   9.717  0.0317 -0.3499  2.3511
  102OSM    H9T10322   1.382   3.016   9.723  0.1116 -1.3665  0.2033
  102OSM   C10S10323   1.491   2.940   9.546  0.2979 -0.0051 -0.0064
  102OSM   H10S10324   1.415   2.861   9.528  0.2577 -0.1542  0.7975
  102OSM   H10T10325   1.590   2.892   9.530  1.0854  1.5108  0.2243
  102OSM   C11S10326   1.469   3.054   9.451  0.0944 -0.2339 -0.1184
  102OSM   H11S10327   1.542   3.137   9.463  0.0907  0.3486 -3.5424
  102OSM   H11T10328   1.377   3.104   9.488 -0.2183 -1.0980  0.2807
  102OSM   C12S10329   1.437   3.006   9.312  0.2751 -0.1262  0.7112
  102OSM   H12S10330   1.358   3.067   9.262 -0.7848  0.1287  2.6547
  102OSM   H12T10331   1.372   2.917   9.321  2.5418 -1.8038  0.8968
  102OSM   C13S10332   1.562   2.973   9.227  0.1614  0.1608 -0.0308
  102OSM   H13S10333   1.626   2.894   9.273  1.2778  1.5205  0.8056
  102OSM   H13T10334   1.628   3.062   9.228 -1.9650  1.7699  0.2260
  102OSM   C14S10335   1.526   2.928   9.086 -0.1279 -0.0080  0.3925
  102OSM   H14S10336   1.454   3.007   9.052  1.7347  0.7103 -2.0118
  102OSM   H14T10337   1.470   2.832   9.089  0.0124 -0.0909  0.3773
  102OSM   C15S10338   1.642   2.904   8.986  0.5323 -0.0454 -0.1914
  102OSM   H15S10339   1.710   2.830   9.033  3.0268  1.6154 -1.0855
  102OSM   H15T10340   1.705   2.996   8.990 -0.0421  0.2783  1.7903
  102OSM   C16S10341   1.599   2.885   8.843 -0.6305 -0.2189  0.2204
  102OSM   H16S10342   1.511   2.948   8.817 -0.9010 -1.8134 -2.9743
  102OSM   H16T10343   1.570   2.779   8.826  2.8767 -1.4718  1.6905
  102OSM   C17S10344   1.706   2.928   8.740  0.2668 -0.2756  0.2120
  102OSM   H17S10345   1.739   3.032   8.758 -1.8790  0.3835  0.4996
  102OSM   H17T10346   1.658   2.920   8.640 -0.5275  1.8813  0.3957
  102OSM   C18S10347   1.820   2.829   8.725  0.6373 -0.1107  0.0139
  102OSM   H18S10348   1.778   2.727   8.726  0.4797 -0.0397  1.8743
  102OSM   H18T10349   1.882   2.839   8.816 -0.7185  3.3148  0.6292
  102OSM   H18U10350   1.884   2.835   8.634 -2.7026 -0.5626 -2.4697
  102OSM    C1F10351   1.427   3.087  10.169  0.4892 -0.0996  0.3188
  102OSM     OF10352   1.510   3.170  10.202 -0.4122 -0.8122 -0.0736
  102OSM    C2F10353   1.285   3.134  10.119  0.1037 -0.2611  0.2052
  102OSM    H2F10354   1.225   3.179  10.201  1.3786 -0.5207  1.3013
  102OSM    H2G10355   1.226   3.046  10.085 -1.3650 -0.4272  3.0005
  102OSM    C3F10356   1.309   3.236  10.006 -0.3503 -0.2157 -0.2605
  102OSM    H3F10357   1.363   3.192   9.919 -1.1524 -0.1443 -0.7957
  102OSM    H3G10358   1.364   3.323  10.047 -0.3941 -0.1755 -0.2865
  102OSM    C4F10359   1.177   3.279   9.946  0.1225 -0.6310 -0.2088
  102OSM    H4F10360   1.203   3.342   9.858 -0.2593  1.0883  0.8768
  102OSM    H4G10361   1.103   3.326  10.015  0.3674 -2.2042  1.1545
  102OSM    C5F10362   1.102   3.165   9.868  0.5949 -0.7160 -0.3878
  102OSM    H5F10363   1.105   3.069   9.923 -2.3866 -0.8889 -0.4582
  102OSM    H5G10364   1.157   3.146   9.773 -0.8466  1.9935 -1.8238
  102OSM    C6F10365   0.953   3.196   9.846 -1.2613  0.8103  0.0832
  102OSM    H6F10366   0.926   3.125   9.765 -0.9766  1.2452 -0.3996
  102OSM    H6G10367   0.942   3.297   9.801 -0.4868  0.9077  0.1118
  102OSM    C7F10368   0.862   3.156   9.960 -0.6093 -0.1909 -0.2719
  102OSM    H7F10369   0.860   3.237  10.036 -0.7344  0.1716 -0.6589
  102OSM    H7G10370   0.906   3.068  10.011  1.3989  1.0967  0.2987
  102OSM    C8F10371   0.720   3.132   9.918 -0.5089 -0.2457 -0.0778
  102OSM    H8F10372   0.682   3.069  10.001  0.5441 -0.3963  0.2891
  102OSM    H8G10373   0.705   3.072   9.826 -1.7642 -0.8808  0.5211
  102OSM    C9F10374   0.632   3.254   9.919 -0.1439 -0.2708  0.4144
  102OSM    H9F10375   0.658   3.328   9.996 -0.4746  1.3322 -0.9687
  102OSM   C10F10376   0.526   3.273   9.843 -0.5073 -0.7062  0.3612
  102OSM   H10F10377   0.477   3.370   9.858 -0.4264 -0.5140 -0.6014
  102OSM   C11F10378   0.462   3.183   9.746  0.8359 -0.6964  0.3370
  102OSM   H11F10379   0.353   3.170   9.763  0.7846  0.7148  1.1746
  102OSM   H11G10380   0.514   3.085   9.753 -1.3488 -1.8340  1.0726
  102OSM   C12F10381   0.487   3.232   9.598 -0.4323 -0.0848  0.2849
  102OSM   H12F10382   0.593   3.263   9.589 -0.6087  0.0663 -1.4375
  102OSM   H12G10383   0.425   3.322   9.580 -1.0052  0.1199  3.0604
  102OSM   C13F10384   0.461   3.121   9.489  0.4106  0.9313 -0.3187
  102OSM   H13F10385   0.353   3.097   9.492  0.5552  0.4704  3.6725
  102OSM   H13G10386   0.515   3.030   9.523  0.2502  0.1726 -2.0806
  102OSM   C14F10387   0.507   3.160   9.352  0.4769  0.2962  0.2812
  102OSM   H14F10388   0.483   3.071   9.290  2.9970 -0.8422  0.9051
  102OSM   H14G10389   0.615   3.185   9.345  0.5481 -0.2687 -0.6798
  102OSM   C15F10390   0.434   3.288   9.299  0.0370  0.6501  0.2078
  102OSM   H15F10391   0.451   3.378   9.362 -2.0936  0.8467  0.5353
  102OSM   H15G10392   0.325   3.269   9.293 -0.2546  2.3197  0.0111
  102OSM   C16F10393   0.474   3.337   9.163  0.6102  0.0058  0.8887
  102OSM   H16F10394   0.484   3.251   9.092 -1.4591 -0.3469  1.0065
  102OSM   H16G10395   0.579   3.372   9.171  0.3074  1.1671 -0.0848
  102OSM   C17F10396   0.381   3.452   9.119  0.2935 -0.2477  0.6980
  102OSM   H17F10397   0.388   3.545   9.180 -0.9939  1.1190 -1.1956
  102OSM   H17G10398   0.275   3.429   9.140  0.2532  0.1687  0.9533
  102OSM   C18F10399   0.397   3.497   8.971  0.0905 -0.5806  0.2674
  102OSM   H18F10400   0.504   3.510   8.944 -1.1059 -0.1864 -4.8206
  102OSM   H18G10401   0.334   3.587   8.955  0.2286 -1.1488 -3.9464
  102OSM   H18H10402   0.369   3.416   8.900 -2.0758 -0.6657  1.1642
  103OSM      N10403   3.008   5.426  11.201 -0.5517  0.2007 -0.5134
  103OSM    C1510404   2.988   5.275  11.205 -0.3969 -0.2498  0.4459
  103OSM   H15A10405   2.923   5.228  11.133  0.7363 -0.0881 -0.6960
  103OSM   H15B10406   2.948   5.247  11.301 -2.4965 -1.3884 -0.7364
  103OSM   H15C10407   3.080   5.219  11.194 -1.1104 -0.9662 -2.1779
  103OSM    C1410408   2.877   5.489  11.198 -0.2096 -0.2220 -0.1165
  103OSM   H14A10409   2.826   5.446  11.113 -0.9597 -1.5649  0.9930
  103OSM   H14B10410   2.888   5.597  11.198 -1.6073 -0.0552 -0.7541
  103OSM   H14C10411   2.818   5.460  11.284  1.7062 -1.4234  0.8097
  103OSM    C1310412   3.071   5.481  11.320 -1.2350 -0.7898  0.1012
  103OSM   H13A10413   3.008   5.496  11.406 -0.0601 -0.4604  0.9149
  103OSM   H13B10414   3.100   5.583  11.298  0.1119 -0.7353  2.0371
  103OSM   H13C10415   3.163   5.430  11.344 -0.3713 -0.0665 -1.5674
  103OSM    C1210416   3.094   5.456  11.080 -0.5061 -0.3099 -0.4953
  103OSM   H12A10417   3.047   5.416  10.992 -0.3008  0.6406 -1.0355
  103OSM   H12B10418   3.182   5.395  11.094  0.4490  1.0184 -0.7035
  103OSM    C1110419   3.122   5.598  11.036  0.3514  0.3997 -0.9755
  103OSM   H11A10420   3.053   5.676  11.075  2.9354  2.0763  0.4449
  103OSM   H11B10421   3.110   5.587  10.927 -1.4006  0.1397 -0.7581
  103OSM      P10422   3.380   5.604  10.991 -0.3427 -0.0778 -0.2435
  103OSM    O1310423   3.491   5.689  11.040  0.7601  0.3216  0.1769
  103OSM    O1410424   3.397   5.460  10.984  0.3060 -0.4900 -0.3092
  103OSM    O1110425   3.334   5.657  10.855 -0.4473 -0.0433  0.3815
  103OSM    O1210426   3.254   5.636  11.077  0.0432 -0.4140  0.3934
  103OSM    C1S10427   3.327   5.800  10.838 -0.4526  0.3626 -0.3015
  103OSM    H1S10428   3.426   5.849  10.851 -0.2841 -0.4299  1.6521
  103OSM    H1T10429   3.247   5.842  10.902 -1.2687 -0.5841 -0.6957
  103OSM     NF10430   3.276   5.995  10.695 -0.3835 -0.6044 -0.1816
  103OSM    HNF10431   3.192   6.044  10.719  0.7170  0.5482  1.3962
  103OSM    C2S10432   3.273   5.850  10.698 -0.4694  0.1891  0.8221
  103OSM    H2S10433   3.340   5.810  10.619  1.2398 -1.3139  2.9933
  103OSM    C3S10434   3.131   5.793  10.670 -0.4810  0.9514 -0.7537
  103OSM    H3S10435   3.064   5.830  10.751 -1.6208 -0.3892 -1.0496
  103OSM     O310436   3.134   5.655  10.690 -0.2948  0.1132 -1.4286
  103OSM    HO310437   3.210   5.642  10.747 -3.4128  1.0819  3.2749
  103OSM    C4S10438   3.074   5.839  10.542  0.2216  0.2878 -0.7538
  103OSM    H4S10439   3.014   5.930  10.559 -1.3833 -1.2313  1.9579
  103OSM    C5S10440   3.098   5.796  10.418  1.0585  0.1259  0.0227
  103OSM    H5S10441   3.168   5.711  10.411  2.0502  0.7100  2.3699
  103OSM    C6S10442   3.017   5.849  10.301 -0.4240  0.6812 -0.1065
  103OSM    H6S10443   2.991   5.753  10.251  0.3564  0.2489  0.2999
  103OSM    H6T10444   3.080   5.915  10.237  0.7091 -1.8562 -1.7219
  103OSM    C7S10445   2.886   5.926  10.338  0.0038  0.1705  0.4314
  103OSM    H7S10446   2.911   6.019  10.392 -2.9730  0.8038  0.8145
  103OSM    H7T10447   2.818   5.863  10.399 -1.0273 -1.1168 -1.9804
  103OSM    C8S10448   2.812   5.967  10.205  0.2834 -0.1686 -0.7766
  103OSM    H8S10449   2.887   6.023  10.145 -0.0296  2.0860  0.8395
  103OSM    H8T10450   2.732   6.040  10.232  1.2178  0.7536 -0.4562
  103OSM    C9S10451   2.758   5.851  10.129  0.0520 -0.9284 -0.1119
  103OSM    H9S10452   2.686   5.803  10.200 -1.6694  0.0666 -1.1322
  103OSM    H9T10453   2.842   5.780  10.116 -1.4895 -3.1056  1.3038
  103OSM   C10S10454   2.669   5.880  10.011  0.3923  0.2006 -0.2093
  103OSM   H10S10455   2.703   5.967   9.951  0.9733 -0.9320 -1.5792
  103OSM   H10T10456   2.567   5.908  10.045  1.9044  1.8876  3.1301
  103OSM   C11S10457   2.657   5.771   9.901 -1.2471 -0.2018  0.0855
  103OSM   H11S10458   2.654   5.673   9.954 -2.3006  0.1330  0.6756
  103OSM   H11T10459   2.749   5.768   9.839 -1.1940  0.3422  0.1407
  103OSM   C12S10460   2.531   5.788   9.807 -0.5597  0.1522 -0.1455
  103OSM   H12S10461   2.543   5.894   9.777 -0.8764  0.3391  0.3764
  103OSM   H12T10462   2.433   5.783   9.859 -0.3059 -0.5468  0.2842
  103OSM   C13S10463   2.530   5.692   9.690 -0.3833  0.8502 -0.0060
  103OSM   H13S10464   2.468   5.604   9.722  1.3597 -1.4357 -2.7123
  103OSM   H13T10465   2.638   5.674   9.677 -0.8787 -2.1665 -0.3359
  103OSM   C14S10466   2.459   5.752   9.572 -0.2239 -0.9137 -0.4269
  103OSM   H14S10467   2.502   5.854   9.565  1.8674 -1.8338 -1.5857
  103OSM   H14T10468   2.353   5.783   9.584  0.3234 -0.5280  4.0368
  103OSM   C15S10469   2.476   5.673   9.445 -0.2678 -0.2856  0.3690
  103OSM   H15S10470   2.445   5.569   9.470 -1.1055  0.2360  1.5634
  103OSM   H15T10471   2.586   5.666   9.432 -0.2811 -2.6107  1.1675
  103OSM   C16S10472   2.388   5.726   9.328  0.1858  0.1162 -0.4378
  103OSM   H16S10473   2.429   5.824   9.297  0.9129 -0.3482 -0.9553
  103OSM   H16T10474   2.286   5.744   9.367  0.5593  0.1783  0.5426
  103OSM   C17S10475   2.382   5.620   9.214 -0.1346 -0.6039  0.2942
  103OSM   H17S10476   2.375   5.518   9.258 -0.3407 -0.0878  1.4782
  103OSM   H17T10477   2.477   5.630   9.157 -0.5202 -0.1553 -0.2672
  103OSM   C18S10478   2.267   5.650   9.117 -0.1803  0.3211 -0.3239
  103OSM   H18S10479   2.290   5.745   9.063 -0.8686  1.8073  1.9506
  103OSM   H18T10480   2.178   5.660   9.182  1.8826 -1.5913  2.9613
  103OSM   H18U10481   2.254   5.576   9.035  2.6639 -1.1991  0.5500
  103OSM    C1F10482   3.386   6.068  10.663  0.1102 -0.4936 -0.3134
  103OSM     OF10483   3.486   6.014  10.621 -0.0085  0.1937  0.3819
  103OSM    C2F10484   3.381   6.218  10.681 -0.5824  0.7248 -0.0694
  103OSM    H2F10485   3.436   6.233  10.777  3.6079 -0.8882 -2.1356
  103OSM    H2G10486   3.277   6.252  10.700 -0.1735  1.1390  1.5575
  103OSM    C3F10487   3.443   6.286  10.556  0.4777 -0.5167 -0.7263
  103OSM    H3F10488   3.549   6.254  10.549  1.0905  1.6064 -1.5298
  103OSM    H3G10489   3.451   6.396  10.567  0.5241 -0.7613  1.9972
  103OSM    C4F10490   3.362   6.260  10.429  0.7477  0.7742 -0.7542
  103OSM    H4F10491   3.338   6.153  10.414 -0.9320  0.9697  0.4019
  103OSM    H4G10492   3.424   6.292  10.342  0.2149  0.2684 -1.3240
  103OSM    C5F10493   3.229   6.334  10.429 -0.4486  0.4793  0.0881
  103OSM    H5F10494   3.245   6.444  10.433 -0.5331  0.5003 -0.1178
  103OSM    H5G10495   3.167   6.300  10.514  0.7166 -1.6972  0.0865
  103OSM    C6F10496   3.147   6.325  10.293 -0.0517 -0.1558 -0.1084
  103OSM    H6F10497   3.075   6.410  10.297  1.1911  0.8664  1.8960
  103OSM    H6G10498   3.084   6.234  10.296 -1.2792  0.7381  2.1445
  103OSM    C7F10499   3.222   6.332  10.160  0.6682  0.3985  0.3422
  103OSM    H7F10500   3.326   6.297  10.171 -0.2621 -2.3110  0.9032
  103OSM    H7G10501   3.232   6.434  10.117 -1.9200  0.6170  0.1242
  103OSM    C8F10502   3.157   6.240  10.057  0.3562  0.2384  0.2896
  103OSM    H8F10503   3.181   6.137  10.090  1.9364  0.3733 -0.3824
  103OSM    H8G10504   3.227   6.238   9.970  0.2213 -0.7727  0.1966
  103OSM    C9F10505   3.011   6.264  10.024 -0.3799  0.4587  0.2471
  103OSM    H9F10506   2.936   6.211  10.084 -0.7449 -1.7487 -2.0410
  103OSM   C10F10507   2.957   6.343   9.925 -0.1478  0.1023 -0.1496
  103OSM   H10F10508   2.848   6.341   9.914 -0.2275  2.7425 -0.1729
  103OSM   C11F10509   3.036   6.429   9.830 -0.5577  0.5763 -0.4626
  103OSM   H11F10510   3.133   6.438   9.883  1.4068 -2.1698 -3.3312
  103OSM   H11G10511   2.989   6.528   9.816  0.2036  1.1535  1.0546
  103OSM   C12F10512   3.053   6.364   9.694  0.2045  0.0724 -0.4241
  103OSM   H12F10513   2.950   6.349   9.654 -0.0973  0.8652  0.0215
  103OSM   H12G10514   3.106   6.267   9.689  0.1934 -0.1043  2.0448
  103OSM   C13F10515   3.106   6.463   9.589 -0.2362  0.3127 -1.0274
  103OSM   H13F10516   3.034   6.546   9.576 -0.3779 -0.0386 -2.6538
  103OSM   H13G10517   3.198   6.509   9.630 -0.8688  1.7444 -1.2035
  103OSM   C14F10518   3.155   6.407   9.451 -0.5020 -0.3521  0.0760
  103OSM   H14F10519   3.069   6.355   9.404  0.9104 -2.7193  0.0549
  103OSM   H14G10520   3.228   6.327   9.475 -0.0318 -0.1964 -0.8068
  103OSM   C15F10521   3.205   6.511   9.346  0.1801 -0.4972 -0.1524
  103OSM   H15F10522   3.287   6.579   9.378  0.6477 -1.5335  0.8789
  103OSM   H15G10523   3.116   6.568   9.313  0.5271 -0.0520 -0.3231
  103OSM   C16F10524   3.258   6.445   9.215 -0.3380  0.3274  0.3730
  103OSM   H16F10525   3.174   6.397   9.162  2.1557  0.9796 -4.5598
  103OSM   H16G10526   3.327   6.364   9.246  0.5995  1.0983  0.3497
  103OSM   C17F10527   3.324   6.544   9.119  0.1702  0.5113 -0.1918
  103OSM   H17F10528   3.410   6.591   9.171  2.9301 -1.7744 -2.5685
  103OSM   H17G10529   3.257   6.631   9.097  0.5534 -0.0328 -3.9521
  103OSM   C18F10530   3.358   6.493   8.982 -0.5332 -1.0326 -0.2000
  103OSM   H18F10531   3.262   6.461   8.936  0.5282 -0.2800 -2.9761
  103OSM   H18G10532   3.421   6.401   8.984  1.1467  0.0757 -1.5618
  103OSM   H18H10533   3.412   6.568   8.922 -1.4382 -0.5930 -0.4743
  104OSM      N10534   0.391   5.905  10.886 -0.0369 -0.7293  0.3171
  104OSM    C1510535   0.428   6.047  10.853 -0.9892 -0.0672 -0.2136
  104OSM   H15A10536   0.428   6.065  10.746  2.2131 -0.1812 -0.3009
  104OSM   H15B10537   0.531   6.058  10.885 -0.5451 -0.7929 -1.3400
  104OSM   H15C10538   0.366   6.120  10.902 -1.5194 -1.7448  1.7062
  104OSM    C1410539   0.387   5.895  11.041 -0.1889  0.2826  0.0517
  104OSM   H14A10540   0.341   5.804  11.078  2.5693 -1.2522 -0.2242
  104OSM   H14B10541   0.331   5.978  11.082 -0.5414  0.1790 -0.2154
  104OSM   H14C10542   0.487   5.903  11.079  0.8614 -0.4139 -2.5020
  104OSM    C1310543   0.255   5.882  10.841  0.0981  0.4783  0.0524
  104OSM   H13A10544   0.219   5.784  10.867 -0.9909  0.4697 -1.3949
  104OSM   H13B10545   0.237   5.883  10.734  1.3024 -0.4759 -0.1741
  104OSM   H13C10546   0.185   5.954  10.881 -0.6187 -0.7306  0.9711
  104OSM    C1210547   0.488   5.801  10.835  0.3956 -0.1431  0.9441
  104OSM   H12A10548   0.458   5.706  10.876  1.1325 -1.0206 -0.5053
  104OSM   H12B10549   0.589   5.813  10.873  2.0239 -3.0574 -2.2044
  104OSM    C1110550   0.497   5.768  10.682 -0.1154 -0.1390  0.0761
  104OSM   H11A10551   0.585   5.703  10.665 -0.3662 -0.4982  0.1367
  104OSM   H11B10552   0.517   5.866  10.633 -3.0243  0.4021 -0.1276
  104OSM      P10553   0.324   5.563  10.675 -0.4564  0.1136  0.1172
  104OSM    O1310554   0.436   5.493  10.734  0.4323  0.0867 -0.0762
  104OSM    O1410555   0.206   5.592  10.764  0.3791 -0.0270 -0.2517
  104OSM    O1110556   0.280   5.516  10.536  0.0992 -0.6063  0.2815
  104OSM    O1210557   0.375   5.702  10.630  0.2315 -0.0871  0.6112
  104OSM    C1S10558   0.151   5.554  10.472  0.1860 -0.3297 -0.2187
  104OSM    H1S10559   0.118   5.658  10.492  2.6545  0.3122  0.7055
  104OSM    H1T10560   0.065   5.492  10.506  0.0823  0.1946  0.4687
  104OSM     NF10561   0.061   5.622  10.247 -0.0539  0.1528  0.0340
  104OSM    HNF10562   0.003   5.562  10.192  3.6612 -0.4607 -3.4262
  104OSM    C2S10563   0.167   5.549  10.315  0.4204  0.9324 -0.8529
  104OSM    H2S10564   0.267   5.589  10.292  0.1803  0.7884 -2.1773
  104OSM    C3S10565   0.170   5.396  10.284  0.1290  0.3150 -0.3067
  104OSM    H3S10566   0.067   5.357  10.300  0.5342  0.0251  1.7223
  104OSM     O310567   0.255   5.313  10.353  0.3220  0.5915 -0.8416
  104OSM    HO310568   0.278   5.381  10.417  0.5442  1.8783 -2.2597
  104OSM    C4S10569   0.186   5.382  10.134 -0.0130 -0.5350  0.1881
  104OSM    H4S10570   0.283   5.414  10.092 -0.1378 -1.4437 -0.8275
  104OSM    C5S10571   0.110   5.323  10.042  0.0400  0.3662 -0.0131
  104OSM    H5S10572   0.018   5.268  10.065 -0.6391  2.7821  3.2920
  104OSM    C6S10573   0.145   5.322   9.896  0.9579 -0.5187  0.9531
  104OSM    H6S10574   0.153   5.218   9.856 -2.0964 -0.5963  0.4285
  104OSM    H6T10575   0.249   5.358   9.882  0.5396  0.5139  0.4974
  104OSM    C7S10576   0.046   5.406   9.815 -0.2536 -0.6727  0.2066
  104OSM    H7S10577   0.057   5.513   9.841 -0.4040 -0.2028 -1.5706
  104OSM    H7T10578  -0.059   5.373   9.830  0.6338 -3.1275  1.3176
  104OSM    C8S10579   0.084   5.388   9.665  0.0857  0.2989 -0.3309
  104OSM    H8S10580   0.068   5.280   9.643 -0.2340  0.1546  0.5554
  104OSM    H8T10581   0.191   5.415   9.651  0.0981  0.7556  0.6012
  104OSM    C9S10582  -0.008   5.469   9.572  0.0952  0.2224 -0.6342
  104OSM    H9S10583  -0.001   5.575   9.606  2.8197  0.0553 -0.5748
  104OSM    H9T10584  -0.111   5.428   9.583  0.4800 -0.2657  1.2706
  104OSM   C10S10585   0.038   5.461   9.426  0.4707  0.0609  0.3152
  104OSM   H10S10586   0.038   5.364   9.372  1.9745  0.6725 -0.8604
  104OSM   H10T10587   0.145   5.492   9.433  0.4687  0.1375  0.0126
  104OSM   C11S10588  -0.027   5.570   9.337  0.5898 -0.1375  0.0420
  104OSM   H11S10589  -0.021   5.672   9.379 -0.5245 -0.2641  0.5308
  104OSM   H11T10590  -0.137   5.557   9.336  0.5650  0.0951 -1.5172
  104OSM   C12S10591   0.010   5.550   9.189  0.5110  0.9842 -0.5499
  104OSM   H12S10592   0.022   5.444   9.158 -1.8076  0.8148 -0.9074
  104OSM   H12T10593   0.105   5.604   9.167  1.5308  0.4057  2.1887
  104OSM   C13S10594  -0.095   5.627   9.093 -0.4102  0.2819 -0.6713
  104OSM   H13S10595  -0.047   5.724   9.067 -1.3188  0.9492  0.1240
  104OSM   H13T10596  -0.197   5.643   9.134 -0.8018  0.9858 -1.9202
  104OSM   C14S10597  -0.109   5.548   8.959  0.6315  0.4657 -0.5731
  104OSM   H14S10598  -0.158   5.450   8.981 -0.8959  1.7629  2.0327
  104OSM   H14T10599  -0.009   5.525   8.916  1.2556  1.5738  0.2612
  104OSM   C15S10600  -0.203   5.631   8.861 -0.2997  0.0329 -0.4797
  104OSM   H15S10601  -0.262   5.690   8.936  0.6369 -0.1699  0.4326
  104OSM   H15T10602  -0.275   5.582   8.793 -0.8093 -1.2831  0.9762
  104OSM   C16S10603  -0.118   5.737   8.782  0.1347  0.6471 -0.2416
  104OSM   H16S10604  -0.039   5.678   8.729  1.3452  2.1263 -0.1219
  104OSM   H16T10605  -0.069   5.812   8.848  1.7836 -0.9652  0.4187
  104OSM   C17S10606  -0.201   5.815   8.681  0.4911  0.3984  0.4588
  104OSM   H17S10607  -0.280   5.750   8.638 -0.4494  1.1095  1.0922
  104OSM   H17T10608  -0.126   5.849   8.607  1.0877  1.5487  1.5724
  104OSM   C18S10609  -0.269   5.944   8.747 -0.5956 -0.2987 -0.0023
  104OSM   H18S10610  -0.330   5.919   8.836 -0.2160 -0.4453  0.2198
  104OSM   H18T10611  -0.324   6.000   8.668 -1.1699 -0.4299  0.3012
  104OSM   H18U10612  -0.186   6.008   8.785 -0.0118 -0.6153 -0.7220
  104OSM    C1F10613   0.040   5.756  10.253 -0.0413 -0.0030 -0.0661
  104OSM     OF10614   0.108   5.829  10.325  0.9784  0.4774  0.1075
  104OSM    C2F10615  -0.064   5.814  10.167  0.2938 -0.8423  0.5146
  104OSM    H2F10616  -0.067   5.922  10.191  2.0036 -0.6243 -0.1816
  104OSM    H2G10617  -0.163   5.764  10.176  0.5967 -1.4416  0.5225
  104OSM    C3F10618  -0.016   5.797  10.013 -0.2420  0.5573  0.4733
  104OSM    H3F10619  -0.052   5.693   9.994  2.7272 -0.4073 -0.1969
  104OSM    H3G10620   0.091   5.803   9.986 -0.6612 -0.7669 -1.6635
  104OSM    C4F10621  -0.084   5.896   9.920  0.5830 -0.0502  0.0386
  104OSM    H4F10622  -0.068   6.006   9.926  0.2907  0.0379 -0.7116
  104OSM    H4G10623  -0.194   5.892   9.938  0.4608  3.3571  0.3751
  104OSM    C5F10624  -0.076   5.844   9.779  0.3211 -0.0095 -0.0257
  104OSM    H5F10625  -0.092   5.735   9.766  2.4790 -0.3384 -0.1366
  104OSM    H5G10626   0.030   5.863   9.751  0.3968  0.0787  0.3117
  104OSM    C6F10627  -0.162   5.917   9.672 -0.0135  0.4098 -0.3401
  104OSM    H6F10628  -0.150   6.027   9.659 -1.7504  0.6469 -0.0230
  104OSM    H6G10629  -0.268   5.901   9.702  0.8010 -1.2529  1.7989
  104OSM    C7F10630  -0.131   5.847   9.546 -0.1658  1.4841 -0.1725
  104OSM    H7F10631  -0.182   5.748   9.551  0.7989  0.9537 -0.6416
  104OSM    H7G10632  -0.022   5.828   9.535 -0.0759  2.1565 -0.4309
  104OSM    C8F10633  -0.185   5.906   9.417  0.0612  0.1795  0.9100
  104OSM    H8F10634  -0.295   5.918   9.428 -0.0055 -2.0237  3.0279
  104OSM    H8G10635  -0.167   5.823   9.346 -0.7929  3.4628 -3.3579
  104OSM    C9F10636  -0.101   6.034   9.390  0.4359 -0.2516 -0.1020
  104OSM    H9F10637  -0.022   6.066   9.459  1.0153  0.0729 -0.9066
  104OSM   C10F10638  -0.103   6.103   9.275  0.3208 -0.5285 -0.3972
  104OSM   H10F10639  -0.030   6.185   9.266  0.1909 -0.1656  1.6587
  104OSM   C11F10640  -0.191   6.059   9.155  0.3922 -0.3908  0.8298
  104OSM   H11F10641  -0.297   6.045   9.187 -0.0248  0.3493 -0.2240
  104OSM   H11G10642  -0.160   5.959   9.119 -1.5674 -0.4422 -0.8056
  104OSM   C12F10643  -0.195   6.149   9.039  0.2287 -0.1660  0.1097
  104OSM   H12F10644  -0.234   6.248   9.073 -0.7162 -0.3880 -0.3077
  104OSM   H12G10645  -0.266   6.111   8.963  0.4037  0.7474 -0.5099
  104OSM   C13F10646  -0.063   6.160   8.958  0.3307 -0.1534  0.2113
  104OSM   H13F10647  -0.045   6.053   8.937  1.7226  0.0654  0.2481
  104OSM   H13G10648   0.023   6.196   9.018  0.0841  1.0002 -0.1123
  104OSM   C14F10649  -0.066   6.226   8.822 -0.9682  0.5845 -0.6301
  104OSM   H14F10650  -0.062   6.337   8.827  0.0965  0.4924  0.8502
  104OSM   H14G10651  -0.156   6.204   8.761  0.0221 -3.2130 -0.8737
  104OSM   C15F10652   0.051   6.183   8.727 -0.9313  0.6006 -0.2304
  104OSM   H15F10653   0.065   6.073   8.733  2.9729  1.1150  1.7724
  104OSM   H15G10654   0.146   6.231   8.759  0.0747 -0.4212 -1.6167
  104OSM   C16F10655   0.021   6.224   8.582  0.1923  0.1124 -0.2020
  104OSM   H16F10656  -0.012   6.328   8.563  1.5894  0.4197 -1.0474
  104OSM   H16G10657  -0.061   6.154   8.557 -1.3248  1.6841  0.2958
  104OSM   C17F10658   0.135   6.185   8.486 -0.0035 -0.1285  0.0700
  104OSM   H17F10659   0.154   6.076   8.495  0.3048 -0.2966 -2.2399
  104OSM   H17G10660   0.231   6.223   8.525  0.3336 -1.4472  0.5471
  104OSM   C18F10661   0.116   6.215   8.343 -0.2930 -0.0296  0.3054
  104OSM   H18F10662   0.212   6.205   8.288  0.0982  1.0068  0.7824
  104OSM   H18G10663   0.076   6.317   8.323  0.2899 -0.1290 -1.5063
  104OSM   H18H10664   0.041   6.146   8.299  0.8766 -1.1668  0.0573
  105OSM      N10665   0.046   5.018  11.192  0.3960 -0.5021  0.0112
  105OSM    C1510666   0.056   4.891  11.278  0.4532 -0.2630  0.4547
  105OSM   H15A10667   0.136   4.907  11.348  0.6903  0.1630  0.0899
  105OSM   H15B10668   0.081   4.808  11.214 -1.8459  0.2813 -1.2301
  105OSM   H15C10669  -0.035   4.858  11.326  0.6602 -1.3441  0.1104
  105OSM    C1410670   0.022   5.137  11.276  0.2423 -0.3917 -0.4833
  105OSM   H14A10671   0.030   5.227  11.217 -1.7738 -1.4932 -2.5007
  105OSM   H14B10672   0.088   5.129  11.362 -0.4785  1.7690  0.3171
  105OSM   H14C10673  -0.080   5.140  11.311  0.6151  1.2203  0.5839
  105OSM    C1310674   0.171   5.037  11.120  0.0054  0.0625 -0.2957
  105OSM   H13A10675   0.161   5.122  11.054  0.4404  1.1556  1.0248
  105OSM   H13B10676   0.205   4.944  11.078  0.3263 -1.1598  2.5694
  105OSM   H13C10677   0.254   5.070  11.181  0.1921 -1.1672  0.1198
  105OSM    C1210678  -0.072   4.997  11.094  0.6085  0.6668 -0.0787
  105OSM   H12A10679  -0.093   5.088  11.041 -1.6874  0.2679  0.0888
  105OSM   H12B10680  -0.165   4.966  11.138  0.5141  0.3465 -0.5006
  105OSM    C1110681  -0.049   4.891  10.982 -1.0426  0.0014 -0.3976
  105OSM   H11A10682  -0.140   4.834  10.954 -1.4878 -0.4946  1.9777
  105OSM   H11B10683   0.029   4.819  11.017 -0.3117  1.2817  0.6373
  105OSM      P10684  -0.076   5.078  10.802 -0.0271 -0.3456 -0.4027
  105OSM    O1310685  -0.217   5.086  10.849  0.2034  0.3634 -0.5258
  105OSM    O1410686   0.003   5.200  10.811  0.0707 -0.2706  0.0990
  105OSM    O1110687  -0.074   5.042  10.648 -0.3656  0.1897 -0.2000
  105OSM    O1210688   0.010   4.960  10.868  0.2634  0.2492  0.3817
  105OSM    C1S10689   0.046   5.059  10.574  0.0942  0.4967  0.1072
  105OSM    H1S10690   0.117   4.983  10.614 -2.0326 -1.0637  0.9968
  105OSM    H1T10691   0.090   5.161  10.582 -0.3432  0.6833  0.1399
  105OSM     NF10692   0.144   5.033  10.353 -0.6066  0.0643 -0.3919
  105OSM    HNF10693   0.164   5.125  10.319 -1.6359 -0.3681 -2.2926
  105OSM    C2S10694   0.017   5.029  10.426 -0.4025  0.0147 -0.6612
  105OSM    H2S10695  -0.020   4.924  10.426 -2.3725  0.6031  4.0327
  105OSM    C3S10696  -0.102   5.120  10.373  0.1130 -0.2831 -0.2437
  105OSM    H3S10697  -0.082   5.229  10.380  0.0878 -0.2420 -0.8132
  105OSM     O310698  -0.220   5.107  10.445 -0.4488 -0.2319 -0.1054
  105OSM    HO310699  -0.184   5.072  10.526  0.4570 -0.1604 -0.4711
  105OSM    C4S10700  -0.135   5.084  10.235 -0.2079 -0.0915  0.1317
  105OSM    H4S10701  -0.158   5.176  10.179 -0.0374 -0.5640 -0.7303
  105OSM    C5S10702  -0.159   4.958  10.187  0.4783 -0.3150 -0.0647
  105OSM    H5S10703  -0.143   4.876  10.258  1.1180 -0.2989 -0.1854
  105OSM    C6S10704  -0.205   4.913  10.050  0.3746  0.6059 -0.4648
  105OSM    H6S10705  -0.311   4.889  10.070  0.3716  0.2495 -0.9044
  105OSM    H6T10706  -0.143   4.826  10.019  0.1639 -0.6239  2.3953
  105OSM    C7S10707  -0.191   5.023   9.949 -0.6713  0.7166  0.0658
  105OSM    H7S10708  -0.093   5.072   9.966 -0.7194 -0.1410  3.0738
  105OSM    H7T10709  -0.261   5.107   9.969 -0.9799  0.3379  0.6053
  105OSM    C8S10710  -0.206   4.973   9.808 -0.3491  0.3544  0.6381
  105OSM    H8S10711  -0.311   4.941   9.788  0.3067 -0.2763 -1.9546
  105OSM    H8T10712  -0.138   4.887   9.792 -1.3505 -0.4588  0.6720
  105OSM    C9S10713  -0.165   5.082   9.708  0.3113 -0.4903 -0.0293
  105OSM    H9S10714  -0.066   5.129   9.731 -0.8708  1.6521  0.8281
  105OSM    H9T10715  -0.238   5.166   9.712 -0.2446 -0.8331 -2.5373
  105OSM   C10S10716  -0.165   5.020   9.567  0.3578  0.2603  0.1347
  105OSM   H10S10717  -0.272   4.999   9.546  0.2430  0.5199  0.4550
  105OSM   H10T10718  -0.109   4.925   9.560  0.8749  0.5515  0.3654
  105OSM   C11S10719  -0.119   5.114   9.454 -0.4946 -0.7625  0.5231
  105OSM   H11S10720  -0.011   5.140   9.460 -0.4335 -0.9903  0.4277
  105OSM   H11T10721  -0.176   5.208   9.463  0.0086 -0.7089  3.5889
  105OSM   C12S10722  -0.131   5.044   9.320  0.1035 -0.6405  0.2394
  105OSM   H12S10723  -0.234   5.003   9.314 -0.2674  0.5198 -1.9388
  105OSM   H12T10724  -0.064   4.957   9.301  0.5587 -0.6120  1.7127
  105OSM   C13S10725  -0.099   5.133   9.196  0.1945  0.0178 -0.6144
  105OSM   H13S10726  -0.032   5.210   9.240  0.8327 -0.7332 -0.2532
  105OSM   H13T10727  -0.183   5.195   9.158 -1.1116 -1.1901  0.2370
  105OSM   C14S10728  -0.045   5.045   9.086  0.5497 -0.3746  0.4426
  105OSM   H14S10729  -0.118   4.972   9.044  2.8665 -1.0933 -2.4824
  105OSM   H14T10730   0.047   4.994   9.123  0.2382 -0.2772  1.3730
  105OSM   C15S10731  -0.011   5.129   8.957  0.0374  0.1903  0.1286
  105OSM   H15S10732   0.055   5.210   8.995 -0.1591  0.6890 -0.5849
  105OSM   H15T10733  -0.104   5.181   8.923 -1.0085 -1.0221  1.0882
  105OSM   C16S10734   0.041   5.044   8.846 -0.2410  0.8360 -0.5093
  105OSM   H16S10735  -0.035   4.963   8.837 -0.7059  1.3087 -0.8995
  105OSM   H16T10736   0.130   4.992   8.887 -1.3397  0.2679  1.2324
  105OSM   C17S10737   0.074   5.108   8.711 -0.2109 -0.5254  0.5923
  105OSM   H17S10738  -0.022   5.145   8.670  0.8358  0.3339 -1.1541
  105OSM   H17T10739   0.112   5.027   8.644  2.2452  1.1793 -0.1494
  105OSM   C18S10740   0.164   5.229   8.728  0.4772  0.4768 -0.0685
  105OSM   H18S10741   0.168   5.292   8.637  0.8213  0.0987 -0.3181
  105OSM   H18T10742   0.261   5.196   8.771  1.7764  1.2814 -2.2977
  105OSM   H18U10743   0.117   5.308   8.790  0.3519 -0.6618  1.3160
  105OSM    C1F10744   0.248   4.940  10.364  0.0333  0.1013 -0.2075
  105OSM     OF10745   0.224   4.829  10.411 -0.3632  0.0912  0.0283
  105OSM    C2F10746   0.385   4.983  10.327 -0.2392 -0.9494 -0.7877
  105OSM    H2F10747   0.459   4.914  10.372  0.9234  1.6229  1.3648
  105OSM    H2G10748   0.409   5.080  10.375 -2.2927 -1.5484  1.5225
  105OSM    C3F10749   0.415   5.006  10.179 -0.0797  0.0784  0.1884
  105OSM    H3F10750   0.524   5.013  10.158  0.1427 -1.0309  0.9314
  105OSM    H3G10751   0.366   5.101  10.149  0.2070 -0.1390 -1.0115
  105OSM    C4F10752   0.371   4.894  10.086 -0.3827  0.1380  0.0062
  105OSM    H4F10753   0.325   4.820  10.155 -1.8411  2.2186  1.3170
  105OSM    H4G10754   0.456   4.839  10.040  0.0632  1.2635 -0.5470
  105OSM    C5F10755   0.264   4.938   9.982 -0.0471  0.6693  0.5827
  105OSM    H5F10756   0.313   4.993   9.899 -2.0528  0.1485 -0.9674
  105OSM    H5G10757   0.199   5.010  10.036 -1.7709 -0.9616  0.7228
  105OSM    C6F10758   0.180   4.820   9.937  0.3761  0.2086 -0.4149
  105OSM    H6F10759   0.095   4.863   9.880 -0.2645 -1.1501 -0.5046
  105OSM    H6G10760   0.152   4.773  10.034  1.9311  2.6060  1.2340
  105OSM    C7F10761   0.267   4.725   9.856 -0.1943 -0.9689 -0.4421
  105OSM    H7F10762   0.195   4.646   9.827 -0.1105 -0.9018 -0.8320
  105OSM    H7G10763   0.336   4.666   9.921  0.6584 -0.7972 -1.1709
  105OSM    C8F10764   0.344   4.794   9.745  0.4880  0.7017  0.9506
  105OSM    H8F10765   0.443   4.833   9.777  0.2052  0.1800  2.5283
  105OSM    H8G10766   0.284   4.884   9.720 -2.4276 -0.4986  3.3298
  105OSM    C9F10767   0.361   4.694   9.636  0.1809 -0.4032  0.4530
  105OSM    H9F10768   0.439   4.624   9.668  1.9696  1.9591  1.4587
  105OSM   C10F10769   0.314   4.692   9.509 -0.2655  0.0635  0.2733
  105OSM   H10F10770   0.341   4.611   9.440  1.4359 -0.2532  1.2941
  105OSM   C11F10771   0.224   4.789   9.442 -0.3862  0.3667 -0.4535
  105OSM   H11F10772   0.271   4.888   9.462 -2.9594  1.6621 -0.6286
  105OSM   H11G10773   0.124   4.786   9.490 -0.4823 -0.1812 -0.6820
  105OSM   C12F10774   0.201   4.780   9.283  0.1280 -0.5279 -0.5021
  105OSM   H12F10775   0.148   4.873   9.255  0.6613  0.3399  1.3029
  105OSM   H12G10776   0.135   4.696   9.253  0.1977 -0.9046  0.3706
  105OSM   C13F10777   0.324   4.779   9.200  0.7565 -0.3208 -0.5766
  105OSM   H13F10778   0.359   4.675   9.181 -0.1399 -0.2942 -2.4300
  105OSM   H13G10779   0.411   4.834   9.242 -0.2737 -0.8408  2.3105
  105OSM   C14F10780   0.285   4.830   9.064 -0.3679  0.1295 -0.4507
  105OSM   H14F10781   0.265   4.939   9.071 -1.2718 -0.1726  2.2630
  105OSM   H14G10782   0.188   4.783   9.038 -0.5202 -0.6333  1.3861
  105OSM   C15F10783   0.405   4.819   8.962  0.4366 -0.5850  0.8494
  105OSM   H15F10784   0.435   4.713   8.949 -0.0775 -0.7480  0.9797
  105OSM   H15G10785   0.486   4.867   9.022  0.1955  2.2912 -1.0160
  105OSM   C16F10786   0.392   4.894   8.828  0.2665  0.3576  0.2305
  105OSM   H16F10787   0.348   4.994   8.848  1.4060  0.8939  0.0660
  105OSM   H16G10788   0.314   4.844   8.766  0.4480  0.4049 -0.0387
  105OSM   C17F10789   0.523   4.898   8.746 -0.1002  0.3552  0.0347
  105OSM   H17F10790   0.541   4.793   8.717 -1.3908  0.4135 -1.0295
  105OSM   H17G10791   0.611   4.937   8.801  1.2494 -0.1723 -1.7289
  105OSM   C18F10792   0.480   4.973   8.617 -0.8320  0.4940  0.7223
  105OSM   H18F10793   0.398   4.921   8.562 -0.0158  1.9363 -1.9899
  105OSM   H18G10794   0.566   4.985   8.547 -0.5921 -1.8852  0.5670
  105OSM   H18H10795   0.444   5.074   8.646 -0.5993  1.0548 -0.8689
  106OSM      N10796   1.125   3.285  10.765 -0.6069 -0.1133 -0.4233
  106OSM    C1510797   1.192   3.381  10.866  0.1390  0.0279  0.1489
  106OSM   H15A10798   1.281   3.423  10.823 -0.1516  0.6970  0.1895
  106OSM   H15B10799   1.213   3.332  10.960 -0.9282 -0.4199  0.1682
  106OSM   H15C10800   1.118   3.458  10.886 -0.1202 -0.3965  0.8445
  106OSM    C1410801   1.010   3.224  10.837  0.4166 -0.0543 -0.4037
  106OSM   H14A10802   0.976   3.144  10.774 -2.0187 -0.7280  1.6467
  106OSM   H14B10803   0.931   3.298  10.842  0.5000 -0.0074  0.2975
  106OSM   H14C10804   1.047   3.201  10.936  0.6024  2.7322  0.2330
  106OSM    C1310805   1.090   3.366  10.648  0.7452  0.3996 -0.3274
  106OSM   H13A10806   1.002   3.428  10.656 -0.5042 -0.9444 -2.8074
  106OSM   H13B10807   1.067   3.305  10.562  1.2675  1.0811 -0.9549
  106OSM   H13C10808   1.166   3.434  10.614 -0.1428  1.4185 -0.3229
  106OSM    C1210809   1.226   3.172  10.726 -0.1114  0.3520 -0.6372
  106OSM   H12A10810   1.266   3.135  10.818 -1.3632  0.0993 -0.1848
  106OSM   H12B10811   1.306   3.217  10.668  1.4504 -2.9642 -1.1301
  106OSM    C1110812   1.179   3.060  10.633 -0.5380  0.0816  0.1702
  106OSM   H11A10813   1.270   3.008  10.597  0.6882 -0.5186  3.8549
  106OSM   H11B10814   1.135   3.116  10.548  0.9539  1.6284  0.3857
  106OSM      P10815   1.129   2.840  10.778 -0.3840  0.1064  0.2514
  106OSM    O1310816   1.215   2.879  10.891 -0.8690 -0.1016 -0.2408
  106OSM    O1410817   1.009   2.760  10.821 -0.1032 -0.2914 -0.3912
  106OSM    O1110818   1.213   2.756  10.675  0.0939 -0.2744  0.0784
  106OSM    O1210819   1.085   2.971  10.699 -0.3872  0.0112 -0.1519
  106OSM    C1S10820   1.141   2.707  10.559 -0.4219  0.0644  0.8117
  106OSM    H1S10821   1.099   2.794  10.503 -1.4136  0.0925  1.5861
  106OSM    H1T10822   1.060   2.640  10.594  0.0336 -1.4817 -1.0196
  106OSM     NF10823   1.161   2.597  10.333  0.1239  0.0350 -0.4266
  106OSM    HNF10824   1.100   2.519  10.339 -0.6035  0.7977  4.9715
  106OSM    C2S10825   1.230   2.627  10.459 -1.0556 -0.0864  0.4377
  106OSM    H2S10826   1.317   2.695  10.442 -0.1595 -1.7084 -1.7687
  106OSM    C3S10827   1.288   2.499  10.530 -0.6400  1.3256  0.3052
  106OSM    H3S10828   1.206   2.427  10.556 -0.1717  1.8797  3.6282
  106OSM     O310829   1.358   2.520  10.652 -0.1770  0.5050 -0.3306
  106OSM    HO310830   1.370   2.614  10.664  0.2342  0.3129  0.8908
  106OSM    C4S10831   1.384   2.437  10.433 -0.0027 -0.2065 -0.5439
  106OSM    H4S10832   1.472   2.501  10.413  0.7776 -0.7715  0.9645
  106OSM    C5S10833   1.371   2.309  10.378 -0.2897  0.4351 -0.0673
  106OSM    H5S10834   1.284   2.245  10.398 -0.7147  0.6878 -1.0902
  106OSM    C6S10835   1.459   2.248  10.275 -0.0146 -0.3300 -0.5851
  106OSM    H6S10836   1.399   2.235  10.182  1.5045  1.5872 -1.8670
  106OSM    H6T10837   1.486   2.149  10.317  0.7800 -0.4674 -1.3790
  106OSM    C7S10838   1.591   2.334  10.237  0.9394 -0.3940 -0.0257
  106OSM    H7S10839   1.648   2.355  10.330  0.8715  0.0860 -0.0905
  106OSM    H7T10840   1.556   2.426  10.186  0.9206  0.1876  1.0148
  106OSM    C8S10841   1.680   2.264  10.132 -0.0974 -0.3149 -0.7939
  106OSM    H8S10842   1.694   2.162  10.173 -1.9514  0.2372  1.3686
  106OSM    H8T10843   1.778   2.315  10.137  0.1443 -0.8228 -0.2727
  106OSM    C9S10844   1.625   2.279   9.992  0.6702  0.2017 -0.6309
  106OSM    H9S10845   1.592   2.382   9.970  0.5125  0.0378 -1.1659
  106OSM    H9T10846   1.530   2.223   9.974  1.0425 -0.8676  0.5732
  106OSM   C10S10847   1.714   2.219   9.879 -0.0414 -0.0357 -0.3445
  106OSM   H10S10848   1.728   2.116   9.919 -0.0504 -0.1648 -0.6756
  106OSM   H10T10849   1.813   2.269   9.880  0.0669 -0.2572  0.5062
  106OSM   C11S10850   1.639   2.205   9.740 -0.6027  0.6411 -0.1310
  106OSM   H11S10851   1.615   2.303   9.694  1.0658  0.1106 -2.2046
  106OSM   H11T10852   1.549   2.148   9.773 -2.0367  1.7525 -2.0831
  106OSM   C12S10853   1.725   2.125   9.633  0.0763 -0.2413  0.4458
  106OSM   H12S10854   1.726   2.018   9.660  0.4674  0.3492  2.8351
  106OSM   H12T10855   1.822   2.179   9.640  0.8607 -1.5775  0.0764
  106OSM   C13S10856   1.671   2.142   9.491  0.3019 -0.5379 -0.5513
  106OSM   H13S10857   1.657   2.250   9.467  0.6849 -0.1819  0.8073
  106OSM   H13T10858   1.581   2.084   9.465 -0.2675  0.8500 -1.7403
  106OSM   C14S10859   1.784   2.089   9.395 -0.0817  0.1031 -0.0237
  106OSM   H14S10860   1.802   1.983   9.425  0.2571  0.7154  2.0126
  106OSM   H14T10861   1.874   2.153   9.405  1.9924 -2.6610 -0.5375
  106OSM   C15S10862   1.738   2.097   9.244  0.0808 -0.0453 -0.2512
  106OSM   H15S10863   1.706   2.201   9.221  0.5698 -0.2178 -1.7095
  106OSM   H15T10864   1.647   2.033   9.240  0.5129 -0.6840  0.0534
  106OSM   C16S10865   1.854   2.058   9.148  0.4783 -0.5591 -0.3532
  106OSM   H16S10866   1.871   1.948   9.157 -0.0598 -0.4495  2.3034
  106OSM   H16T10867   1.951   2.111   9.166  0.2704 -0.3551  0.1653
  106OSM   C17S10868   1.802   2.099   9.004  0.5167  0.0793  0.4824
  106OSM   H17S10869   1.792   2.209   9.001  1.8416  0.1848 -1.1635
  106OSM   H17T10870   1.702   2.051   8.989  0.8913 -1.0362  1.4216
  106OSM   C18S10871   1.892   2.068   8.893 -0.2345 -0.4034  0.4790
  106OSM   H18S10872   1.841   2.066   8.794 -1.2526 -1.8832  1.0080
  106OSM   H18T10873   1.942   1.968   8.897 -1.1773 -0.8249  1.9178
  106OSM   H18U10874   1.975   2.141   8.889 -0.9237  0.2859 -2.2965
  106OSM    C1F10875   1.143   2.691  10.244 -0.0373 -0.5690  0.1276
  106OSM     OF10876   1.189   2.803  10.265 -0.2412  0.3171  0.2276
  106OSM    C2F10877   1.069   2.656  10.118  0.8205 -0.6328  0.2059
  106OSM    H2F10878   0.967   2.631  10.154  1.5389 -1.3572  1.7850
  106OSM    H2G10879   1.120   2.564  10.080 -0.2865 -0.7237 -1.1102
  106OSM    C3F10880   1.073   2.777  10.018 -1.1014 -0.1008  0.3664
  106OSM    H3F10881   1.176   2.785   9.976 -1.5913 -0.2717 -0.8994
  106OSM    H3G10882   1.065   2.872  10.075  1.9837  1.7158 -2.0320
  106OSM    C4F10883   0.987   2.758   9.891  0.3323  0.6725  0.0180
  106OSM    H4F10884   0.993   2.844   9.821 -1.1128 -0.6907 -1.8323
  106OSM    H4G10885   0.880   2.757   9.920  0.2478  1.5195 -0.2349
  106OSM    C5F10886   1.023   2.621   9.820 -0.2808 -0.1349 -0.7201
  106OSM    H5F10887   0.979   2.536   9.875 -1.9192  1.2664  0.2002
  106OSM    H5G10888   1.134   2.617   9.821 -0.2883 -0.2035 -0.2338
  106OSM    C6F10889   0.971   2.623   9.677 -0.0652  0.3876 -0.2408
  106OSM    H6F10890   0.865   2.656   9.674 -0.2637 -0.2476 -0.3594
  106OSM    H6G10891   0.990   2.521   9.639  0.1060  0.3457 -0.0415
  106OSM    C7F10892   1.054   2.726   9.585 -0.3522 -0.7663 -0.2221
  106OSM    H7F10893   1.159   2.691   9.596 -0.4142 -0.3671  2.0267
  106OSM    H7G10894   1.063   2.832   9.618 -1.2008 -0.1123 -2.0705
  106OSM    C8F10895   1.003   2.734   9.439  0.2604 -0.4046  0.0352
  106OSM    H8F10896   1.081   2.806   9.405  0.4379 -0.6575 -0.1041
  106OSM    H8G10897   0.901   2.777   9.435 -1.0039 -3.2442  0.6044
  106OSM    C9F10898   1.018   2.619   9.346  0.4056  0.7683  0.2601
  106OSM    H9F10899   1.000   2.522   9.393  0.4388 -0.2472 -1.7753
  106OSM   C10F10900   1.078   2.621   9.224  0.0518  0.2683 -0.5245
  106OSM   H10F10901   1.080   2.522   9.175  0.3163  0.3100 -0.5988
  106OSM   C11F10902   1.136   2.744   9.158  0.2980  0.2181  0.4993
  106OSM   H11F10903   1.216   2.776   9.228 -0.8033  2.1106  0.9408
  106OSM   H11G10904   1.059   2.823   9.143  0.0473 -0.5458 -2.3879
  106OSM   C12F10905   1.191   2.716   9.023  0.2547  0.4893  0.2039
  106OSM   H12F10906   1.246   2.620   9.024 -1.8098 -0.7285 -0.4425
  106OSM   H12G10907   1.261   2.799   9.000 -0.3807  1.2714  1.0688
  106OSM   C13F10908   1.091   2.721   8.905  0.6403 -0.1248 -0.6903
  106OSM   H13F10909   1.020   2.802   8.935 -1.1780 -1.9463  0.0083
  106OSM   H13G10910   1.033   2.627   8.899  1.0194 -0.6466  2.7548
  106OSM   C14F10911   1.163   2.751   8.768  0.5348  0.3838  1.2512
  106OSM   H14F10912   1.225   2.841   8.786  0.0436  0.9179  0.2709
  106OSM   H14G10913   1.089   2.781   8.691  4.1340  1.1559 -2.0105
  106OSM   C15F10914   1.252   2.643   8.706  0.1828  0.0805 -0.6255
  106OSM   H15F10915   1.196   2.551   8.678  0.3906 -0.1453 -0.3009
  106OSM   H15G10916   1.328   2.611   8.780 -2.0702  1.8948  2.5648
  106OSM   C16F10917   1.326   2.709   8.586 -0.3058 -0.2725 -0.1944
  106OSM   H16F10918   1.380   2.788   8.642  3.9613 -4.6279  2.2409
  106OSM   H16G10919   1.252   2.751   8.515 -2.1100 -1.1384  1.1437
  106OSM   C17F10920   1.430   2.619   8.505 -0.2542  0.1447 -0.6855
  106OSM   H17F10921   1.381   2.569   8.418  0.4650  0.4518 -1.2697
  106OSM   H17G10922   1.469   2.543   8.576  1.8981 -0.3526 -2.3392
  106OSM   C18F10923   1.553   2.686   8.451 -0.1268  0.0531 -0.1263
  106OSM   H18F10924   1.608   2.609   8.393  0.2988  0.1200  0.1908
  106OSM   H18G10925   1.630   2.728   8.519  0.6116 -2.4686  0.6366
  106OSM   H18H10926   1.526   2.766   8.379 -1.9240  0.2248  0.6934
  107OSM      N10927   1.550   0.465  11.118 -0.6324 -0.0935  0.5796
  107OSM    C1510928   1.412   0.497  11.058 -0.2610  0.3534 -0.3025
  107OSM   H15A10929   1.369   0.585  11.103  1.1422  1.2771 -0.7038
  107OSM   H15B10930   1.354   0.406  11.055  0.8733 -0.3894 -0.0987
  107OSM   H15C10931   1.445   0.527  10.959  1.6751  2.1204  0.8190
  107OSM    C1410932   1.538   0.446  11.263 -1.0216 -0.3172 -0.3266
  107OSM   H14A10933   1.632   0.407  11.299 -1.8523 -0.8997  1.2472
  107OSM   H14B10934   1.462   0.376  11.293  0.1455 -1.5411 -0.1684
  107OSM   H14C10935   1.513   0.542  11.305  2.1719  0.3828  0.1314
  107OSM    C1310936   1.592   0.333  11.055  0.0228  0.1819  0.3298
  107OSM   H13A10937   1.688   0.312  11.100  1.0306  1.9186 -0.9244
  107OSM   H13B10938   1.609   0.351  10.950 -1.9591  4.2486  0.6245
  107OSM   H13C10939   1.526   0.253  11.084  1.6847 -1.0872  0.7162
  107OSM    C1210940   1.654   0.570  11.087  0.3092 -0.2673  0.7768
  107OSM   H12A10941   1.612   0.668  11.105 -0.3831 -0.8119  2.2227
  107OSM   H12B10942   1.683   0.569  10.983  0.0086  3.3096  0.6035
  107OSM    C1110943   1.785   0.562  11.158  0.8869  0.0092 -0.1763
  107OSM   H11A10944   1.763   0.564  11.267  1.3399  1.1093 -0.0943
  107OSM   H11B10945   1.850   0.649  11.132  1.6707 -0.4633  0.1826
  107OSM      P10946   1.998   0.431  11.062  0.1299  0.1347  0.1407
  107OSM    O1310947   2.056   0.564  11.074 -0.6863 -0.5910 -0.0070
  107OSM    O1410948   2.068   0.314  11.115  0.0895  0.3861  0.1304
  107OSM    O1110949   1.958   0.403  10.912 -0.3831 -0.6793  0.6917
  107OSM    O1210950   1.855   0.438  11.137  0.7920  0.0989  0.1405
  107OSM    C1S10951   2.062   0.420  10.820 -0.8971  0.2645  0.2315
  107OSM    H1S10952   2.129   0.332  10.828  0.4380  1.0877 -1.4572
  107OSM    H1T10953   2.132   0.502  10.848 -2.5748  1.4481  1.0616
  107OSM     NF10954   2.124   0.427  10.566 -0.8593 -0.1504 -0.1750
  107OSM    HNF10955   2.145   0.522  10.543 -0.8684 -0.5816 -1.9787
  107OSM    C2S10956   2.016   0.431  10.668 -0.4346 -0.7369 -0.5202
  107OSM    H2S10957   1.958   0.336  10.659  0.5303 -1.4699  0.6578
  107OSM    C3S10958   1.922   0.557  10.651 -0.2426 -0.1174  0.0604
  107OSM    H3S10959   1.981   0.651  10.655  0.6662 -0.6146 -1.3085
  107OSM     O310960   1.814   0.565  10.741 -0.3280 -0.3071 -0.3871
  107OSM    HO310961   1.844   0.494  10.799  1.1952 -0.4197 -1.2982
  107OSM    C4S10962   1.874   0.556  10.510  1.0044  0.6133 -0.1565
  107OSM    H4S10963   1.941   0.591  10.429 -0.4179  0.8987 -1.2444
  107OSM    C5S10964   1.754   0.510  10.465  0.8084  1.4047 -0.2793
  107OSM    H5S10965   1.685   0.476  10.544  2.3821  0.8808  0.8719
  107OSM    C6S10966   1.694   0.488  10.329  0.2120  0.6661  0.5209
  107OSM    H6S10967   1.596   0.538  10.314 -1.2712 -2.9089 -2.5559
  107OSM    H6T10968   1.674   0.379  10.325 -0.3994  0.8191 -0.8057
  107OSM    C7S10969   1.795   0.511  10.218  0.0234 -0.0318  0.1861
  107OSM    H7S10970   1.836   0.612  10.240 -0.0506 -0.0059  0.2029
  107OSM    H7T10971   1.744   0.513  10.120  0.6952 -1.1377 -0.2023
  107OSM    C8S10972   1.907   0.408  10.209 -0.5507  0.3104  0.4258
  107OSM    H8S10973   1.860   0.307  10.211 -1.1132  0.4809 -2.2586
  107OSM    H8T10974   1.968   0.411  10.302  0.4495 -0.2173 -0.2008
  107OSM    C9S10975   2.000   0.422  10.088  0.3094 -0.1121 -0.7842
  107OSM    H9S10976   2.077   0.342  10.096 -1.0008 -1.5327 -1.8562
  107OSM    H9T10977   2.052   0.520  10.093  1.3697 -0.7016 -0.1275
  107OSM   C10S10978   1.926   0.419   9.952  0.0697 -0.0414  0.3711
  107OSM   H10S10979   1.851   0.501   9.945 -0.0848 -0.1821  0.3976
  107OSM   H10T10980   1.884   0.318   9.932 -0.8114  0.6033 -1.1119
  107OSM   C11S10981   2.013   0.429   9.830  0.4945  0.3658 -0.5657
  107OSM   H11S10982   2.096   0.356   9.842  0.9927  0.9312 -0.5501
  107OSM   H11T10983   2.064   0.528   9.829 -1.0861  1.2779  2.5724
  107OSM   C12S10984   1.934   0.407   9.706  0.0943 -0.0250 -0.2604
  107OSM   H12S10985   1.868   0.496   9.694 -1.2435 -0.6587  2.0453
  107OSM   H12T10986   1.878   0.310   9.704 -1.0520  0.6412 -1.2390
  107OSM   C13S10987   2.032   0.396   9.586  0.4714 -0.4383 -0.0189
  107OSM   H13S10988   2.093   0.304   9.599  1.1518 -0.3176 -2.1091
  107OSM   H13T10989   2.110   0.475   9.587  1.5897 -1.5269  0.1189
  107OSM   C14S10990   1.974   0.415   9.455 -0.1791 -0.0363 -0.3229
  107OSM   H14S10991   1.920   0.512   9.447 -1.0953 -0.5859 -0.9333
  107OSM   H14T10992   1.896   0.337   9.438 -1.0080  0.7250 -0.0556
  107OSM   C15S10993   2.080   0.401   9.345 -0.0555  0.0360 -0.5742
  107OSM   H15S10994   2.122   0.299   9.357 -0.0066  0.1869  0.5709
  107OSM   H15T10995   2.161   0.473   9.368 -0.2888  0.5281 -1.2679
  107OSM   C16S10996   2.014   0.426   9.207 -0.4631  0.0579  0.4075
  107OSM   H16S10997   1.973   0.529   9.203  2.5675  1.2358 -1.9404
  107OSM   H16T10998   1.928   0.364   9.175 -0.9714  1.2368 -0.5624
  107OSM   C17S10999   2.123   0.425   9.092 -0.4814  0.4100 -0.4822
  107OSM   H17S11000   2.215   0.453   9.149 -1.0659  0.0630  0.6345
  107OSM   H17T11001   2.101   0.514   9.028 -0.8076 -0.2873 -1.3418
  107OSM   C18S11002   2.135   0.301   9.001 -0.6327 -0.2996  0.3693
  107OSM   H18S11003   2.065   0.227   9.045 -0.4772  1.2656  3.3312
  107OSM   H18T11004   2.236   0.256   8.997 -0.8478 -0.8605  1.1919
  107OSM   H18U11005   2.096   0.331   8.901 -0.5193  0.9564  0.6961
  107OSM    C1F11006   2.208   0.323  10.556  0.8137 -0.4928  0.0507
  107OSM     OF11007   2.172   0.214  10.592  0.6331 -0.2729 -0.5633
  107OSM    C2F11008   2.347   0.333  10.503 -0.4597 -0.4809 -0.8287
  107OSM    H2F11009   2.414   0.322  10.591 -2.4019 -1.1156  0.6069
  107OSM    H2G11010   2.354   0.438  10.467 -2.0473  0.0272  0.2403
  107OSM    C3F11011   2.375   0.220  10.402  0.8386 -0.7328 -0.4474
  107OSM    H3F11012   2.391   0.125  10.458 -2.0548  0.6198  2.8402
  107OSM    H3G11013   2.465   0.230  10.337  0.5053 -0.6893 -0.8993
  107OSM    C4F11014   2.252   0.187  10.303 -0.3539 -0.1535 -0.2902
  107OSM    H4F11015   2.229   0.276  10.241 -0.2973  1.4597  1.9178
  107OSM    H4G11016   2.166   0.166  10.370  0.6904 -1.1877  0.7635
  107OSM    C5F11017   2.285   0.071  10.209  0.4128  0.1673 -0.1033
  107OSM    H5F11018   2.188   0.034  10.170 -0.0173  2.0166 -0.8614
  107OSM    H5G11019   2.331  -0.016  10.260  0.4219  0.0478 -0.3154
  107OSM    C6F11020   2.386   0.110  10.097  0.2407 -0.1229 -0.1227
  107OSM    H6F11021   2.488   0.129  10.138  0.2145  0.4441 -0.3197
  107OSM    H6G11022   2.359   0.214  10.072 -3.2196 -0.9872 -0.1738
  107OSM    C7F11023   2.392   0.022   9.971 -0.4151 -0.5208 -0.3953
  107OSM    H7F11024   2.287   0.025   9.934 -1.0932  0.3298  1.5138
  107OSM    H7G11025   2.436  -0.076   9.997  1.6679  0.3166 -0.6874
  107OSM    C8F11026   2.472   0.103   9.867  0.0536  0.4138  0.2254
  107OSM    H8F11027   2.563   0.153   9.907  0.5564 -0.4064  0.1358
  107OSM    H8G11028   2.427   0.197   9.830 -2.2172 -0.9125 -0.4311
  107OSM    C9F11029   2.522   0.015   9.760 -0.0284 -0.3212  0.2110
  107OSM    H9F11030   2.581  -0.072   9.795 -0.4811  0.4633  3.0132
  107OSM   C10F11031   2.507   0.029   9.626 -0.3817 -0.0415 -0.5577
  107OSM   H10F11032   2.554  -0.040   9.555  0.1043  2.0766 -2.3555
  107OSM   C11F11033   2.424   0.117   9.540  0.5293  0.1638  0.7312
  107OSM   H11F11034   2.497   0.165   9.471 -0.7474  0.4958 -0.4035
  107OSM   H11G11035   2.377   0.187   9.612 -1.5624  1.1750 -1.5371
  107OSM   C12F11036   2.320   0.048   9.451 -0.3806 -0.4653 -0.4108
  107OSM   H12F11037   2.250   0.123   9.407 -0.2892 -0.8753 -1.2706
  107OSM   H12G11038   2.262  -0.020   9.517 -0.2500  2.0417  2.3782
  107OSM   C13F11039   2.383  -0.039   9.337 -0.0181 -0.5912  0.4634
  107OSM   H13F11040   2.320  -0.128   9.316 -1.4126  0.9370 -2.0764
  107OSM   H13G11041   2.483  -0.086   9.349  0.4592 -0.0652 -1.1975
  107OSM   C14F11042   2.389   0.039   9.207 -0.1786  0.3367 -0.4003
  107OSM   H14F11043   2.463   0.120   9.221 -1.4550  1.0580  2.4470
  107OSM   H14G11044   2.289   0.086   9.193 -0.7191 -0.4329  0.7466
  107OSM   C15F11045   2.429  -0.031   9.080  0.2047  0.3090 -0.3963
  107OSM   H15F11046   2.343  -0.094   9.050  0.1888 -0.7479  1.8167
  107OSM   H15G11047   2.517  -0.097   9.096  0.8344  1.5009  1.0465
  107OSM   C16F11048   2.457   0.058   8.958 -0.4222  0.6819  0.1044
  107OSM   H16F11049   2.518   0.146   8.989 -0.1003  0.5650 -0.1889
  107OSM   H16G11050   2.366   0.108   8.918 -1.0209 -1.0343 -0.7053
  107OSM   C17F11051   2.547  -0.009   8.850  0.4138 -0.2705 -0.0544
  107OSM   H17F11052   2.596  -0.094   8.902  3.2743  0.8531 -0.8002
  107OSM   H17G11053   2.629   0.057   8.813 -0.5611  0.4940 -0.8843
  107OSM   C18F11054   2.471  -0.054   8.723 -0.2440  0.9295 -0.0099
  107OSM   H18F11055   2.404   0.026   8.684 -2.1167 -1.5800 -2.0805
  107OSM   H18G11056   2.404  -0.137   8.752 -1.3545  1.8607  0.1134
  107OSM   H18H11057   2.545  -0.075   8.642  0.5406 -1.8516  1.3901
  108OSM      N11058   5.900   4.974  10.669 -0.8024  0.2811 -0.2232
  108OSM    C1511059   5.877   5.040  10.534 -0.7739  0.4317  0.6532
  108OSM   H15A11060   5.968   5.089  10.500 -1.4516  0.4626 -1.2068
  108OSM   H15B11061   5.807   5.121  10.545  0.9349  2.1854 -0.9842
  108OSM   H15C11062   5.848   4.970  10.457  1.3737  0.1230  0.0754
  108OSM    C1411063   6.000   4.867  10.656  0.3031 -0.1171  0.3784
  108OSM   H14A11064   5.979   4.793  10.581 -1.7843 -0.3197  1.1435
  108OSM   H14B11065   6.013   4.817  10.751 -0.9413 -2.8612 -0.8560
  108OSM   H14C11066   6.099   4.903  10.630 -0.4681  2.0031  0.2533
  108OSM    C1311067   5.942   5.084  10.759  0.9781 -0.2448 -0.1107
  108OSM   H13A11068   5.864   5.152  10.791  1.9155  1.2259 -0.9175
  108OSM   H13B11069   6.026   5.141  10.721  2.2842 -2.1269 -0.0900
  108OSM   H13C11070   5.978   5.040  10.851  2.0628  1.0937  0.1263
  108OSM    C1211071   5.765   4.922  10.719 -0.3286  0.3282 -0.4069
  108OSM   H12A11072   5.722   4.866  10.637 -0.2755  0.8260 -0.7798
  108OSM   H12B11073   5.703   5.011  10.721  0.3013  0.7643  2.9051
  108OSM    C1111074   5.759   4.849  10.858 -0.1172  1.3089  0.4156
  108OSM   H11A11075   5.655   4.846  10.897 -0.0273  0.6330  0.6082
  108OSM   H11B11076   5.825   4.895  10.935  1.2772  0.3562 -0.2010
  108OSM      P11077   5.724   4.587  10.860 -0.0314  0.1167 -0.1677
  108OSM    O1311078   5.817   4.471  10.873 -0.1272 -0.0902  0.2110
  108OSM    O1411079   5.617   4.595  10.961  0.0394  0.2233 -0.7729
  108OSM    O1111080   5.650   4.579  10.722  0.3453 -0.4268 -0.5000
  108OSM    O1211081   5.809   4.720  10.842  0.6913  0.9164 -0.3830
  108OSM    C1S11082   5.548   4.667  10.668 -0.1256  0.1280  0.8961
  108OSM    H1S11083   5.562   4.777  10.682 -1.7229  0.6039 -0.9713
  108OSM    H1T11084   5.452   4.649  10.721  0.1152  0.3844  1.4140
  108OSM     NF11085   5.439   4.728  10.450  0.2779  0.1161 -0.1726
  108OSM    HNF11086   5.342   4.710  10.442  0.1055 -0.0685  2.1233
  108OSM    C2S11087   5.518   4.632  10.517 -0.0550  0.0746 -0.5694
  108OSM    H2S11088   5.610   4.617  10.457  1.4276  2.4198  1.0697
  108OSM    C3S11089   5.439   4.493  10.507 -0.8168 -0.6576 -0.1557
  108OSM    H3S11090   5.335   4.511  10.542 -0.6860  1.2477 -0.6885
  108OSM     O311091   5.496   4.400  10.605  0.1878  0.1587  0.4310
  108OSM    HO311092   5.551   4.460  10.655 -2.3588  1.7709  1.4422
  108OSM    C4S11093   5.422   4.438  10.365 -0.1264 -0.2498  0.4588
  108OSM    H4S11094   5.345   4.485  10.302  0.4478 -1.3048 -1.0503
  108OSM    C5S11095   5.507   4.346  10.311 -0.0536 -0.8634 -0.8263
  108OSM    H5S11096   5.585   4.297  10.372  0.6808  1.9599  0.5747
  108OSM    C6S11097   5.512   4.314  10.163  0.3911  0.0223  0.6124
  108OSM    H6S11098   5.490   4.207  10.148  0.8109 -0.1104  0.9326
  108OSM    H6T11099   5.616   4.333  10.128  1.0314 -1.5041  1.6426
  108OSM    C7S11100   5.409   4.387  10.077  0.4874  0.2328  0.1849
  108OSM    H7S11101   5.431   4.496  10.081 -0.5721  0.4435  0.4675
  108OSM    H7T11102   5.310   4.371  10.126  0.8534  0.4135  0.9891
  108OSM    C8S11103   5.400   4.348   9.934  0.8597  1.0490 -0.2291
  108OSM    H8S11104   5.367   4.243   9.923 -2.4704  2.0248 -0.2087
  108OSM    H8T11105   5.502   4.359   9.891  1.5868 -0.3831  1.0863
  108OSM    C9S11106   5.294   4.426   9.860 -0.4878  0.2132  0.2798
  108OSM    H9S11107   5.312   4.533   9.886  2.8449  0.0433 -1.0754
  108OSM    H9T11108   5.188   4.409   9.887 -0.4328 -2.1130 -0.8280
  108OSM   C10S11109   5.295   4.385   9.712  0.4272 -0.1324 -0.3745
  108OSM   H10S11110   5.306   4.274   9.705  4.1636  0.1511 -0.2908
  108OSM   H10T11111   5.388   4.431   9.671  1.1065 -1.9719 -0.9486
  108OSM   C11S11112   5.173   4.434   9.633 -0.5762 -0.2777  0.1377
  108OSM   H11S11113   5.166   4.540   9.666  0.8370 -1.1123  3.2900
  108OSM   H11T11114   5.086   4.379   9.674 -0.8083  1.5058  2.1140
  108OSM   C12S11115   5.186   4.437   9.480  0.0262 -0.0306 -0.3583
  108OSM   H12S11116   5.214   4.336   9.444  0.2921  0.2597 -0.9814
  108OSM   H12T11117   5.264   4.513   9.455 -1.1434  0.4788 -2.5878
  108OSM   C13S11118   5.056   4.481   9.406 -0.0576  0.2315 -0.3433
  108OSM   H13S11119   5.033   4.584   9.440  0.8510  0.1559  0.5654
  108OSM   H13T11120   4.971   4.424   9.448 -2.1597  2.8627 -0.9263
  108OSM   C14S11121   5.059   4.468   9.255 -0.1570  0.1424 -0.1340
  108OSM   H14S11122   5.078   4.359   9.246  1.2298  0.6109 -3.4570
  108OSM   H14T11123   5.152   4.520   9.223  1.1829 -2.0324  0.1215
  108OSM   C15S11124   4.921   4.501   9.186  0.7010 -0.3388 -0.6268
  108OSM   H15S11125   4.926   4.612   9.192  0.9241 -0.3046 -1.3754
  108OSM   H15T11126   4.838   4.468   9.251  0.7701 -1.2530 -0.9852
  108OSM   C16S11127   4.893   4.461   9.043 -0.2383 -0.3361 -0.1146
  108OSM   H16S11128   4.784   4.445   9.037 -0.7785  2.2652  1.7362
  108OSM   H16T11129   4.938   4.360   9.030 -1.8488 -1.2419  1.1726
  108OSM   C17S11130   4.933   4.573   8.943 -0.4247 -0.2078 -0.7271
  108OSM   H17S11131   5.040   4.603   8.943 -0.6126  0.5851  2.0507
  108OSM   H17T11132   4.877   4.663   8.977 -0.5259 -0.6842  0.3943
  108OSM   C18S11133   4.892   4.537   8.797  0.8929  0.3753  0.4031
  108OSM   H18S11134   4.781   4.541   8.787  1.0497 -0.6338 -2.0806
  108OSM   H18T11135   4.922   4.435   8.766  0.9254  0.3979  0.3610
  108OSM   H18U11136   4.943   4.602   8.723  0.9435 -0.8208 -0.6294
  108OSM    C1F11137   5.497   4.853  10.427  0.1645  0.2930 -0.0139
  108OSM     OF11138   5.606   4.871  10.460  0.4416 -0.2326 -0.8024
  108OSM    C2F11139   5.408   4.956  10.354  0.0348 -0.3061  0.3786
  108OSM    H2F11140   5.331   4.984  10.429 -1.3320 -1.0087 -0.7595
  108OSM    H2G11141   5.359   4.915  10.264  0.2035 -1.7733  0.9466
  108OSM    C3F11142   5.498   5.087  10.319 -0.1782  0.5848  0.4311
  108OSM    H3F11143   5.607   5.062  10.315 -0.7154 -1.9786  0.8157
  108OSM    H3G11144   5.479   5.156  10.403 -0.4742 -0.4079  1.1824
  108OSM    C4F11145   5.458   5.143  10.183  0.2532 -0.2250  0.2509
  108OSM    H4F11146   5.484   5.249  10.163 -1.5195  0.3772  1.0449
  108OSM    H4G11147   5.348   5.133  10.173  0.4080  0.4143 -2.5346
  108OSM    C5F11148   5.509   5.070  10.060  0.6553  0.1661 -0.3077
  108OSM    H5F11149   5.498   4.960  10.070  2.6009 -0.0327 -0.1986
  108OSM    H5G11150   5.619   5.082  10.046  0.2000  2.4457 -2.1890
  108OSM    C6F11151   5.432   5.115   9.937 -0.5460 -0.3516 -0.0420
  108OSM    H6F11152   5.420   5.225   9.928 -2.3652 -0.5588 -0.3347
  108OSM    H6G11153   5.327   5.079   9.946  0.0744 -2.3091 -0.3467
  108OSM    C7F11154   5.492   5.061   9.803  0.1011 -0.5038 -0.0490
  108OSM    H7F11155   5.514   4.952   9.805 -2.3109 -0.9922  1.7101
  108OSM    H7G11156   5.590   5.109   9.779 -0.2141 -0.0539 -0.4480
  108OSM    C8F11157   5.389   5.096   9.689 -0.4765 -0.5072 -1.1346
  108OSM    H8F11158   5.352   5.197   9.715  0.4256 -0.6625  0.8091
  108OSM    H8G11159   5.296   5.039   9.710 -0.1775 -0.8791 -0.8298
  108OSM    C9F11160   5.441   5.096   9.542  0.4567 -0.9012  0.5369
  108OSM    H9F11161   5.531   5.154   9.515 -1.8296  2.4586 -0.1188
  108OSM   C10F11162   5.374   5.036   9.441 -0.4518  0.5763 -0.2391
  108OSM   H10F11163   5.410   5.033   9.337  1.4320 -0.8216  0.4040
  108OSM   C11F11164   5.245   4.972   9.456 -0.2867 -0.5675  0.4582
  108OSM   H11F11165   5.162   5.042   9.476 -0.7652 -1.2845  1.0144
  108OSM   H11G11166   5.238   4.912   9.549 -0.7979 -0.3502  0.5583
  108OSM   C12F11167   5.208   4.875   9.332  0.4075  0.5015 -0.0862
  108OSM   H12F11168   5.121   4.819   9.374  0.3940  0.9222  0.4439
  108OSM   H12G11169   5.284   4.796   9.311 -1.4891 -0.8793 -1.9790
  108OSM   C13F11170   5.179   4.940   9.201  0.0884 -0.6132  0.0824
  108OSM   H13F11171   5.269   5.001   9.179  0.6291 -0.9296  1.4024
  108OSM   H13G11172   5.094   5.011   9.207 -0.4146 -0.9194 -2.5584
  108OSM   C14F11173   5.154   4.843   9.080  0.6371  0.9612  0.6755
  108OSM   H14F11174   5.093   4.758   9.117 -0.3987  1.5343  0.2879
  108OSM   H14G11175   5.250   4.798   9.045  0.1445  0.0928  0.4331
  108OSM   C15F11176   5.080   4.900   8.959  0.5571  0.1191  0.0232
  108OSM   H15F11177   4.992   4.951   9.002  0.4872 -0.5877  0.7297
  108OSM   H15G11178   5.035   4.827   8.889  2.2501  1.4546 -2.5348
  108OSM   C16F11179   5.170   5.001   8.887 -0.3055  0.5683 -0.3083
  108OSM   H16F11180   5.249   4.943   8.836 -0.0630  0.1063  0.5742
  108OSM   H16G11181   5.223   5.072   8.954 -2.0737  1.4734  0.1661
  108OSM   C17F11182   5.094   5.075   8.775 -0.1658 -0.0969 -0.2481
  108OSM   H17F11183   5.012   5.142   8.808 -0.0151  1.7488 -3.4097
  108OSM   H17G11184   5.046   4.991   8.719  1.2841 -0.2850 -1.2487
  108OSM   C18F11185   5.189   5.153   8.691 -0.6399  0.1377  0.4819
  108OSM   H18F11186   5.135   5.229   8.630 -0.4235  0.4085  0.6260
  108OSM   H18G11187   5.257   5.086   8.633 -0.5489  0.7701 -0.1538
  108OSM   H18H11188   5.249   5.213   8.763 -0.2083 -0.7434  0.8654
  109OSM      N11189   6.248   5.605  10.805 -0.5472 -0.4853 -0.2297
  109OSM    C1511190   6.249   5.591  10.953  0.0213 -0.6148  0.0542
  109OSM   H15A11191   6.250   5.486  10.980  1.0515 -1.3391 -2.6733
  109OSM   H15B11192   6.173   5.641  11.011  0.0350  0.0993 -0.5446
  109OSM   H15C11193   6.332   5.653  10.984 -0.0730  2.2220 -4.9497
  109OSM    C1411194   6.380   5.561  10.752  0.1709  0.4239 -0.4115
  109OSM   H14A11195   6.460   5.616  10.800  1.9574 -0.5386 -2.2293
  109OSM   H14B11196   6.392   5.578  10.646  2.5677  2.8197  0.1892
  109OSM   H14C11197   6.403   5.459  10.780  1.3514  1.1770  1.5054
  109OSM    C1311198   6.147   5.522  10.743  0.0941 -0.1807  0.0933
  109OSM   H13A11199   6.124   5.545  10.640  1.1070  0.9357  0.0986
  109OSM   H13B11200   6.051   5.531  10.791 -0.4855  1.3285 -1.3188
  109OSM   H13C11201   6.177   5.419  10.748  2.4435  0.5087  1.0990
  109OSM    C1211202   6.226   5.748  10.767 -0.1715 -0.0831 -0.9430
  109OSM   H12A11203   6.315   5.800  10.800  1.4569 -2.9787 -0.5201
  109OSM   H12B11204   6.147   5.795  10.824  2.4512  1.4018  1.6263
  109OSM    C1111205   6.220   5.779  10.612 -0.0181  0.7469 -0.5107
  109OSM   H11A11206   6.285   5.717  10.547 -0.8565 -1.7050  0.9285
  109OSM   H11B11207   6.261   5.881  10.598 -0.3563  1.3819  2.8073
  109OSM      P11208   5.981   5.870  10.593 -0.4764 -0.2730 -0.1540
  109OSM    O1311209   5.850   5.806  10.609  0.2380 -0.3874 -0.1787
  109OSM    O1411210   6.032   5.952  10.701 -0.0031 -0.0729 -0.7735
  109OSM    O1111211   5.981   5.957  10.461  0.0338 -0.2918  0.0456
  109OSM    O1211212   6.088   5.756  10.555  0.3029  0.1600 -0.3216
  109OSM    C1S11213   6.087   6.052  10.424 -0.3064  0.1166 -0.0468
  109OSM    H1S11214   6.190   6.014  10.437 -1.2324 -1.7940  2.2048
  109OSM    H1T11215   6.086   6.141  10.491 -2.4403  0.2431 -0.2015
  109OSM     NF11216   6.186   6.179  10.228  0.4469  0.2408 -0.2603
  109OSM    HNF11217   6.185   6.277  10.245  0.2165  0.1723  0.1470
  109OSM    C2S11218   6.068   6.108  10.275  0.7033  0.7013 -0.3624
  109OSM    H2S11219   6.043   6.027  10.202 -0.6498 -0.4821  1.3873
  109OSM    C3S11220   5.944   6.204  10.273  0.0950 -0.1813  0.3050
  109OSM    H3S11221   5.970   6.298  10.325  1.4375  0.3574 -1.3058
  109OSM     O311222   5.827   6.157  10.343  0.1096 -0.2331  0.0366
  109OSM    HO311223   5.855   6.077  10.389  0.1293 -1.0800 -1.4252
  109OSM    C4S11224   5.902   6.231  10.115  0.4836 -0.2531  0.5173
  109OSM    H4S11225   5.843   6.157  10.059 -0.3870  2.1746 -1.8774
  109OSM    C5S11226   5.945   6.342  10.048 -0.3731 -0.1206  0.4868
  109OSM    H5S11227   6.019   6.411  10.090  0.9605 -2.0123  1.3222
  109OSM    C6S11228   5.915   6.358   9.902  0.0689  0.4496  0.1499
  109OSM    H6S11229   5.977   6.444   9.871  0.6539 -0.8933 -2.5552
  109OSM    H6T11230   5.807   6.383   9.899 -0.3623 -0.8653  2.8631
  109OSM    C7S11231   5.953   6.244   9.807  0.5015  0.0670 -0.2539
  109OSM    H7S11232   5.869   6.172   9.813  1.7485 -1.2975  1.3403
  109OSM    H7T11233   6.048   6.193   9.830  0.1415  0.4745  2.3078
  109OSM    C8S11234   5.948   6.289   9.656 -0.3050 -0.2867  0.9944
  109OSM    H8S11235   6.023   6.369   9.641  0.0226 -0.6395  0.7734
  109OSM    H8T11236   5.851   6.341   9.640  0.6532  1.3213  0.3787
  109OSM    C9S11237   5.973   6.173   9.565 -0.4652 -0.0472 -1.0180
  109OSM    H9S11238   5.880   6.111   9.568 -0.8500  0.5941  1.2257
  109OSM    H9T11239   6.062   6.118   9.602 -0.4244  1.3969  1.1077
  109OSM   C10S11240   5.998   6.203   9.419 -0.2931 -0.6355  0.1618
  109OSM   H10S11241   6.078   6.277   9.403 -0.4459 -0.5605 -0.2425
  109OSM   H10T11242   5.902   6.246   9.383 -0.6848 -1.6842 -0.0853
  109OSM   C11S11243   6.020   6.081   9.334 -0.1442 -0.0314  0.4414
  109OSM   H11S11244   5.948   5.998   9.349 -1.2852  0.6830 -0.9563
  109OSM   H11T11245   6.124   6.046   9.351 -0.2975 -1.8082 -1.9662
  109OSM   C12S11246   6.007   6.119   9.186  0.0434  0.6289  0.4231
  109OSM   H12S11247   6.078   6.199   9.157 -1.6614  1.0223 -2.9008
  109OSM   H12T11248   5.902   6.144   9.157  0.6693 -0.1863 -2.7104
  109OSM   C13S11249   6.058   6.006   9.086  0.7924 -0.0068  0.0156
  109OSM   H13S11250   5.998   5.913   9.089 -1.0796  1.1513 -0.8867
  109OSM   H13T11251   6.163   5.982   9.113  1.5530 -0.2001 -2.8947
  109OSM   C14S11252   6.044   6.055   8.936 -0.2006 -0.0628  0.4209
  109OSM   H14S11253   6.101   5.983   8.874 -2.0932  0.4732 -2.0100
  109OSM   H14T11254   6.088   6.155   8.915  0.8438 -0.8158 -1.0749
  109OSM   C15S11255   5.908   6.059   8.883 -0.0740  0.1418  0.8128
  109OSM   H15S11256   5.882   6.161   8.919  1.9235  1.3839 -1.1636
  109OSM   H15T11257   5.849   5.974   8.923 -0.4494 -0.3255 -0.7062
  109OSM   C16S11258   5.920   6.066   8.733  0.1805  0.0271  0.0087
  109OSM   H16S11259   5.968   5.973   8.697 -0.2678 -0.2354  0.0819
  109OSM   H16T11260   5.983   6.149   8.696 -1.6761  1.6114  0.2821
  109OSM   C17S11261   5.788   6.086   8.661 -0.3345 -0.0904  0.2524
  109OSM   H17S11262   5.721   6.166   8.701 -0.0606 -0.2675  1.0714
  109OSM   H17T11263   5.720   5.999   8.647  0.7763 -1.1516  1.3708
  109OSM   C18S11264   5.813   6.109   8.509  0.2874  0.1837  0.2489
  109OSM   H18S11265   5.849   6.012   8.468 -0.4600 -0.4644  1.0962
  109OSM   H18T11266   5.896   6.178   8.485  1.6261 -0.8536  1.7665
  109OSM   H18U11267   5.715   6.137   8.465  0.4591 -0.1274 -0.3316
  109OSM    C1F11268   6.303   6.121  10.214 -0.3548  0.9334 -0.0571
  109OSM     OF11269   6.309   5.998  10.204  0.1850  0.3263  0.4347
  109OSM    C2F11270   6.425   6.209  10.219  0.1252 -0.0539  0.1609
  109OSM    H2F11271   6.510   6.159  10.271 -0.5812 -1.2505  0.1990
  109OSM    H2G11272   6.398   6.302  10.272 -0.3383 -0.0539 -0.0745
  109OSM    C3F11273   6.483   6.234  10.074  0.0985 -0.3850 -0.3277
  109OSM    H3F11274   6.527   6.137  10.040  0.4246 -0.4715  0.3272
  109OSM    H3G11275   6.564   6.310  10.069 -1.0464  0.7916 -1.0616
  109OSM    C4F11276   6.377   6.276   9.965 -0.4849 -0.3901  0.5619
  109OSM    H4F11277   6.368   6.387   9.966 -0.0713 -0.3328 -0.8856
  109OSM    H4G11278   6.275   6.235   9.974 -0.9572  0.5160 -0.4775
  109OSM    C5F11279   6.435   6.239   9.830 -0.2166  0.6244 -0.8382
  109OSM    H5F11280   6.450   6.130   9.817 -1.0343  0.5960 -1.6315
  109OSM    H5G11281   6.532   6.293   9.824  0.1952  0.2285  1.6971
  109OSM    C6F11282   6.353   6.284   9.702  0.3373  0.3723  0.3920
  109OSM    H6F11283   6.320   6.390   9.704 -1.3864 -0.1332 -0.3829
  109OSM    H6G11284   6.262   6.223   9.716 -1.2104  1.7128 -3.1202
  109OSM    C7F11285   6.432   6.242   9.573  0.0921  0.8020 -0.1440
  109OSM    H7F11286   6.450   6.133   9.561 -0.0602  0.7057  0.4789
  109OSM    H7G11287   6.536   6.282   9.569  0.9382 -1.1723  1.1774
  109OSM    C8F11288   6.373   6.309   9.440 -0.0678 -0.2161  0.0891
  109OSM    H8F11289   6.284   6.261   9.394 -2.1111  2.4170  1.1730
  109OSM    H8G11290   6.453   6.281   9.367  1.2900  1.7131  0.7765
  109OSM    C9F11291   6.346   6.461   9.446  0.7855  0.1971  0.2553
  109OSM    H9F11292   6.240   6.489   9.449  0.2407 -1.5382 -1.8293
  109OSM   C10F11293   6.429   6.548   9.392 -0.2863 -0.4552 -1.2170
  109OSM   H10F11294   6.412   6.655   9.411 -0.4550 -0.9462  1.6425
  109OSM   C11F11295   6.571   6.518   9.344 -0.1358  0.5584  0.8567
  109OSM   H11F11296   6.624   6.435   9.394 -1.0311  0.6954  2.0611
  109OSM   H11G11297   6.633   6.610   9.351 -0.0058  0.3036  3.2690
  109OSM   C12F11298   6.568   6.477   9.193 -0.4240  0.1783 -0.4650
  109OSM   H12F11299   6.477   6.415   9.178  0.4841 -1.8277  1.9134
  109OSM   H12G11300   6.656   6.417   9.161 -0.6749 -0.5178  0.1252
  109OSM   C13F11301   6.558   6.607   9.111 -0.1023  0.3180 -0.2555
  109OSM   H13F11302   6.655   6.657   9.133 -0.7322  0.5086  2.2717
  109OSM   H13G11303   6.469   6.671   9.131 -0.3094  0.3356 -1.1823
  109OSM   C14F11304   6.547   6.572   8.965 -0.1595 -0.2240 -0.0864
  109OSM   H14F11305   6.438   6.562   8.947 -0.0980 -0.1649 -0.5168
  109OSM   H14G11306   6.597   6.475   8.944 -0.8940 -0.4920 -0.6389
  109OSM   C15F11307   6.619   6.680   8.883  0.3858 -0.3967 -0.7284
  109OSM   H15F11308   6.727   6.687   8.911 -0.3666  2.1086  1.8173
  109OSM   H15G11309   6.561   6.775   8.883  0.7123 -0.1677  1.2676
  109OSM   C16F11310   6.613   6.640   8.736 -0.1742  0.8608  0.3749
  109OSM   H16F11311   6.512   6.647   8.691 -0.8448 -2.8738  1.0907
  109OSM   H16G11312   6.626   6.530   8.744 -0.1025  0.7717 -0.8456
  109OSM   C17F11313   6.731   6.675   8.645  0.2641  0.2130 -0.1213
  109OSM   H17F11314   6.741   6.625   8.546  0.6853 -2.3736  1.1986
  109OSM   H17G11315   6.825   6.667   8.703 -0.0007  0.8687  0.4030
  109OSM   C18F11316   6.724   6.828   8.598 -0.0929  0.1960  0.1545
  109OSM   H18F11317   6.724   6.888   8.692 -2.7590  0.4558  0.0381
  109OSM   H18G11318   6.631   6.857   8.544  0.0642  0.7115  0.1553
  109OSM   H18H11319   6.807   6.861   8.534 -2.0031  1.0410 -1.9457
  110OSM      N11320   0.946   4.829  11.325  0.1593 -0.0500 -0.0434
  110OSM    C1511321   0.821   4.909  11.306 -0.4592  0.4001  0.1806
  110OSM   H15A11322   0.847   4.995  11.246 -3.1171  2.1399  1.4662
  110OSM   H15B11323   0.790   4.950  11.401  1.9011  2.0694  0.2721
  110OSM   H15C11324   0.740   4.862  11.252  0.2743  0.4360 -0.9808
  110OSM    C1411325   1.054   4.925  11.353  0.0769  0.8979 -0.1066
  110OSM   H14A11326   1.038   4.978  11.446  0.0156 -1.9584  1.5911
  110OSM   H14B11327   1.063   4.991  11.269 -0.4080  0.3562 -0.5886
  110OSM   H14C11328   1.151   4.878  11.355 -0.4212 -0.2333 -1.5239
  110OSM    C1311329   0.926   4.740  11.437  0.0819  0.2341  0.1728
  110OSM   H13A11330   1.025   4.720  11.475  0.8094  1.3049 -1.1267
  110OSM   H13B11331   0.873   4.651  11.407 -0.6642  1.1562 -1.2690
  110OSM   H13C11332   0.871   4.781  11.521  0.8991 -0.8351  1.2426
  110OSM    C1211333   0.979   4.754  11.191  0.1363  0.8239 -0.1254
  110OSM   H12A11334   0.911   4.670  11.190  0.2670  0.7143  0.1466
  110OSM   H12B11335   1.080   4.720  11.206 -0.6513 -1.5478 -0.0138
  110OSM    C1111336   0.976   4.841  11.062  0.0308  0.6406 -0.3216
  110OSM   H11A11337   0.874   4.881  11.047  0.7686  1.8321 -2.3012
  110OSM   H11B11338   0.988   4.776  10.973  3.2275  1.7844 -0.7952
  110OSM      P11339   1.216   4.922  11.046  0.0140  0.0458 -0.0916
  110OSM    O1311340   1.298   5.036  11.101  0.4186 -0.3734 -0.6039
  110OSM    O1411341   1.250   4.791  11.096  0.0672 -0.0565 -0.6482
  110OSM    O1111342   1.235   4.916  10.888 -0.0419 -0.2427 -0.2225
  110OSM    O1211343   1.067   4.955  11.068 -0.2381  0.0351 -0.1112
  110OSM    C1S11344   1.158   4.995  10.802  0.6432  0.9919 -0.6128
  110OSM    H1S11345   1.215   5.090  10.794  0.5425  1.3044  2.0647
  110OSM    H1T11346   1.060   5.011  10.852 -0.2870  5.0274 -3.4460
  110OSM     NF11347   1.030   5.017  10.588  0.2027  0.5140  0.4279
  110OSM    HNF11348   0.939   4.978  10.576  0.3781 -0.1804  1.2524
  110OSM    C2S11349   1.123   4.934  10.664 -0.0943  0.7550 -0.0574
  110OSM    H2S11350   1.219   4.925  10.609  1.0040 -0.3648  1.9865
  110OSM    C3S11351   1.076   4.790  10.675 -0.8388 -0.7282 -0.2685
  110OSM    H3S11352   0.976   4.773  10.721 -0.8626  1.3740  0.4861
  110OSM     O311353   1.159   4.704  10.755 -0.4609  0.0879  0.4461
  110OSM    HO311354   1.219   4.766  10.797  0.2782 -0.6894  0.5556
  110OSM    C4S11355   1.071   4.738  10.530  0.9115 -0.0817  0.3546
  110OSM    H4S11356   0.966   4.752  10.500  0.6380 -1.9896  0.3994
  110OSM    C5S11357   1.167   4.683  10.448  0.2169  0.0799 -0.0865
  110OSM    H5S11358   1.264   4.649  10.487 -0.6879 -2.9279 -0.2666
  110OSM    C6S11359   1.149   4.626  10.306  0.0513  0.5878 -0.3052
  110OSM    H6S11360   1.164   4.516  10.308 -1.2957  0.4142  0.9597
  110OSM    H6T11361   1.227   4.670  10.240  1.0938 -0.1808  0.4041
  110OSM    C7S11362   1.019   4.657  10.239  0.4107  0.4075  0.1933
  110OSM    H7S11363   1.007   4.768  10.236  0.4196  0.3932 -0.4752
  110OSM    H7T11364   0.937   4.616  10.302  0.6542 -2.2597 -1.1659
  110OSM    C8S11365   0.986   4.602  10.101 -0.1567 -1.5507 -0.4892
  110OSM    H8S11366   0.949   4.499  10.123 -2.1444 -0.4097  1.7611
  110OSM    H8T11367   1.075   4.597  10.035 -1.0078 -0.6213 -1.7382
  110OSM    C9S11368   0.872   4.683  10.024  0.5043  0.1800 -0.4249
  110OSM    H9S11369   0.899   4.791  10.019 -2.2029  0.8530 -1.1340
  110OSM    H9T11370   0.776   4.688  10.080  1.7166  0.4044  1.7048
  110OSM   C10S11371   0.839   4.617   9.890 -0.3440 -0.6020 -0.1716
  110OSM   H10S11372   0.747   4.668   9.854  0.0819  2.1379  2.3722
  110OSM   H10T11373   0.818   4.511   9.916  0.4637 -0.7543 -0.1104
  110OSM   C11S11374   0.943   4.613   9.776 -0.2359  0.2013 -0.1693
  110OSM   H11S11375   0.993   4.515   9.788  1.0163  0.8079 -0.3673
  110OSM   H11T11376   1.024   4.689   9.784  1.3889 -1.6504  1.4589
  110OSM   C12S11377   0.885   4.595   9.632  0.3868 -0.5558 -0.0359
  110OSM   H12S11378   0.792   4.534   9.626 -0.2095  0.4693 -1.5537
  110OSM   H12T11379   0.953   4.541   9.562  0.1966 -0.5155 -0.2540
  110OSM   C13S11380   0.850   4.727   9.563 -0.1891 -0.8358 -0.4652
  110OSM   H13S11381   0.941   4.790   9.545 -0.3409  0.4513  2.8776
  110OSM   H13T11382   0.787   4.800   9.618  2.9896  1.6006  0.1493
  110OSM   C14S11383   0.792   4.698   9.426  0.4838 -0.7751  0.1898
  110OSM   H14S11384   0.691   4.655   9.442 -0.5022  1.8101  1.2873
  110OSM   H14T11385   0.858   4.621   9.382  0.5599 -1.2404  1.1168
  110OSM   C15S11386   0.797   4.819   9.327 -0.6422  0.3496 -0.2614
  110OSM   H15S11387   0.905   4.840   9.314  0.4170 -3.0393  2.3704
  110OSM   H15T11388   0.738   4.904   9.366 -0.2269 -0.5125  2.3097
  110OSM   C16S11389   0.732   4.774   9.196  0.3941  0.3699  0.6591
  110OSM   H16S11390   0.622   4.770   9.211  0.0134 -2.5539 -2.3548
  110OSM   H16T11391   0.752   4.670   9.163 -1.3334  0.2199 -0.0015
  110OSM   C17S11392   0.768   4.874   9.082  0.3257 -0.0884 -0.1675
  110OSM   H17S11393   0.717   4.842   8.989  2.1259 -2.2325 -0.4711
  110OSM   H17T11394   0.875   4.847   9.064 -0.1130 -2.0812  0.0336
  110OSM   C18S11395   0.736   5.019   9.125  0.7958 -0.4188  0.1588
  110OSM   H18S11396   0.628   5.030   9.147  0.7300  1.7605 -1.1408
  110OSM   H18T11397   0.766   5.099   9.054 -1.0721 -0.5635 -0.8134
  110OSM   H18U11398   0.787   5.043   9.221  1.3580  1.0395 -0.4886
  110OSM    C1F11399   1.040   5.140  10.522 -0.5364 -0.3676  0.6663
  110OSM     OF11400   1.131   5.220  10.544 -0.1406  0.6456  0.6566
  110OSM    C2F11401   0.930   5.184  10.426 -0.0013  0.3085  0.8655
  110OSM    H2F11402   0.931   5.293  10.407 -0.2765  0.3690  1.1934
  110OSM    H2G11403   0.831   5.167  10.474 -0.9207  1.7916 -0.4629
  110OSM    C3F11404   0.945   5.109  10.297 -0.2561 -0.1046 -0.2714
  110OSM    H3F11405   0.956   5.002  10.326 -1.0410  0.3723  1.8833
  110OSM    H3G11406   1.043   5.134  10.252 -1.0967 -0.6361 -2.4937
  110OSM    C4F11407   0.828   5.135  10.203 -0.0254  0.3907  0.3403
  110OSM    H4F11408   0.820   5.243  10.176 -1.3766 -0.0527 -1.1197
  110OSM    H4G11409   0.734   5.103  10.251  0.8679 -0.7976  1.3197
  110OSM    C5F11410   0.843   5.061  10.075 -0.6550 -0.1872 -0.0448
  110OSM    H5F11411   0.831   4.954  10.103 -1.7061 -0.0937 -0.1094
  110OSM    H5G11412   0.949   5.078  10.047 -0.7800  0.0262 -0.3861
  110OSM    C6F11413   0.739   5.106   9.971  0.4691  0.8549 -0.7496
  110OSM    H6F11414   0.761   5.212   9.946 -0.3344  1.1528 -0.2231
  110OSM    H6G11415   0.635   5.088  10.006  0.5984  1.3317 -0.0956
  110OSM    C7F11416   0.755   5.036   9.835 -0.6394 -0.0579 -0.0743
  110OSM    H7F11417   0.802   4.936   9.848  1.1932  0.7613 -0.2667
  110OSM    H7G11418   0.830   5.088   9.772  0.4399  0.8244  1.8898
  110OSM    C8F11419   0.625   5.038   9.759  0.1684 -0.4706  0.1845
  110OSM    H8F11420   0.556   5.006   9.840  0.9995 -1.5696  0.4647
  110OSM    H8G11421   0.625   4.961   9.680 -1.3100  0.0400 -0.3207
  110OSM    C9F11422   0.582   5.175   9.723  0.3340  0.0164  0.0484
  110OSM    H9F11423   0.607   5.252   9.797  1.9460 -1.2402  0.8481
  110OSM   C10F11424   0.530   5.203   9.598  0.0510 -0.5016  0.5210
  110OSM   H10F11425   0.505   5.307   9.570  1.1929 -0.9521 -2.3113
  110OSM   C11F11426   0.498   5.105   9.492  1.1526 -0.3912  0.2023
  110OSM   H11F11427   0.473   5.001   9.522  0.3508  0.5001  2.8202
  110OSM   H11G11428   0.591   5.096   9.433  1.7684  2.8404  0.5731
  110OSM   C12F11429   0.395   5.158   9.385 -0.0184 -0.4108 -0.1382
  110OSM   H12F11430   0.297   5.177   9.433  0.7732  2.0751  0.6204
  110OSM   H12G11431   0.382   5.066   9.326  0.0364 -1.2503  1.1374
  110OSM   C13F11432   0.440   5.271   9.293 -0.6195  0.0169  1.0193
  110OSM   H13F11433   0.536   5.236   9.248 -0.7279  0.1413  0.6880
  110OSM   H13G11434   0.457   5.367   9.346 -2.9248  1.4360 -0.7086
  110OSM   C14F11435   0.348   5.296   9.168  0.4708  0.1145 -0.1187
  110OSM   H14F11436   0.244   5.303   9.204 -0.1288 -1.2317 -1.5280
  110OSM   H14G11437   0.360   5.204   9.106  0.4168  0.1185 -0.1365
  110OSM   C15F11438   0.383   5.419   9.096  0.0758  0.2596 -0.0649
  110OSM   H15F11439   0.492   5.430   9.074  0.3812 -0.1366  1.1623
  110OSM   H15G11440   0.364   5.494   9.176  2.5199  0.7276  0.1173
  110OSM   C16F11441   0.297   5.454   8.975  0.0779 -0.4855 -0.0710
  110OSM   H16F11442   0.186   5.448   8.978 -0.0628  1.4473 -0.7909
  110OSM   H16G11443   0.336   5.394   8.891 -0.0454 -0.5874 -0.0535
  110OSM   C17F11444   0.332   5.597   8.933 -0.0723  0.0270  0.0915
  110OSM   H17F11445   0.442   5.600   8.950  0.1826 -0.0904 -1.4852
  110OSM   H17G11446   0.277   5.676   8.989  2.6205  1.1783  1.2325
  110OSM   C18F11447   0.316   5.621   8.786 -0.2172 -0.5371  0.4421
  110OSM   H18F11448   0.411   5.591   8.737 -0.9171  0.6107 -1.7033
  110OSM   H18G11449   0.293   5.728   8.764  1.7922 -0.2504 -0.4045
  110OSM   H18H11450   0.232   5.560   8.747 -1.1601  1.3378 -0.5424
  111OSM      N11451   1.627   2.191  10.734 -0.5532 -0.2349 -0.0918
  111OSM    C1511452   1.482   2.175  10.766 -0.1053  0.3918  0.1796
  111OSM   H15A11453   1.468   2.112  10.853 -0.7387 -0.4974 -0.5530
  111OSM   H15B11454   1.423   2.131  10.687 -0.4865 -0.3770  0.8846
  111OSM   H15C11455   1.432   2.270  10.773 -0.0180  0.3491  1.3986
  111OSM    C1411456   1.647   2.215  10.580  0.8035  0.1777 -0.6593
  111OSM   H14A11457   1.602   2.311  10.562 -1.1420 -0.6286 -0.1366
  111OSM   H14B11458   1.588   2.152  10.515  0.3239 -0.0982  0.0396
  111OSM   H14C11459   1.751   2.230  10.552  1.1460 -1.1516 -0.1449
  111OSM    C1311460   1.692   2.289  10.824  0.6835 -0.2905 -0.1995
  111OSM   H13A11461   1.662   2.386  10.788  2.3830  0.6923  0.9407
  111OSM   H13B11462   1.800   2.281  10.829  1.0396  2.3063 -2.5148
  111OSM   H13C11463   1.651   2.275  10.923  0.3042  0.0579 -0.3062
  111OSM    C1211464   1.692   2.056  10.760  0.0269  0.1090 -0.4500
  111OSM   H12A11465   1.800   2.054  10.758  0.0068 -2.9612 -2.5821
  111OSM   H12B11466   1.673   1.999  10.670 -0.4136  0.4246 -0.5585
  111OSM    C1111467   1.647   1.983  10.887  0.4530 -0.2507 -0.6507
  111OSM   H11A11468   1.634   2.062  10.964  2.8565 -0.6631  0.2039
  111OSM   H11B11469   1.728   1.911  10.911  0.5806 -0.3235 -1.2985
  111OSM      P11470   1.502   1.790  10.783 -0.0926 -0.0388  0.2672
  111OSM    O1311471   1.557   1.677  10.859 -0.2255 -0.0547  0.3206
  111OSM    O1411472   1.361   1.782  10.749  0.4045  0.3029 -0.6599
  111OSM    O1111473   1.589   1.814  10.650 -0.1401 -0.0522 -0.2210
  111OSM    O1211474   1.522   1.913  10.869 -0.2745 -0.4650  0.0079
  111OSM    C1S11475   1.645   1.703  10.583 -0.2507 -0.3189  0.5391
  111OSM    H1S11476   1.628   1.607  10.636  4.2952 -0.4685  1.9851
  111OSM    H1T11477   1.755   1.719  10.575 -0.2941 -1.2411 -2.7398
  111OSM     NF11478   1.631   1.578  10.381 -0.2466  0.0906 -0.3402
  111OSM    HNF11479   1.715   1.570  10.328 -0.3930  1.9929 -0.8932
  111OSM    C2S11480   1.604   1.708  10.432  0.3297  0.9727 -0.6311
  111OSM    H2S11481   1.496   1.721  10.410 -0.1418 -2.1107 -0.2605
  111OSM    C3S11482   1.676   1.829  10.367 -0.5766  0.5877 -0.3654
  111OSM    H3S11483   1.785   1.811  10.376 -0.4488 -0.6573 -3.8335
  111OSM     O311484   1.638   1.957  10.421  0.8568  0.4235  0.1118
  111OSM    HO311485   1.616   1.939  10.513  1.0101 -0.8089 -0.0756
  111OSM    C4S11486   1.652   1.830  10.207  0.6058  0.5723  0.3464
  111OSM    H4S11487   1.735   1.779  10.155  0.5629  1.9140 -1.0441
  111OSM    C5S11488   1.546   1.893  10.151 -0.5030 -0.3965  0.2003
  111OSM    H5S11489   1.478   1.954  10.212  0.4163  0.2470  0.5935
  111OSM    C6S11490   1.530   1.888  10.004 -0.1565 -0.3070  0.2573
  111OSM    H6S11491   1.623   1.863   9.949 -0.3208  0.7750 -0.5311
  111OSM    H6T11492   1.502   1.991   9.973 -0.2505 -0.3144  0.3183
  111OSM    C7S11493   1.420   1.783   9.964  0.3558 -1.0033 -0.3698
  111OSM    H7S11494   1.331   1.803  10.028  0.8570 -0.5897  0.2004
  111OSM    H7T11495   1.452   1.679   9.984  1.3482 -0.5209  0.5890
  111OSM    C8S11496   1.377   1.793   9.818  0.8336 -0.3344 -0.0126
  111OSM    H8S11497   1.344   1.895   9.790  1.6533 -0.6886 -2.4076
  111OSM    H8T11498   1.287   1.730   9.801 -0.8398  1.4887  1.8066
  111OSM    C9S11499   1.481   1.763   9.710 -0.5966  0.2717  0.0902
  111OSM    H9S11500   1.491   1.652   9.717 -0.8612  0.2570  0.2231
  111OSM    H9T11501   1.580   1.806   9.738 -1.0451  2.4751 -1.5676
  111OSM   C10S11502   1.452   1.805   9.560 -0.2217 -0.3083  0.5767
  111OSM   H10S11503   1.444   1.915   9.554 -0.9984 -0.3907  0.0462
  111OSM   H10T11504   1.353   1.769   9.524  0.0979 -1.3454  0.7006
  111OSM   C11S11505   1.573   1.769   9.468  0.5560  0.3382 -0.3254
  111OSM   H11S11506   1.597   1.662   9.489 -0.3657  0.3725  1.0245
  111OSM   H11T11507   1.662   1.829   9.496  2.2305 -2.1307 -0.1535
  111OSM   C12S11508   1.543   1.772   9.314 -0.4596 -0.2304  0.1116
  111OSM   H12S11509   1.496   1.869   9.286 -0.9824 -0.6574 -0.5134
  111OSM   H12T11510   1.461   1.698   9.300 -0.6036  0.3900 -2.7287
  111OSM   C13S11511   1.664   1.744   9.219  0.0833  0.2246 -0.6388
  111OSM   H13S11512   1.704   1.641   9.234  1.6184  0.5495 -2.3490
  111OSM   H13T11513   1.750   1.810   9.244  0.0103  0.3809 -0.8082
  111OSM   C14S11514   1.616   1.770   9.076 -0.8017 -0.7582  0.9603
  111OSM   H14S11515   1.590   1.877   9.063  1.4427 -0.5146 -1.9742
  111OSM   H14T11516   1.519   1.717   9.062 -2.0168  1.9978 -1.5377
  111OSM   C15S11517   1.719   1.718   8.977  0.3421  0.3241  0.0777
  111OSM   H15S11518   1.717   1.608   8.964  0.6251  0.0543  2.0969
  111OSM   H15T11519   1.819   1.735   9.023  1.0194 -1.2021 -0.8173
  111OSM   C16S11520   1.711   1.768   8.832  0.6606  0.4595 -1.0879
  111OSM   H16S11521   1.711   1.879   8.826 -1.0908  0.5850  0.6067
  111OSM   H16T11522   1.608   1.740   8.802  0.1497  0.7208  0.3842
  111OSM   C17S11523   1.821   1.711   8.742 -0.5355  0.1688 -0.7715
  111OSM   H17S11524   1.832   1.604   8.767  0.5572  1.0349  2.9254
  111OSM   H17T11525   1.916   1.760   8.775 -0.0240 -2.6055  2.1249
  111OSM   C18S11526   1.789   1.735   8.592  0.0732 -0.2864  0.2149
  111OSM   H18S11527   1.691   1.687   8.575 -1.2711  2.6027 -0.5859
  111OSM   H18T11528   1.877   1.694   8.538  0.8536 -1.6631  2.4867
  111OSM   H18U11529   1.781   1.844   8.570  0.6421 -0.6894 -2.1377
  111OSM    C1F11530   1.561   1.469  10.414 -0.3905 -0.3766 -0.1363
  111OSM     OF11531   1.448   1.477  10.467 -0.0475  0.3114 -0.3074
  111OSM    C2F11532   1.625   1.333  10.389 -0.1692 -0.1529  0.5980
  111OSM    H2F11533   1.636   1.271  10.480 -1.5757 -2.1919 -0.5852
  111OSM    H2G11534   1.729   1.361  10.361 -1.1583  1.1489 -1.9320
  111OSM    C3F11535   1.561   1.251  10.267 -0.1951  0.3214 -0.3405
  111OSM    H3F11536   1.470   1.198  10.304 -0.8981  0.0921 -2.3398
  111OSM    H3G11537   1.639   1.181  10.230 -0.4003  0.3229 -0.7745
  111OSM    C4F11538   1.523   1.333  10.142  0.8089  0.0121 -0.8041
  111OSM    H4F11539   1.613   1.390  10.112  0.3579  2.9103  2.9830
  111OSM    H4G11540   1.451   1.410  10.175  0.4918 -1.4342  2.0905
  111OSM    C5F11541   1.473   1.255  10.026 -0.2959  0.1329 -0.4254
  111OSM    H5F11542   1.383   1.194  10.049 -0.5735 -0.0566 -1.9705
  111OSM    H5G11543   1.543   1.177   9.988  2.4022  2.5612 -0.6748
  111OSM    C6F11544   1.426   1.357   9.919  0.0458 -0.5394 -0.5138
  111OSM    H6F11545   1.515   1.408   9.878  0.4763  0.9053  2.1247
  111OSM    H6G11546   1.370   1.439   9.970 -1.0211 -1.2673 -0.5004
  111OSM    C7F11547   1.345   1.294   9.805  0.0581 -0.0782  0.5413
  111OSM    H7F11548   1.249   1.259   9.850 -1.7532 -0.3090 -3.3615
  111OSM    H7G11549   1.400   1.213   9.752  1.9091  1.7580 -0.4425
  111OSM    C8F11550   1.311   1.396   9.700 -0.5685 -0.6737 -0.3472
  111OSM    H8F11551   1.407   1.425   9.651 -1.5338  1.4572 -1.0570
  111OSM    H8G11552   1.272   1.485   9.754 -0.7161 -1.3002  0.5870
  111OSM    C9F11553   1.206   1.351   9.603 -0.0416  0.2586  0.0138
  111OSM    H9F11554   1.104   1.356   9.642  0.7637  2.7045  1.9277
  111OSM   C10F11555   1.216   1.308   9.476  0.3705 -0.4800  0.1294
  111OSM   H10F11556   1.124   1.285   9.421  1.2224 -3.8466 -0.0120
  111OSM   C11F11557   1.342   1.294   9.396 -0.8461 -0.4374  0.4014
  111OSM   H11F11558   1.346   1.197   9.343  1.1839 -1.6235  2.6132
  111OSM   H11G11559   1.433   1.296   9.460  0.6192  0.0652 -1.6392
  111OSM   C12F11560   1.377   1.403   9.292 -0.1696 -0.4807 -0.1316
  111OSM   H12F11561   1.479   1.399   9.248 -0.0787 -1.9542  0.1885
  111OSM   H12G11562   1.379   1.508   9.327 -2.6460 -0.2342 -0.6174
  111OSM   C13F11563   1.283   1.392   9.167 -0.0363 -0.8608 -0.1099
  111OSM   H13F11564   1.186   1.424   9.211 -0.1198  0.9153 -1.5313
  111OSM   H13G11565   1.280   1.284   9.140 -1.6748 -0.7322 -0.5216
  111OSM   C14F11566   1.319   1.484   9.053 -0.0846 -0.2729 -0.3064
  111OSM   H14F11567   1.330   1.588   9.090  0.3880 -0.7492  0.9167
  111OSM   H14G11568   1.235   1.494   8.981  0.3405 -2.3626 -1.1468
  111OSM   C15F11569   1.442   1.445   8.972 -0.0356 -1.0185  0.4948
  111OSM   H15F11570   1.533   1.449   9.036  0.8010  1.1309 -0.7756
  111OSM   H15G11571   1.456   1.528   8.900  0.6682 -1.5047  0.0697
  111OSM   C16F11572   1.435   1.308   8.910  0.4919 -0.0081  0.2049
  111OSM   H16F11573   1.331   1.300   8.873  0.1601  1.4225  0.7852
  111OSM   H16G11574   1.441   1.230   8.989  0.3850 -0.0613  0.1605
  111OSM   C17F11575   1.527   1.288   8.789  0.0427  0.3613 -0.9715
  111OSM   H17F11576   1.553   1.185   8.756  1.2280  0.3016  0.1058
  111OSM   H17G11577   1.631   1.317   8.816  0.0536 -1.0844  0.6238
  111OSM   C18F11578   1.476   1.363   8.670  0.2204  0.3110 -0.3980
  111OSM   H18F11579   1.373   1.330   8.648 -0.2776  1.9351 -0.5369
  111OSM   H18G11580   1.543   1.348   8.582 -0.2969  0.1824 -0.7717
  111OSM   H18H11581   1.473   1.473   8.688 -0.3859  0.1288  0.6449
  112OSM      N11582   1.781   6.305  11.308 -0.1222  0.0403 -0.1898
  112OSM    C1511583   1.734   6.302  11.162  0.0084  0.4270  0.2378
  112OSM   H15A11584   1.710   6.402  11.130  0.5815  0.3106 -0.5563
  112OSM   H15B11585   1.643   6.247  11.146  1.1704 -1.6258  0.5027
  112OSM   H15C11586   1.812   6.267  11.096 -1.7847  1.3928 -2.4497
  112OSM    C1411587   1.878   6.414  11.325 -0.0557  0.0123  0.5540
  112OSM   H14A11588   1.908   6.433  11.427  1.0347  0.8659  0.0873
  112OSM   H14B11589   1.836   6.505  11.285  0.7359 -0.3362 -1.1423
  112OSM   H14C11590   1.971   6.392  11.274  0.8297  0.7317  1.8294
  112OSM    C1311591   1.665   6.331  11.405  0.3705  0.2349  0.0632
  112OSM   H13A11592   1.623   6.431  11.400 -1.6157 -0.6366 -1.3363
  112OSM   H13B11593   1.712   6.331  11.502  0.4201 -0.1444  0.0413
  112OSM   H13C11594   1.579   6.266  11.398 -1.3891  2.3190  1.6848
  112OSM    C1211595   1.850   6.180  11.346  0.1696 -0.3218 -0.5453
  112OSM   H12A11596   1.772   6.106  11.361  0.3876 -0.7167 -1.3274
  112OSM   H12B11597   1.905   6.202  11.436 -0.7988  0.1279 -0.0500
  112OSM    C1111598   1.948   6.119  11.240 -0.1956 -0.0785  0.6768
  112OSM   H11A11599   1.878   6.103  11.154  0.4546 -1.9377  0.4859
  112OSM   H11B11600   1.976   6.018  11.276 -1.5557 -1.5007 -2.0999
  112OSM      P11601   2.119   6.233  11.066  0.2531 -0.2053 -0.2541
  112OSM    O1311602   2.191   6.362  11.063  0.1554  0.1298  0.2868
  112OSM    O1411603   2.185   6.103  11.030 -0.1487 -0.4237 -0.1994
  112OSM    O1111604   1.988   6.244  10.979 -0.8552 -0.7196 -0.0924
  112OSM    O1211605   2.055   6.215  11.211  0.8809 -0.4537 -0.5429
  112OSM    C1S11606   2.009   6.299  10.848  0.1203  0.2406 -0.7939
  112OSM    H1S11607   2.107   6.348  10.828  0.2180  0.1588 -0.5168
  112OSM    H1T11608   1.921   6.367  10.835 -0.9224 -1.6109 -4.0656
  112OSM     NF11609   1.995   6.250  10.594 -0.5306  0.1842 -0.2285
  112OSM    HNF11610   1.908   6.257  10.544 -0.2662 -0.1378 -0.7355
  112OSM    C2S11611   1.987   6.197  10.731 -0.0632 -0.3240 -0.3222
  112OSM    H2S11612   2.066   6.118  10.736 -0.3417 -0.7142 -1.8234
  112OSM    C3S11613   1.849   6.132  10.742  0.2983  0.2741 -0.2892
  112OSM    H3S11614   1.767   6.203  10.719  0.9874  0.9333 -0.7490
  112OSM     O311615   1.821   6.084  10.872 -0.5161 -0.0127 -0.3724
  112OSM    HO311616   1.902   6.100  10.921 -0.0630  4.4276 -2.3901
  112OSM    C4S11617   1.837   6.009  10.651 -0.2514  0.2604 -0.0298
  112OSM    H4S11618   1.928   5.947  10.643 -1.0509 -1.2251  1.9522
  112OSM    C5S11619   1.722   5.965  10.589 -0.5961 -0.4021 -0.1402
  112OSM    H5S11620   1.631   6.026  10.596  0.0431  0.5325  0.2414
  112OSM    C6S11621   1.724   5.844  10.500 -1.1876 -0.1493  0.2244
  112OSM    H6S11622   1.618   5.832  10.469 -0.3998 -2.2848 -1.7769
  112OSM    H6T11623   1.765   5.757  10.557 -0.6958  0.3282  0.6016
  112OSM    C7S11624   1.802   5.841  10.366 -0.6858  0.0759  0.1230
  112OSM    H7S11625   1.811   5.740  10.319  0.2074  1.4760 -2.8725
  112OSM    H7T11626   1.907   5.872  10.381  0.1593 -2.4934 -0.2701
  112OSM    C8S11627   1.739   5.928  10.253  0.0974  0.7763 -0.5287
  112OSM    H8S11628   1.785   6.028  10.238 -1.5688  1.2504 -2.8166
  112OSM    H8T11629   1.631   5.943  10.279 -0.3482 -0.2377 -1.7523
  112OSM    C9S11630   1.739   5.852  10.122 -0.2424 -0.6129 -0.5030
  112OSM    H9S11631   1.678   5.761  10.141  1.2607 -1.4052  0.5556
  112OSM    H9T11632   1.839   5.816  10.091  0.3969  1.2679 -0.6660
  112OSM   C10S11633   1.696   5.951  10.010 -0.2065  0.2000 -1.0255
  112OSM   H10S11634   1.757   6.043  10.003  0.7018 -0.2477  0.6954
  112OSM   H10T11635   1.596   5.993  10.034 -0.0719 -0.3653  0.5935
  112OSM   C11S11636   1.676   5.877   9.881  0.2093  0.2076  0.2032
  112OSM   H11S11637   1.588   5.810   9.895  1.4668 -1.7791 -1.1456
  112OSM   H11T11638   1.765   5.815   9.858 -1.1860 -1.9504  0.4051
  112OSM   C12S11639   1.644   5.981   9.770  0.5438  0.4748  0.2479
  112OSM   H12S11640   1.720   6.060   9.756  0.0030  0.8506 -0.5803
  112OSM   H12T11641   1.551   6.038   9.794  0.3288  0.2640 -0.0841
  112OSM   C13S11642   1.626   5.922   9.626 -0.2214  0.6744  0.3232
  112OSM   H13S11643   1.623   5.811   9.633  2.2868  0.5891  0.5879
  112OSM   H13T11644   1.713   5.942   9.559 -0.1420 -2.3970 -0.5715
  112OSM   C14S11645   1.497   5.968   9.566  0.2577 -0.2058  0.4014
  112OSM   H14S11646   1.494   6.079   9.562 -1.1852 -0.3008 -2.0737
  112OSM   H14T11647   1.408   5.941   9.628  0.7620  1.0827  1.7230
  112OSM   C15S11648   1.470   5.911   9.428 -0.8198 -0.5698 -0.4161
  112OSM   H15S11649   1.451   5.804   9.451  0.7958 -0.8375 -0.2954
  112OSM   H15T11650   1.558   5.931   9.363 -1.4679  3.3043 -0.2258
  112OSM   C16S11651   1.353   5.980   9.359 -0.9611 -0.1197 -0.3174
  112OSM   H16S11652   1.383   6.083   9.330  0.3819  0.6416  3.4785
  112OSM   H16T11653   1.270   5.993   9.432  0.0453  0.5926  0.7215
  112OSM   C17S11654   1.289   5.898   9.250  0.2109 -0.1224 -0.4952
  112OSM   H17S11655   1.192   5.950   9.233  0.4817  0.5468 -0.0275
  112OSM   H17T11656   1.261   5.799   9.292 -1.2549  0.1777 -0.7371
  112OSM   C18S11657   1.369   5.890   9.118 -0.3766  0.1467  0.0906
  112OSM   H18S11658   1.431   5.798   9.108 -0.4145  0.0623  0.6429
  112OSM   H18T11659   1.441   5.974   9.119 -2.4506  1.9617 -0.6137
  112OSM   H18U11660   1.314   5.904   9.022 -0.2304 -1.7263 -0.2952
  112OSM    C1F11661   2.094   6.320  10.542 -0.0366  0.4132 -0.7241
  112OSM     OF11662   2.197   6.342  10.601  0.3649 -0.0213 -0.1227
  112OSM    C2F11663   2.082   6.384  10.399  0.0618 -0.1057 -0.3162
  112OSM    H2F11664   2.001   6.460  10.400 -0.5561 -0.7678  0.4975
  112OSM    H2G11665   2.048   6.303  10.331 -3.6309  0.5351  0.6677
  112OSM    C3F11666   2.217   6.443  10.350 -0.0999  0.2005  0.3473
  112OSM    H3F11667   2.289   6.359  10.340  0.0921  0.7027 -2.6886
  112OSM    H3G11668   2.248   6.511  10.433  1.9905  0.5058 -0.6614
  112OSM    C4F11669   2.225   6.507  10.211 -0.4801  0.3186  0.4695
  112OSM    H4F11670   2.329   6.537  10.188 -0.3328  1.0367  2.0018
  112OSM    H4G11671   2.165   6.601  10.212  0.5147  0.9564  1.8252
  112OSM    C5F11672   2.163   6.413  10.108  0.3009 -0.3296  0.3668
  112OSM    H5F11673   2.057   6.382  10.121  0.3202 -1.3441 -1.7138
  112OSM    H5G11674   2.225   6.325  10.082 -0.7310  0.0700 -3.8145
  112OSM    C6F11675   2.159   6.475   9.964 -0.7274 -0.7506  0.2096
  112OSM    H6F11676   2.257   6.501   9.919 -1.5145  1.1197 -0.4985
  112OSM    H6G11677   2.096   6.566   9.956 -0.8236 -0.7890  0.5214
  112OSM    C7F11678   2.107   6.363   9.868 -0.2269 -0.4904  0.6364
  112OSM    H7F11679   2.014   6.324   9.915 -0.8906 -0.5904 -0.7300
  112OSM    H7G11680   2.177   6.278   9.856  1.7468  1.2358 -0.4375
  112OSM    C8F11681   2.067   6.406   9.719  0.2995  0.5462 -0.3269
  112OSM    H8F11682   2.163   6.443   9.678 -0.5934 -0.3007 -3.3084
  112OSM    H8G11683   1.998   6.493   9.713 -1.5952 -0.7755  1.6988
  112OSM    C9F11684   2.013   6.291   9.631 -0.3615 -0.4289  0.2982
  112OSM    H9F11685   1.936   6.225   9.673  0.3314 -1.2551  0.2792
  112OSM   C10F11686   2.057   6.253   9.515 -0.0499 -0.3961  0.3314
  112OSM   H10F11687   2.014   6.162   9.471  1.2309  0.7682 -3.5727
  112OSM   C11F11688   2.170   6.317   9.441  0.2128  0.0753 -0.1141
  112OSM   H11F11689   2.269   6.272   9.464  0.9941  1.9232  0.2100
  112OSM   H11G11690   2.182   6.423   9.471 -1.0750  0.0126  0.6722
  112OSM   C12F11691   2.139   6.324   9.288  0.3108  0.4458 -0.0729
  112OSM   H12F11692   2.041   6.375   9.271 -0.1732  0.1879  1.7906
  112OSM   H12G11693   2.138   6.222   9.245 -0.5255  0.8849 -1.1274
  112OSM   C13F11694   2.245   6.403   9.214  0.2515  0.1033  0.2673
  112OSM   H13F11695   2.335   6.423   9.275  0.8751 -2.0015  0.0530
  112OSM   H13G11696   2.213   6.508   9.193  2.0319  0.0517 -3.0496
  112OSM   C14F11697   2.286   6.334   9.090 -0.1936  0.2894 -0.0824
  112OSM   H14F11698   2.329   6.236   9.123 -0.0096  0.3902 -0.0237
  112OSM   H14G11699   2.378   6.383   9.053  0.8177 -0.5473  1.2884
  112OSM   C15F11700   2.177   6.336   8.980 -0.6511 -0.2303  0.1990
  112OSM   H15F11701   2.152   6.441   8.955 -0.3550 -0.3895 -0.7838
  112OSM   H15G11702   2.088   6.280   9.017 -0.0367  0.1117  2.2684
  112OSM   C16F11703   2.229   6.264   8.851 -0.1914 -0.2987 -0.5307
  112OSM   H16F11704   2.261   6.162   8.880 -1.3289 -0.4371  0.2994
  112OSM   H16G11705   2.315   6.316   8.804  0.7251  0.2660  1.6861
  112OSM   C17F11706   2.125   6.244   8.734 -0.8748  0.0541 -0.4902
  112OSM   H17F11707   2.187   6.192   8.659  2.0066  2.5764  0.0269
  112OSM   H17G11708   2.092   6.342   8.692  0.2717 -0.0377 -1.6206
  112OSM   C18F11709   2.001   6.153   8.773 -0.5184  0.3482  1.8199
  112OSM   H18F11710   1.948   6.189   8.865  0.0865 -1.2755  2.8264
  112OSM   H18G11711   2.039   6.050   8.791 -0.1648  0.1690  0.1370
  112OSM   H18H11712   1.927   6.148   8.690  2.5421  3.2913 -1.2514
  113OSM      N11713   5.692   2.281  11.008 -0.1802 -0.1485 -0.0933
  113OSM    C1511714   5.791   2.310  11.108 -0.1980  0.5050  0.1473
  113OSM   H15A11715   5.831   2.221  11.155 -2.9141 -0.8585 -0.0228
  113OSM   H15B11716   5.752   2.378  11.182 -1.5920  2.9244 -2.7132
  113OSM   H15C11717   5.868   2.371  11.064  0.9791 -0.4235  0.8806
  113OSM    C1411718   5.741   2.199  10.890  0.3985 -0.3842 -0.0402
  113OSM   H14A11719   5.663   2.151  10.833 -1.7292 -0.8915  3.1934
  113OSM   H14B11720   5.801   2.118  10.928  2.3111  0.7400 -0.6060
  113OSM   H14C11721   5.827   2.243  10.841  0.0046  0.0357 -0.3615
  113OSM    C1311722   5.578   2.202  11.069  0.6398  0.4525  0.4216
  113OSM   H13A11723   5.517   2.252  11.142 -0.6752 -0.5968  0.0714
  113OSM   H13B11724   5.621   2.119  11.123  2.9052  0.8883 -0.6511
  113OSM   H13C11725   5.513   2.161  10.993  0.2956 -0.8221  1.3983
  113OSM    C1211726   5.643   2.412  10.953  0.0371 -0.4600  0.4420
  113OSM   H12A11727   5.631   2.470  11.044  3.7550 -0.5641  1.0691
  113OSM   H12B11728   5.546   2.397  10.908  0.6799  2.8126 -2.2415
  113OSM    C1111729   5.736   2.490  10.870 -0.0407  0.1345  0.4578
  113OSM   H11A11730   5.676   2.563  10.812  0.3378 -0.5136 -0.7605
  113OSM   H11B11731   5.777   2.425  10.790 -1.5350  0.6904 -0.7753
  113OSM      P11732   5.800   2.690  11.027  0.2978  0.1730  0.3569
  113OSM    O1311733   5.708   2.652  11.137 -0.1250 -0.3379 -0.1690
  113OSM    O1411734   5.925   2.756  11.070  0.0073 -0.0918  0.2211
  113OSM    O1111735   5.731   2.782  10.928 -0.1956 -1.1773  0.2028
  113OSM    O1211736   5.839   2.555  10.945 -0.0690 -0.3546  0.1854
  113OSM    C1S11737   5.785   2.832  10.803 -0.2210 -0.0250 -0.3295
  113OSM    H1S11738   5.782   2.755  10.723 -1.1352 -1.1120  0.7283
  113OSM    H1T11739   5.884   2.879  10.819 -0.2409 -0.9247  2.8599
  113OSM     NF11740   5.750   2.989  10.612 -0.1738 -0.4787  0.3731
  113OSM    HNF11741   5.785   3.083  10.608  3.1589 -1.6837 -0.6287
  113OSM    C2S11742   5.688   2.937  10.731  0.9945  0.2423  0.2648
  113OSM    H2S11743   5.593   2.888  10.702  0.3608  1.9661 -0.6781
  113OSM    C3S11744   5.645   3.055  10.835 -0.3577  1.0284  0.6755
  113OSM    H3S11745   5.727   3.123  10.866 -0.1906  1.2386 -0.2057
  113OSM     O311746   5.618   3.011  10.969  0.5023 -0.2109  0.3266
  113OSM    HO311747   5.639   2.918  10.964 -0.1547 -0.4138  1.1302
  113OSM    C4S11748   5.535   3.136  10.775  1.1902  0.6010 -0.9079
  113OSM    H4S11749   5.437   3.086  10.776  0.0197  2.7911  0.6135
  113OSM    C5S11750   5.543   3.263  10.743 -0.4509 -0.4924 -0.0064
  113OSM    H5S11751   5.640   3.313  10.758 -1.0820  1.3996 -1.9552
  113OSM    C6S11752   5.426   3.343  10.697  0.0910  0.0751 -0.6133
  113OSM    H6S11753   5.386   3.399  10.785  1.4780  0.4478 -0.2126
  113OSM    H6T11754   5.347   3.271  10.665  1.5811 -2.1696  0.6881
  113OSM    C7S11755   5.455   3.436  10.584  0.4711 -0.7478  0.3806
  113OSM    H7S11756   5.528   3.518  10.597 -0.5170 -0.0509  1.6582
  113OSM    H7T11757   5.363   3.497  10.567  2.1284  1.4357 -1.0127
  113OSM    C8S11758   5.505   3.354  10.459 -0.7933  0.5331  0.0203
  113OSM    H8S11759   5.452   3.257  10.446  0.3455  0.0668 -1.2418
  113OSM    H8T11760   5.611   3.328  10.478 -0.3990  3.1012  1.4919
  113OSM    C9S11761   5.506   3.440  10.330  0.6936  0.2856  0.4049
  113OSM    H9S11762   5.569   3.526  10.361 -0.8444  1.7715 -0.5458
  113OSM    H9T11763   5.408   3.477  10.292 -1.7772 -4.5995  1.6798
  113OSM   C10S11764   5.567   3.362  10.210 -0.0584  0.0808 -0.5298
  113OSM   H10S11765   5.484   3.303  10.165  0.4764 -1.3728  0.3310
  113OSM   H10T11766   5.656   3.299  10.231 -1.6890 -2.4420 -0.8933
  113OSM   C11S11767   5.612   3.451  10.101  0.4370 -0.1994 -0.2433
  113OSM   H11S11768   5.685   3.519  10.148 -2.1799  1.6638  1.2387
  113OSM   H11T11769   5.526   3.512  10.066  1.3996  2.2714  1.5920
  113OSM   C12S11770   5.642   3.363   9.976  0.5934 -0.1060 -0.8692
  113OSM   H12S11771   5.557   3.300   9.941  0.4859 -1.6148  1.9885
  113OSM   H12T11772   5.722   3.292  10.006  0.0791  0.2158  1.3469
  113OSM   C13S11773   5.680   3.450   9.847 -0.5748 -0.6013  0.3335
  113OSM   H13S11774   5.707   3.382   9.763  1.1931  1.9307 -1.2259
  113OSM   H13T11775   5.776   3.495   9.879 -0.1925 -1.2678  0.1406
  113OSM   C14S11776   5.574   3.540   9.801 -0.0119  0.1602  0.2067
  113OSM   H14S11777   5.586   3.642   9.843 -3.3411  0.7779 -0.1831
  113OSM   H14T11778   5.478   3.494   9.832  0.2504 -0.4820  0.0569
  113OSM   C15S11779   5.573   3.554   9.642  0.1135  0.3389  0.4031
  113OSM   H15S11780   5.489   3.622   9.616  0.6224  0.1588 -1.7932
  113OSM   H15T11781   5.543   3.453   9.610 -0.1597 -0.0176  1.7362
  113OSM   C16S11782   5.708   3.589   9.581 -0.1893  0.0263  0.2638
  113OSM   H16S11783   5.796   3.524   9.601  0.6165 -0.0508 -3.2877
  113OSM   H16T11784   5.749   3.684   9.622  1.1027 -0.1726 -0.5126
  113OSM   C17S11785   5.698   3.616   9.430 -0.0733  0.7804 -0.0956
  113OSM   H17S11786   5.793   3.658   9.391 -0.3500  0.5795 -0.9929
  113OSM   H17T11787   5.622   3.695   9.417  0.3919  1.2971  0.3027
  113OSM   C18S11788   5.664   3.498   9.340  0.3350  0.0683  0.1836
  113OSM   H18S11789   5.605   3.422   9.394  2.9000 -1.0140  1.5345
  113OSM   H18T11790   5.756   3.440   9.316  1.5943  1.1957  2.1150
  113OSM   H18U11791   5.620   3.534   9.244  1.0766 -1.6824 -0.8297
  113OSM    C1F11792   5.764   2.920  10.502  0.6417 -0.6677 -0.2700
  113OSM     OF11793   5.694   2.820  10.501 -0.0302  0.4007 -1.2487
  113OSM    C2F11794   5.866   2.965  10.399 -0.0653 -0.3917 -0.2058
  113OSM    H2F11795   5.904   2.873  10.348  3.2157 -0.5871  2.4152
  113OSM    H2G11796   5.953   3.007  10.454 -1.8619  0.7447  1.8377
  113OSM    C3F11797   5.816   3.071  10.297 -0.6179  0.1255 -0.1049
  113OSM    H3F11798   5.758   3.149  10.350 -2.7122 -1.9087  0.6797
  113OSM    H3G11799   5.760   3.019  10.216  1.4257 -2.0138 -0.2180
  113OSM    C4F11800   5.932   3.137  10.230  0.2859  0.7844 -0.3842
  113OSM    H4F11801   5.997   3.176  10.312  1.5032 -1.7727 -0.0680
  113OSM    H4G11802   5.902   3.222  10.166  0.4093 -1.4448 -3.5053
  113OSM    C5F11803   6.026   3.048  10.156  0.5027 -0.2560 -0.0540
  113OSM    H5F11804   6.079   2.970  10.214 -0.5384 -0.7558  0.2505
  113OSM    H5G11805   6.100   3.123  10.123  0.1989 -0.3015 -0.8589
  113OSM    C6F11806   5.970   2.981  10.029  0.3180  0.5468 -0.6896
  113OSM    H6F11807   5.903   3.052   9.975  1.1459  0.2620 -2.1120
  113OSM    H6G11808   5.905   2.899  10.067 -0.4378  2.0205  1.3161
  113OSM    C7F11809   6.087   2.922   9.942 -0.5910  0.2799  0.4072
  113OSM    H7F11810   6.124   2.827   9.987 -1.8491 -0.6153 -0.4172
  113OSM    H7G11811   6.179   2.985   9.942  0.7360 -1.5731  2.4278
  113OSM    C8F11812   6.061   2.891   9.796  0.2111 -0.3244 -0.0832
  113OSM    H8F11813   5.968   2.831   9.800 -0.2445  0.3318 -0.6197
  113OSM    H8G11814   6.140   2.826   9.755  0.8999 -0.3607  1.2924
  113OSM    C9F11815   6.048   3.013   9.725 -0.1609 -1.2362 -0.6806
  113OSM    H9F11816   5.976   3.086   9.765 -0.1429 -1.2838 -0.5615
  113OSM   C10F11817   6.129   3.062   9.628 -0.0492 -0.5185 -0.7167
  113OSM   H10F11818   6.104   3.165   9.599 -1.2858 -0.0155  1.8853
  113OSM   C11F11819   6.249   2.999   9.570 -0.5817 -0.3971  0.5725
  113OSM   H11F11820   6.268   2.895   9.602  2.5945 -0.2589 -0.6840
  113OSM   H11G11821   6.341   3.052   9.602  0.4292 -2.6894  1.5668
  113OSM   C12F11822   6.249   2.994   9.417 -0.0236  0.5635  0.5853
  113OSM   H12F11823   6.242   3.092   9.364  0.6935 -0.6373 -1.8401
  113OSM   H12G11824   6.171   2.922   9.386  0.6061 -1.1010  2.7302
  113OSM   C13F11825   6.389   2.932   9.368 -0.1570  0.1197 -0.2682
  113OSM   H13F11826   6.401   2.824   9.389  0.1753 -0.0406 -1.2702
  113OSM   H13G11827   6.463   2.984   9.432 -0.5881  0.5318 -0.1041
  113OSM   C14F11828   6.421   2.972   9.221 -0.2666  0.4617 -0.6019
  113OSM   H14F11829   6.530   2.955   9.216 -0.4367 -0.9913  0.2069
  113OSM   H14G11830   6.415   3.083   9.215 -1.7801  0.6939  3.7407
  113OSM   C15F11831   6.327   2.910   9.115 -0.0771  0.1627 -1.2958
  113OSM   H15F11832   6.220   2.925   9.138  0.0895 -1.9389  0.9910
  113OSM   H15G11833   6.318   2.800   9.110  1.9833 -0.1033  0.4437
  113OSM   C16F11834   6.354   2.968   8.974 -0.1061  0.4214 -0.3863
  113OSM   H16F11835   6.450   2.920   8.948  0.3866  1.3488 -0.2941
  113OSM   H16G11836   6.363   3.079   8.969 -2.1519  0.5714 -1.4625
  113OSM   C17F11837   6.250   2.917   8.881  0.0373  0.4735  0.4867
  113OSM   H17F11838   6.160   2.981   8.865 -0.2202 -0.5006 -2.2796
  113OSM   H17G11839   6.207   2.822   8.919  0.3929  0.4455  0.8238
  113OSM   C18F11840   6.300   2.898   8.735  0.5485 -0.0670  0.0343
  113OSM   H18F11841   6.217   2.893   8.660 -0.4244  0.2722  1.0673
  113OSM   H18G11842   6.363   2.807   8.732  1.4940  0.6115 -1.0910
  113OSM   H18H11843   6.361   2.985   8.702 -0.6960  0.6657 -0.3746
  114OSM      N11844   0.972   5.712  11.364 -0.3932 -0.2473 -0.4305
  114OSM    C1511845   0.977   5.865  11.338  0.4261 -0.0422 -0.0957
  114OSM   H15A11846   0.908   5.890  11.259  1.1414  1.1684 -0.3624
  114OSM   H15B11847   1.077   5.886  11.302  1.0916 -1.5596  0.8360
  114OSM   H15C11848   0.955   5.912  11.433  1.9372 -0.1942  0.3402
  114OSM    C1411849   1.061   5.695  11.486  0.5807  0.6498  0.3471
  114OSM   H14A11850   1.161   5.726  11.461  0.4932 -0.2116 -1.0870
  114OSM   H14B11851   1.058   5.592  11.518 -1.6415  0.1948 -1.1524
  114OSM   H14C11852   1.035   5.755  11.572  1.0257  0.1621  0.8266
  114OSM    C1311853   0.835   5.663  11.397  0.0010  0.5463  0.2582
  114OSM   H13A11854   0.793   5.721  11.478  1.7521  1.0553  0.8129
  114OSM   H13B11855   0.841   5.559  11.426  0.7561  0.4533 -0.2139
  114OSM   H13C11856   0.775   5.667  11.307 -1.0530 -3.9188  0.6734
  114OSM    C1211857   1.027   5.640  11.240  0.1618  0.3442  0.1958
  114OSM   H12A11858   0.968   5.675  11.156  0.7801 -1.5407 -1.0658
  114OSM   H12B11859   1.011   5.533  11.250  0.7624  0.3080  0.8700
  114OSM    C1111860   1.179   5.662  11.215 -0.5243  0.4118 -0.7893
  114OSM   H11A11861   1.207   5.602  11.127  1.3780 -0.3585  0.3135
  114OSM   H11B11862   1.232   5.616  11.301 -0.7289 -1.1216 -1.4620
  114OSM      P11863   1.179   5.869  11.069  0.3273 -0.4713  0.1990
  114OSM    O1311864   1.029   5.864  11.033 -0.2529  0.1571 -0.1542
  114OSM    O1411865   1.228   6.009  11.076 -0.2169  0.2736  0.4765
  114OSM    O1111866   1.266   5.791  10.969 -0.0375 -0.0986  0.0245
  114OSM    O1211867   1.216   5.796  11.201 -0.8557 -0.7809  0.0729
  114OSM    C1S11868   1.213   5.705  10.860  0.3054 -0.0939  0.2987
  114OSM    H1S11869   1.113   5.677  10.899  0.1715  0.7749  0.6008
  114OSM    H1T11870   1.281   5.618  10.849  1.4526  0.6670  1.2638
  114OSM     NF11871   1.131   5.674  10.627  0.0212 -0.1146  0.0868
  114OSM    HNF11872   1.182   5.653  10.543  1.1681  1.6814  0.3195
  114OSM    C2S11873   1.194   5.769  10.719  0.4043 -0.3312  0.5932
  114OSM    H2S11874   1.116   5.846  10.736  1.8174  0.6869  2.6608
  114OSM    C3S11875   1.315   5.836  10.655 -0.0459  0.2308  0.1000
  114OSM    H3S11876   1.375   5.757  10.604  0.2602  0.9386 -0.6715
  114OSM     O311877   1.400   5.899  10.753  0.1682  0.3842  0.3095
  114OSM    HO311878   1.374   5.871  10.842  0.4499  0.4313  0.4051
  114OSM    C4S11879   1.274   5.928  10.545 -0.0010  0.0154 -0.1663
  114OSM    H4S11880   1.257   5.868  10.454 -0.8503 -1.3639  0.8927
  114OSM    C5S11881   1.254   6.060  10.548 -0.1383 -0.7267  0.0812
  114OSM    H5S11882   1.285   6.112  10.640 -0.7472 -1.7040  0.8566
  114OSM    C6S11883   1.215   6.137  10.425 -0.0371 -0.0766 -0.3328
  114OSM    H6S11884   1.266   6.236  10.428  1.3263 -0.7933  0.6605
  114OSM    H6T11885   1.105   6.148  10.438 -0.2232 -2.0801 -0.0943
  114OSM    C7S11886   1.261   6.075  10.291 -0.5990 -0.3337  0.0014
  114OSM    H7S11887   1.199   5.982  10.288 -1.7298  0.4555 -1.7354
  114OSM    H7T11888   1.370   6.055  10.299 -0.4181  0.6183 -0.0411
  114OSM    C8S11889   1.223   6.167  10.171  0.0762  0.0341 -1.2461
  114OSM    H8S11890   1.290   6.256  10.174  0.2645 -0.1556  1.0857
  114OSM    H8T11891   1.115   6.183  10.187  0.2699 -0.5614  0.8261
  114OSM    C9S11892   1.244   6.115  10.037 -0.0831  0.4779  0.2270
  114OSM    H9S11893   1.218   6.008  10.024  0.2077  0.6178 -1.6198
  114OSM    H9T11894   1.347   6.121   9.997 -0.0251  0.5926  0.3957
  114OSM   C10S11895   1.163   6.192   9.939  0.7029  0.3832  0.0205
  114OSM   H10S11896   1.189   6.300   9.942  0.1151  0.8264 -5.5299
  114OSM   H10T11897   1.054   6.185   9.956  0.5098  1.9666 -0.4656
  114OSM   C11S11898   1.196   6.154   9.787 -0.3408  0.4291 -0.0836
  114OSM   H11S11899   1.156   6.053   9.767  1.1427 -0.5426  1.6325
  114OSM   H11T11900   1.307   6.158   9.772 -0.6518  2.4520 -2.1387
  114OSM   C12S11901   1.117   6.234   9.688  0.0900 -0.0571 -1.0043
  114OSM   H12S11902   1.144   6.341   9.701 -0.5948  0.2229 -1.8435
  114OSM   H12T11903   1.009   6.223   9.711 -0.3441  0.8505 -2.5302
  114OSM   C13S11904   1.151   6.217   9.545 -0.7705  0.4405 -0.1571
  114OSM   H13S11905   1.149   6.108   9.522 -0.5131  0.1303  1.2186
  114OSM   H13T11906   1.258   6.248   9.535 -0.6060  0.0391  0.2794
  114OSM   C14S11907   1.058   6.282   9.447  0.1108  0.5754  0.4101
  114OSM   H14S11908   1.048   6.389   9.477  0.5026  1.0561 -1.0944
  114OSM   H14T11909   0.956   6.241   9.459 -0.1209  1.1772  0.5490
  114OSM   C15S11910   1.111   6.289   9.293 -0.0424 -0.2586  0.0740
  114OSM   H15S11911   1.127   6.189   9.248 -1.1932 -0.3298 -0.1946
  114OSM   H15T11912   1.204   6.348   9.281 -1.1966  1.3047 -1.4793
  114OSM   C16S11913   1.005   6.359   9.206  0.6946  0.5803  0.3483
  114OSM   H16S11914   0.987   6.462   9.243 -0.3445  0.4987  0.0825
  114OSM   H16T11915   0.915   6.296   9.218  1.5772 -0.7255  0.2268
  114OSM   C17S11916   1.038   6.362   9.049  0.3427  0.3224 -0.0812
  114OSM   H17S11917   0.948   6.399   8.995  1.5024  0.6445 -1.8160
  114OSM   H17T11918   1.048   6.255   9.023 -0.5674  0.0443  0.6671
  114OSM   C18S11919   1.173   6.429   9.012  0.5376 -0.2509 -0.1592
  114OSM   H18S11920   1.164   6.538   9.036  0.5784 -0.2104 -0.3250
  114OSM   H18T11921   1.184   6.426   8.902 -2.6467  0.8408 -0.5796
  114OSM   H18U11922   1.264   6.385   9.056  1.1965 -0.6107 -1.8562
  114OSM    C1F11923   1.006   5.635  10.645 -0.3446 -0.7006 -0.3792
  114OSM     OF11924   0.941   5.671  10.743  0.3806  0.1691  0.9399
  114OSM    C2F11925   0.945   5.540  10.541  0.0628 -0.1176  0.2804
  114OSM    H2F11926   0.986   5.440  10.568  1.7587  0.1496 -1.2503
  114OSM    H2G11927   0.988   5.567  10.442 -2.4920 -1.4416 -1.2560
  114OSM    C3F11928   0.792   5.548  10.547  0.9975 -0.0087  0.1583
  114OSM    H3F11929   0.774   5.654  10.519 -0.3525 -0.0701  0.7425
  114OSM    H3G11930   0.772   5.541  10.656  0.1663 -0.3469 -0.0128
  114OSM    C4F11931   0.699   5.454  10.469  0.4373 -0.8481  0.1588
  114OSM    H4F11932   0.597   5.475  10.508 -0.4295 -1.9566 -1.4929
  114OSM    H4G11933   0.732   5.351  10.492  0.3789 -0.2798  3.0684
  114OSM    C5F11934   0.706   5.486  10.320  0.8719 -0.3252 -0.7962
  114OSM    H5F11935   0.806   5.450  10.289  1.6193  1.5716 -0.6644
  114OSM    H5G11936   0.710   5.596  10.301  0.0865  0.3423  2.5882
  114OSM    C6F11937   0.593   5.420  10.231 -0.5775  0.5286  0.3093
  114OSM    H6F11938   0.505   5.479  10.263 -1.8390 -1.4488  0.5825
  114OSM    H6G11939   0.580   5.316  10.267 -4.5025  0.4246 -1.2396
  114OSM    C7F11940   0.622   5.425  10.081 -0.1895  0.0525 -0.1528
  114OSM    H7F11941   0.554   5.360  10.022 -2.0725  2.2497 -0.4961
  114OSM    H7G11942   0.727   5.406  10.051 -0.0614  2.3459 -1.2871
  114OSM    C8F11943   0.611   5.562  10.017  0.1415 -0.0240  0.6323
  114OSM    H8F11944   0.654   5.542   9.916  1.2502  0.9453  0.9074
  114OSM    H8G11945   0.673   5.625  10.084  1.2918 -0.3107 -0.1377
  114OSM    C9F11946   0.472   5.619  10.008 -0.0876 -0.1627 -0.1261
  114OSM    H9F11947   0.435   5.650  10.107 -1.3506  1.5151 -1.1076
  114OSM   C10F11948   0.410   5.654   9.897 -0.0293  0.0311 -0.3177
  114OSM   H10F11949   0.305   5.683   9.907 -0.0862 -0.6166  1.2506
  114OSM   C11F11950   0.462   5.653   9.755  0.2619  0.7491  0.7730
  114OSM   H11F11951   0.488   5.552   9.718  1.4351  0.5887  2.0153
  114OSM   H11G11952   0.557   5.710   9.758  0.3246  0.6247  1.1002
  114OSM   C12F11953   0.365   5.729   9.667  0.7007 -0.1722 -0.7158
  114OSM   H12F11954   0.367   5.833   9.704  1.7817 -0.4743  0.0978
  114OSM   H12G11955   0.258   5.701   9.672  0.6029  0.2975 -0.2339
  114OSM   C13F11956   0.394   5.709   9.519 -0.6500  0.1396  1.1070
  114OSM   H13F11957   0.379   5.604   9.485  2.6992 -0.0214 -0.0198
  114OSM   H13G11958   0.501   5.731   9.502 -1.3470  1.8430 -1.2491
  114OSM   C14F11959   0.307   5.795   9.417  0.3802 -0.5371 -0.1600
  114OSM   H14F11960   0.283   5.889   9.472 -3.0309 -1.9220  0.7755
  114OSM   H14G11961   0.207   5.748   9.416  0.4258 -0.6980  1.2460
  114OSM   C15F11962   0.384   5.818   9.285 -0.2131  0.2203  0.0090
  114OSM   H15F11963   0.409   5.719   9.241 -0.3889 -0.6515  1.8101
  114OSM   H15G11964   0.471   5.887   9.281 -0.9001  1.1491  0.7898
  114OSM   C16F11965   0.298   5.900   9.181 -0.3112 -0.4123  0.4681
  114OSM   H16F11966   0.247   5.980   9.237 -0.4023  0.6285 -1.0875
  114OSM   H16G11967   0.232   5.825   9.133 -0.5693  0.0754  0.0745
  114OSM   C17F11968   0.382   5.956   9.067  0.2309 -0.2524  0.2355
  114OSM   H17F11969   0.438   5.872   9.021  1.0549 -0.5000  1.6547
  114OSM   H17G11970   0.460   6.022   9.109  1.6129 -1.7807  0.1564
  114OSM   C18F11971   0.296   6.034   8.961 -0.5906  0.4136 -0.8174
  114OSM   H18F11972   0.241   6.114   9.014 -0.5506  0.3328 -0.6551
  114OSM   H18G11973   0.224   5.959   8.921  1.1025 -1.0399 -1.2298
  114OSM   H18H11974   0.364   6.078   8.884 -0.9164  2.4790  0.0553
  115OSM      N11975   4.278   5.357  10.850 -0.6731 -0.0484 -0.0018
  115OSM    C1511976   4.302   5.334  10.709 -0.1743  0.7054 -0.1450
  115OSM   H15A11977   4.373   5.252  10.713 -0.7029  0.3324  3.3975
  115OSM   H15B11978   4.357   5.414  10.661 -1.1008  0.4321 -1.6920
  115OSM   H15C11979   4.217   5.295  10.655  1.9416 -3.3274 -0.7329
  115OSM    C1411980   4.408   5.404  10.914 -0.2050  0.1879 -0.0024
  115OSM   H14A11981   4.463   5.478  10.857  0.3714 -1.2420 -1.3420
  115OSM   H14B11982   4.471   5.318  10.927 -0.8999 -0.1475  1.1963
  115OSM   H14C11983   4.382   5.447  11.009  4.0807 -0.8364  1.7135
  115OSM    C1311984   4.167   5.461  10.866  0.6900 -0.5150  0.1061
  115OSM   H13A11985   4.156   5.490  10.969 -0.6718 -1.8148  0.3445
  115OSM   H13B11986   4.074   5.420  10.830  0.4520  0.8772 -0.8881
  115OSM   H13C11987   4.189   5.556  10.819 -1.1375  0.4237  1.1255
  115OSM    C1211988   4.224   5.227  10.924 -0.1552 -0.2686  0.6444
  115OSM   H12A11989   4.122   5.204  10.895 -0.4583  0.8191  0.8224
  115OSM   H12B11990   4.218   5.244  11.031  0.9052  0.2906  0.6170
  115OSM    C1111991   4.305   5.098  10.914 -0.4110 -0.2393  0.5284
  115OSM   H11A11992   4.317   5.082  10.804 -1.3480  1.0656  0.2209
  115OSM   H11B11993   4.238   5.018  10.951  0.0664 -0.9488 -0.1173
  115OSM      P11994   4.529   4.983  10.980  0.3554  0.1176 -0.1049
  115OSM    O1311995   4.660   5.038  11.004  0.1616 -0.8032  0.3531
  115OSM    O1411996   4.480   4.885  11.081 -0.4447 -0.0136  0.1779
  115OSM    O1111997   4.528   4.918  10.830 -0.3425  0.0645 -0.2345
  115OSM    O1211998   4.432   5.098  10.975 -0.7288 -0.2184 -0.0281
  115OSM    C1S11999   4.549   4.996  10.716 -0.1091 -0.6925  0.6308
  115OSM    H1S12000   4.602   5.089  10.745  1.3618 -1.7536  1.4222
  115OSM    H1T12001   4.453   5.021  10.666 -0.1610 -1.9790  0.0701
  115OSM     NF12002   4.627   5.011  10.494  0.1391 -0.8655  0.3826
  115OSM    HNF12003   4.556   5.004  10.426  0.5993 -1.0409 -0.0838
  115OSM    C2S12004   4.628   4.915  10.607 -0.4601 -0.0662 -0.1294
  115OSM    H2S12005   4.730   4.904  10.651 -1.0351 -0.6809  1.0627
  115OSM    C3S12006   4.566   4.780  10.585  0.3431 -0.5642  0.5338
  115OSM    H3S12007   4.460   4.801  10.563  0.6528  1.0789  0.5424
  115OSM     O312008   4.563   4.696  10.691 -0.8719  0.4051 -0.5766
  115OSM    HO312009   4.553   4.758  10.764 -1.1822  0.2137 -0.4557
  115OSM    C4S12010   4.613   4.708  10.465 -0.0392  0.2106 -0.1787
  115OSM    H4S12011   4.720   4.682  10.466 -0.0892  0.0281  0.6793
  115OSM    C5S12012   4.530   4.677  10.361 -0.7495  0.6414  0.2545
  115OSM    H5S12013   4.422   4.690  10.374 -0.9216 -1.5521  1.3232
  115OSM    C6S12014   4.559   4.608  10.236  0.4995  0.1045 -0.3475
  115OSM    H6S12015   4.668   4.602  10.213  1.0011 -1.7328  2.3397
  115OSM    H6T12016   4.519   4.672  10.154  0.4805  1.0065  0.3611
  115OSM    C7S12017   4.496   4.464  10.245  0.7052  0.4417  0.1732
  115OSM    H7S12018   4.388   4.470  10.271  1.2028 -0.1759  2.4693
  115OSM    H7T12019   4.551   4.406  10.322  0.3596 -1.6469 -1.1081
  115OSM    C8S12020   4.500   4.381  10.117  0.0276  0.0468  0.6455
  115OSM    H8S12021   4.443   4.286  10.131  2.9234 -1.7838  0.3967
  115OSM    H8T12022   4.605   4.349  10.103 -0.4946 -1.8177  0.8481
  115OSM    C9S12023   4.448   4.443   9.985 -0.7801 -0.2477  0.0043
  115OSM    H9S12024   4.477   4.371   9.906 -0.2052  0.0751 -0.0855
  115OSM    H9T12025   4.491   4.541   9.956 -0.2370 -0.8991 -1.4700
  115OSM   C10S12026   4.297   4.463   9.999 -0.6875  0.5445  0.1061
  115OSM   H10S12027   4.285   4.534  10.083 -0.2406  2.8881 -1.7514
  115OSM   H10T12028   4.256   4.367  10.037 -1.4075  0.3132 -1.2328
  115OSM   C11S12029   4.247   4.503   9.859  0.1658 -0.0977 -0.9431
  115OSM   H11S12030   4.136   4.511   9.866  0.2901 -0.1642  1.3659
  115OSM   H11T12031   4.265   4.421   9.785 -0.4276 -0.9853 -0.1213
  115OSM   C12S12032   4.301   4.630   9.801 -0.3939 -0.6491  0.7761
  115OSM   H12S12033   4.399   4.609   9.754 -1.2860  0.3498 -1.6394
  115OSM   H12T12034   4.316   4.691   9.892 -0.5666 -0.1096  0.4531
  115OSM   C13S12035   4.205   4.693   9.698  0.0143 -0.2611  0.1110
  115OSM   H13S12036   4.122   4.752   9.741  0.2306 -1.2450  1.9610
  115OSM   H13T12037   4.173   4.605   9.638 -0.3471  0.5860 -0.9321
  115OSM   C14S12038   4.280   4.789   9.597 -0.7277  0.3742  0.1316
  115OSM   H14S12039   4.357   4.727   9.546 -0.6226 -0.8255  1.7263
  115OSM   H14T12040   4.308   4.884   9.648 -1.4270  0.4353  0.3984
  115OSM   C15S12041   4.190   4.825   9.475 -0.9828 -0.0335  0.3764
  115OSM   H15S12042   4.243   4.887   9.400 -4.0489  1.3658 -0.7265
  115OSM   H15T12043   4.103   4.877   9.520  0.7595  1.0489  2.6114
  115OSM   C16S12044   4.133   4.707   9.396  0.1113 -0.8753  0.1155
  115OSM   H16S12045   4.050   4.657   9.450 -0.2679  0.7896  1.1057
  115OSM   H16T12046   4.209   4.627   9.379  1.3180  0.5347 -1.2439
  115OSM   C17S12047   4.087   4.763   9.259  0.3534 -0.2361  0.4862
  115OSM   H17S12048   4.098   4.678   9.188  1.2017 -0.2269  0.6069
  115OSM   H17T12049   4.152   4.845   9.222  1.5322 -1.4127 -0.1003
  115OSM   C18S12050   3.948   4.810   9.260  0.6699 -0.5660  0.2966
  115OSM   H18S12051   3.871   4.754   9.317 -0.8069 -0.6183 -1.6963
  115OSM   H18T12052   3.916   4.848   9.161 -2.1677 -0.6931  1.1206
  115OSM   H18U12053   3.952   4.909   9.310  1.1987  0.6490 -2.0740
  115OSM    C1F12054   4.699   5.119  10.493  0.1714 -0.0326 -0.0910
  115OSM     OF12055   4.769   5.147  10.591 -0.3646  0.4654  0.0466
  115OSM    C2F12056   4.705   5.192  10.362 -0.3746 -0.2471 -0.6131
  115OSM    H2F12057   4.653   5.129  10.286 -1.8971  1.0601 -0.6816
  115OSM    H2G12058   4.813   5.211  10.343  0.1468 -0.9074  1.5552
  115OSM    C3F12059   4.640   5.333  10.380 -1.0857 -0.3070 -0.2135
  115OSM    H3F12060   4.709   5.394  10.442  1.7338 -2.0300 -1.5570
  115OSM    H3G12061   4.544   5.315  10.432 -0.5110 -0.6086  0.7453
  115OSM    C4F12062   4.622   5.400  10.251 -0.1998 -0.1669  1.1736
  115OSM    H4F12063   4.552   5.345  10.185  0.5349  0.0226  0.2357
  115OSM    H4G12064   4.722   5.415  10.205  0.1191  1.7940  2.4404
  115OSM    C5F12065   4.569   5.539  10.276  0.0881  0.0844  0.0292
  115OSM    H5F12066   4.589   5.583  10.376 -1.1854  2.9283 -0.9257
  115OSM    H5G12067   4.458   5.530  10.270  0.1332  0.3139 -1.3149
  115OSM    C6F12068   4.623   5.635  10.167  1.2233  0.4671 -0.1754
  115OSM    H6F12069   4.733   5.620  10.155  0.9721 -1.2696 -0.4143
  115OSM    H6G12070   4.605   5.740  10.200 -1.0205 -0.1712  0.7200
  115OSM    C7F12071   4.548   5.612  10.037 -0.1347 -0.3716 -0.0685
  115OSM    H7F12072   4.441   5.612  10.064 -0.0863  2.3693  0.2513
  115OSM    H7G12073   4.565   5.510   9.995  1.4557  0.3799 -1.2994
  115OSM    C8F12074   4.577   5.709   9.918 -0.9963  0.1368  0.3763
  115OSM    H8F12075   4.677   5.675   9.884 -1.7975 -0.8899 -0.9839
  115OSM    H8G12076   4.598   5.807   9.965  3.2569 -1.0429  1.1046
  115OSM    C9F12077   4.478   5.709   9.806 -0.7611  0.0165 -0.3393
  115OSM    H9F12078   4.376   5.723   9.845 -0.7340  1.0000 -0.5887
  115OSM   C10F12079   4.495   5.672   9.674  0.3918  0.2954 -0.3958
  115OSM   H10F12080   4.407   5.670   9.608 -0.1334  2.6122  0.2048
  115OSM   C11F12081   4.623   5.634   9.610  0.6372  0.1591 -0.3321
  115OSM   H11F12082   4.620   5.524   9.595  0.0464  0.3755 -1.8912
  115OSM   H11G12083   4.711   5.657   9.674  0.6276 -2.0242  0.5254
  115OSM   C12F12084   4.644   5.707   9.473  0.3119  0.4153 -0.7532
  115OSM   H12F12085   4.713   5.638   9.419  0.5503  0.1110 -0.0657
  115OSM   H12G12086   4.683   5.810   9.487  0.7168  0.3988 -1.7007
  115OSM   C13F12087   4.524   5.721   9.375 -0.6965  0.0464  0.2235
  115OSM   H13F12088   4.452   5.795   9.417 -0.3035 -0.5986  2.0770
  115OSM   H13G12089   4.476   5.622   9.365 -0.3770 -0.0179 -0.7827
  115OSM   C14F12090   4.562   5.771   9.230  1.0038  0.2689  0.7290
  115OSM   H14F12091   4.640   5.707   9.185  0.4094  0.4316 -0.5380
  115OSM   H14G12092   4.588   5.878   9.244 -1.6567  1.0992 -0.4107
  115OSM   C15F12093   4.433   5.757   9.138 -0.8116 -0.0671  0.2799
  115OSM   H15F12094   4.358   5.802   9.207 -1.3641 -1.4302  0.5908
  115OSM   H15G12095   4.407   5.649   9.138 -1.3719  0.0664  0.5627
  115OSM   C16F12096   4.447   5.808   8.994  0.1283  0.2867  0.9116
  115OSM   H16F12097   4.360   5.780   8.931 -0.3096  1.7992  0.8315
  115OSM   H16G12098   4.525   5.747   8.944  0.1858  0.7878  0.3842
  115OSM   C17F12099   4.483   5.953   8.982  0.1122 -0.4109  0.4316
  115OSM   H17F12100   4.589   5.969   9.008  0.4287  1.3304 -1.7495
  115OSM   H17G12101   4.408   6.013   9.038  0.1294  0.2609 -0.2559
  115OSM   C18F12102   4.463   6.008   8.844  0.5657 -0.1567  0.5116
  115OSM   H18F12103   4.474   6.118   8.833 -1.0570 -0.0716 -0.4089
  115OSM   H18G12104   4.360   5.989   8.808  1.0178  0.6652 -1.2586
  115OSM   H18H12105   4.527   5.955   8.770  2.1259  0.8833  1.1005
  116OSM      N12106   0.518   1.719  10.874  0.5895 -0.5608 -0.4343
  116OSM    C1512107   0.424   1.724  10.760 -0.3949  0.0706  0.1335
  116OSM   H15A12108   0.488   1.747  10.676 -0.6412 -2.6313 -0.8442
  116OSM   H15B12109   0.351   1.803  10.762 -0.2088  0.2454  0.0290
  116OSM   H15C12110   0.391   1.621  10.758 -1.8548  0.5317 -2.3108
  116OSM    C1412111   0.452   1.744  11.006 -0.5566 -0.3327  0.7488
  116OSM   H14A12112   0.368   1.679  11.025  0.9849 -2.2070  1.2606
  116OSM   H14B12113   0.402   1.840  11.009 -1.3376 -0.6493 -1.5185
  116OSM   H14C12114   0.527   1.742  11.085  0.8712 -0.6190 -0.5969
  116OSM    C1312115   0.566   1.576  10.880  0.1328  0.6418 -0.2666
  116OSM   H13A12116   0.634   1.557  10.961 -0.3130  2.0048  0.4452
  116OSM   H13B12117   0.630   1.563  10.794  2.5628 -1.6033  1.8167
  116OSM   H13C12118   0.493   1.497  10.872  0.9810 -0.0057 -1.9838
  116OSM    C1212119   0.645   1.798  10.856  0.0840 -0.2629 -0.0488
  116OSM   H12A12120   0.702   1.766  10.769 -0.5207 -0.7869 -0.2579
  116OSM   H12B12121   0.712   1.781  10.939 -0.0968 -0.1990  0.1090
  116OSM    C1112122   0.637   1.949  10.856 -0.4219  0.2420  0.5287
  116OSM   H11A12123   0.602   1.984  10.955 -1.8132  1.9748 -0.5619
  116OSM   H11B12124   0.559   1.979  10.783 -0.3339 -0.7976 -0.0035
  116OSM      P12125   0.882   2.021  10.929  0.7350 -0.0926  0.1497
  116OSM    O1312126   0.898   2.159  10.970 -0.1061 -0.1164  0.1428
  116OSM    O1412127   0.884   1.926  11.043  0.3966  0.0550 -0.3120
  116OSM    O1112128   1.008   1.995  10.841 -0.1278  0.3601 -0.2945
  116OSM    O1212129   0.764   2.000  10.827  0.7793  0.1829  0.0249
  116OSM    C1S12130   1.014   1.883  10.745 -0.4036  0.1913  0.2776
  116OSM    H1S12131   0.930   1.811  10.750  1.5605 -2.1343  0.9157
  116OSM    H1T12132   1.112   1.832  10.755  0.1729  0.9151 -1.5793
  116OSM     NF12133   0.975   1.811  10.516  0.5744 -0.9668 -0.4580
  116OSM    HNF12134   1.056   1.756  10.496  3.2853  1.7219  2.3645
  116OSM    C2S12135   1.013   1.924  10.595  0.1551 -0.7188  0.0100
  116OSM    H2S12136   0.931   1.998  10.591  1.7237  1.1368  1.2209
  116OSM    C3S12137   1.147   1.988  10.551 -0.3593 -0.4668  0.0070
  116OSM    H3S12138   1.235   1.920  10.555 -0.4187 -0.5357  0.1561
  116OSM     O312139   1.169   2.106  10.632 -0.8569 -0.3638  0.1467
  116OSM    HO312140   1.102   2.114  10.701 -1.0622 -0.4816 -0.0366
  116OSM    C4S12141   1.135   2.039  10.406  0.5887 -0.2394  0.2887
  116OSM    H4S12142   1.075   2.130  10.387  0.3554 -0.7167 -1.3418
  116OSM    C5S12143   1.191   1.970  10.306  0.4789  0.1930 -0.4978
  116OSM    H5S12144   1.227   1.868  10.326 -0.7247 -0.4122 -1.3585
  116OSM    C6S12145   1.180   2.018  10.161  0.9651  0.2793  0.1882
  116OSM    H6S12146   1.124   1.946  10.097  1.2902  1.5103 -1.5049
  116OSM    H6T12147   1.282   2.021  10.116  0.2204  0.0698 -1.5431
  116OSM    C7S12148   1.118   2.155  10.139  0.4650  0.2060  0.3660
  116OSM    H7S12149   1.158   2.235  10.206 -1.9279 -0.0002  2.1186
  116OSM    H7T12150   1.013   2.147  10.175  0.5998  0.0929  0.7399
  116OSM    C8S12151   1.114   2.192   9.990 -0.4146 -0.4475 -0.3518
  116OSM    H8S12152   1.051   2.283   9.977 -0.6432 -0.6246 -0.4767
  116OSM    H8T12153   1.064   2.108   9.938  1.5022 -0.0915 -2.8852
  116OSM    C9S12154   1.243   2.217   9.910 -0.4209 -0.4419  0.0780
  116OSM    H9S12155   1.315   2.137   9.936 -3.1884 -2.1083  3.0340
  116OSM    H9T12156   1.289   2.313   9.940 -0.9813  1.1999 -3.9997
  116OSM   C10S12157   1.217   2.223   9.756  0.0309 -0.0182 -0.4180
  116OSM   H10S12158   1.106   2.226   9.752 -0.1114 -2.6879  0.7317
  116OSM   H10T12159   1.242   2.123   9.715 -1.7589  0.1612 -2.0201
  116OSM   C11S12160   1.278   2.343   9.685 -0.5375  0.2831 -0.0633
  116OSM   H11S12161   1.389   2.334   9.680 -0.5595 -0.2332  0.3003
  116OSM   H11T12162   1.262   2.440   9.737 -0.8034 -0.5908  1.5166
  116OSM   C12S12163   1.233   2.346   9.537  0.8443 -0.7982  0.0831
  116OSM   H12S12164   1.260   2.444   9.493 -1.0998  0.1073  0.8640
  116OSM   H12T12165   1.123   2.335   9.545  0.5388  1.2141 -1.1360
  116OSM   C13S12166   1.291   2.231   9.452  0.2774  0.0262 -0.1611
  116OSM   H13S12167   1.255   2.135   9.496  0.0114 -0.3917 -1.2976
  116OSM   H13T12168   1.401   2.242   9.440  0.0847  0.4052 -1.5303
  116OSM   C14S12169   1.231   2.253   9.313  0.7701  0.0489  0.6988
  116OSM   H14S12170   1.277   2.339   9.259  0.3259 -1.2266 -1.7810
  116OSM   H14T12171   1.123   2.276   9.326  0.3814 -0.8598 -0.7277
  116OSM   C15S12172   1.236   2.129   9.230  0.1508  0.4800 -0.2027
  116OSM   H15S12173   1.149   2.065   9.253 -0.2020  0.6985 -0.9247
  116OSM   H15T12174   1.322   2.065   9.262 -0.7658 -0.5667  0.1798
  116OSM   C16S12175   1.254   2.146   9.081  0.1490 -0.2253  0.0411
  116OSM   H16S12176   1.356   2.190   9.068 -0.1720  0.1456 -1.1942
  116OSM   H16T12177   1.195   2.230   9.040  1.0841  1.2367  1.5865
  116OSM   C17S12178   1.239   2.013   9.005 -0.0232  0.7481  0.1785
  116OSM   H17S12179   1.135   2.026   8.967 -0.2430 -2.2665 -0.4122
  116OSM   H17T12180   1.238   1.925   9.073 -0.1488  0.7015  0.1151
  116OSM   C18S12181   1.341   1.981   8.896 -0.3662 -0.2397  0.4225
  116OSM   H18S12182   1.315   1.892   8.836 -0.3707 -0.9407  1.4502
  116OSM   H18T12183   1.442   1.956   8.937  0.5563  1.6835 -0.6017
  116OSM   H18U12184   1.347   2.060   8.818 -1.7549  2.6777  3.1566
  116OSM    C1F12185   0.848   1.770  10.507  1.3314  0.2498 -0.8825
  116OSM     OF12186   0.755   1.829  10.560  0.0742 -0.2927 -0.3890
  116OSM    C2F12187   0.829   1.629  10.452  0.0473 -0.3585 -0.2033
  116OSM    H2F12188   0.927   1.579  10.471  1.0926  1.9195  0.5949
  116OSM    H2G12189   0.817   1.651  10.344 -0.4224  0.2564 -0.0265
  116OSM    C3F12190   0.709   1.563  10.516  0.4265 -0.1850 -0.4536
  116OSM    H3F12191   0.611   1.606  10.488  1.4282  2.5386  0.0536
  116OSM    H3G12192   0.712   1.579  10.626  1.1355  1.3727 -0.6930
  116OSM    C4F12193   0.710   1.411  10.497  0.0897 -0.4012  0.3000
  116OSM    H4F12194   0.810   1.368  10.519  0.5084  1.4580  2.3341
  116OSM    H4G12195   0.699   1.386  10.390  0.3722  0.4144  0.0698
  116OSM    C5F12196   0.604   1.334  10.578  0.4769 -0.1545  0.1177
  116OSM    H5F12197   0.507   1.387  10.570  1.5535  1.8664  0.2030
  116OSM    H5G12198   0.625   1.345  10.687 -2.4616 -0.6130  0.7756
  116OSM    C6F12199   0.605   1.178  10.535 -0.1190  0.1480  0.2435
  116OSM    H6F12200   0.578   1.176  10.427  0.9836  0.0181 -0.0393
  116OSM    H6G12201   0.520   1.121  10.578 -1.7656  0.7648 -2.0925
  116OSM    C7F12202   0.748   1.110  10.572  0.4431 -0.5313  0.3518
  116OSM    H7F12203   0.762   1.135  10.679  1.8230 -1.9151  0.5136
  116OSM    H7G12204   0.831   1.149  10.510  0.5908 -0.6013  0.5033
  116OSM    C8F12205   0.749   0.957  10.561  0.0228  0.1429 -0.2592
  116OSM    H8F12206   0.661   0.908  10.609  1.0743  1.8906  3.5824
  116OSM    H8G12207   0.848   0.932  10.603  0.2305  1.4919  0.0630
  116OSM    C9F12208   0.750   0.905  10.424  0.0609  0.1161 -0.1399
  116OSM    H9F12209   0.665   0.939  10.364 -0.4728 -1.7452 -0.4577
  116OSM   C10F12210   0.841   0.832  10.356 -0.2461 -0.0591 -0.4531
  116OSM   H10F12211   0.813   0.802  10.254 -0.1471 -1.9157  0.0556
  116OSM   C11F12212   0.970   0.767  10.410  0.6233  0.5806  0.9394
  116OSM   H11F12213   0.957   0.662  10.376  0.3959  1.0101 -0.3358
  116OSM   H11G12214   0.974   0.783  10.520  3.2846 -0.0798  0.9718
  116OSM   C12F12215   1.109   0.821  10.367 -1.3235  0.0839 -0.2742
  116OSM   H12F12216   1.116   0.800  10.258  1.2511  1.3214 -0.3947
  116OSM   H12G12217   1.178   0.762  10.431 -0.8387 -0.7340 -1.5299
  116OSM   C13F12218   1.126   0.973  10.394 -0.8226  0.1071  0.3721
  116OSM   H13F12219   1.229   0.988  10.434 -0.7660 -1.0042  0.6689
  116OSM   H13G12220   1.051   1.004  10.470 -1.1709 -1.6046  0.7506
  116OSM   C14F12221   1.107   1.062  10.270  0.1812  0.3048  0.2770
  116OSM   H14F12222   1.003   1.048  10.233  0.7676 -1.7107 -0.6280
  116OSM   H14G12223   1.167   1.029  10.183 -0.6400  0.1043 -0.2235
  116OSM   C15F12224   1.144   1.214  10.295  0.6657  0.5222 -0.2418
  116OSM   H15F12225   1.252   1.239  10.302  0.7420 -0.3950  2.8477
  116OSM   H15G12226   1.103   1.238  10.395  3.7145  0.0639  1.1929
  116OSM   C16F12227   1.076   1.309  10.199  0.0428 -0.5385  0.0085
  116OSM   H16F12228   0.966   1.304  10.212  0.3371 -0.0969  3.0780
  116OSM   H16G12229   1.098   1.278  10.094 -2.0358 -0.4957 -0.4601
  116OSM   C17F12230   1.126   1.447  10.218 -0.2300 -0.4046 -0.2238
  116OSM   H17F12231   1.236   1.440  10.228 -0.2404  2.1963  2.7238
  116OSM   H17G12232   1.093   1.482  10.318 -0.4207  0.4785 -0.5851
  116OSM   C18F12233   1.096   1.550  10.107  0.5242 -0.5860  0.0124
  116OSM   H18F12234   0.988   1.576  10.101  0.2934 -1.8010 -1.1203
  116OSM   H18G12235   1.127   1.516  10.006  1.4620 -1.6305  0.6382
  116OSM   H18H12236   1.158   1.643  10.113  1.0468 -0.9445  0.1848
  117OSM      N12237   5.328   2.702  11.222 -0.7340  0.4349 -0.1736
  117OSM    C1512238   5.234   2.760  11.322 -0.0021 -0.2510 -0.4274
  117OSM   H15A12239   5.252   2.706  11.413  2.7666  1.5371  0.1387
  117OSM   H15B12240   5.130   2.760  11.290  0.4147  1.9174 -1.9134
  117OSM   H15C12241   5.254   2.864  11.342  1.7060 -0.1366 -2.5615
  117OSM    C1412242   5.468   2.746  11.264 -0.2156 -0.2273 -0.1389
  117OSM   H14A12243   5.489   2.695  11.357 -2.1256 -0.6385  0.0654
  117OSM   H14B12244   5.487   2.852  11.274  2.3098 -0.7161  0.8291
  117OSM   H14C12245   5.543   2.716  11.192  1.6547  0.6250  1.3802
  117OSM    C1312246   5.323   2.553  11.224 -0.1740 -0.1629 -0.0053
  117OSM   H13A12247   5.397   2.523  11.151  0.9828 -1.4753  1.6749
  117OSM   H13B12248   5.229   2.525  11.180 -1.1896  1.5461  0.9939
  117OSM   H13C12249   5.330   2.516  11.325  2.8892 -0.6831 -0.3770
  117OSM    C1212250   5.293   2.752  11.084  0.2438  0.1636  0.2290
  117OSM   H12A12251   5.292   2.860  11.089 -0.8159  0.2154 -0.9533
  117OSM   H12B12252   5.195   2.721  11.052  0.5640 -0.4658 -0.1582
  117OSM    C1112253   5.379   2.705  10.968  0.6977  0.0913 -0.3594
  117OSM   H11A12254   5.482   2.743  10.982  0.3108  0.7770  0.6104
  117OSM   H11B12255   5.341   2.760  10.879 -0.2018  1.3622  0.8025
  117OSM      P12256   5.251   2.499  10.869  0.5672 -0.0529 -0.1416
  117OSM    O1312257   5.269   2.354  10.863  0.0028  0.2846 -0.3259
  117OSM    O1412258   5.124   2.550  10.922  0.5769 -0.2488  0.2834
  117OSM    O1112259   5.272   2.549  10.717 -0.2466 -0.3298  0.3812
  117OSM    O1212260   5.375   2.564  10.943  0.2620  0.1478 -0.0626
  117OSM    C1S12261   5.404   2.548  10.658  0.2199  0.2983  0.5405
  117OSM    H1S12262   5.447   2.448  10.681  0.8232  0.1965 -0.9721
  117OSM    H1T12263   5.468   2.628  10.700  1.3167  0.3722 -1.1917
  117OSM     NF12264   5.523   2.579  10.452  0.3596 -0.1992 -0.1359
  117OSM    HNF12265   5.569   2.667  10.443 -2.0758  1.1837  0.3654
  117OSM    C2S12266   5.387   2.584  10.507  0.1493 -0.3626 -0.5907
  117OSM    H2S12267   5.320   2.511  10.458  1.2981 -0.1806 -2.4981
  117OSM    C3S12268   5.315   2.719  10.486 -0.4057 -0.8690  0.2372
  117OSM    H3S12269   5.366   2.792  10.553  2.3248 -1.5178 -1.0499
  117OSM     O312270   5.180   2.712  10.521 -0.3869 -0.1475  0.5279
  117OSM    HO312271   5.176   2.621  10.549 -1.2143 -0.6135 -1.0579
  117OSM    C4S12272   5.330   2.758  10.342 -0.0319 -0.3442  0.4871
  117OSM    H4S12273   5.258   2.708  10.276 -2.9477  2.6939  1.2530
  117OSM    C5S12274   5.422   2.841  10.288 -0.2448  0.3708 -0.4592
  117OSM    H5S12275   5.488   2.889  10.361 -1.8981 -0.8528  1.9228
  117OSM    C6S12276   5.437   2.874  10.143 -0.1658  0.2052 -0.4835
  117OSM    H6S12277   5.540   2.910  10.125  0.2213 -0.9834 -0.6898
  117OSM    H6T12278   5.360   2.953  10.130 -0.9567 -0.1525  1.7663
  117OSM    C7S12279   5.410   2.771  10.035  0.7216  0.1832 -0.3352
  117OSM    H7S12280   5.316   2.719  10.064  1.5618 -1.0055  0.3149
  117OSM    H7T12281   5.479   2.684  10.033  1.6622  0.9318 -0.9102
  117OSM    C8S12282   5.378   2.821   9.893  0.1696 -0.9725  0.3548
  117OSM    H8S12283   5.275   2.862   9.898 -0.0396 -1.5196  0.5616
  117OSM    H8T12284   5.374   2.732   9.827  1.1410 -1.3981  0.8691
  117OSM    C9S12285   5.476   2.925   9.833  0.1328 -0.4993 -1.0153
  117OSM    H9S12286   5.579   2.884   9.824  0.4012  0.0029 -0.2974
  117OSM    H9T12287   5.476   3.020   9.891  1.8339 -0.3215 -1.2767
  117OSM   C10S12288   5.424   2.968   9.692 -0.2074 -0.1765 -0.1031
  117OSM   H10S12289   5.319   3.002   9.704  0.4576  1.9824 -0.1293
  117OSM   H10T12290   5.417   2.885   9.618  0.8200  0.2087 -0.6405
  117OSM   C11S12291   5.503   3.077   9.626  0.7382 -0.2988 -0.5443
  117OSM   H11S12292   5.573   3.028   9.555  1.5923  0.4373 -0.2336
  117OSM   H11T12293   5.554   3.147   9.697  2.0943 -0.2364 -1.5538
  117OSM   C12S12294   5.413   3.162   9.528  0.2703  0.5864 -0.3693
  117OSM   H12S12295   5.444   3.268   9.514 -0.1548  0.9597  1.3316
  117OSM   H12T12296   5.311   3.158   9.573 -0.3010 -1.5246 -1.8050
  117OSM   C13S12297   5.405   3.099   9.391  0.5150  0.7273  0.6344
  117OSM   H13S12298   5.316   3.146   9.344  0.5392  0.6924  0.5543
  117OSM   H13T12299   5.384   2.990   9.391  1.2375  0.5500 -2.1113
  117OSM   C14S12300   5.520   3.131   9.294  0.5034  0.0638  0.5186
  117OSM   H14S12301   5.613   3.094   9.342  0.2243 -1.0515  0.2246
  117OSM   H14T12302   5.525   3.242   9.286  2.0399 -0.0295 -0.0323
  117OSM   C15S12303   5.495   3.061   9.150 -0.0572  0.1524  0.3728
  117OSM   H15S12304   5.386   3.070   9.135  0.1225  1.8215 -0.0808
  117OSM   H15T12305   5.511   2.952   9.163 -0.6973  0.0603  0.3918
  117OSM   C16S12306   5.582   3.119   9.042 -0.3591 -0.5580 -0.1406
  117OSM   H16S12307   5.603   3.035   8.973  1.1115  0.4971 -1.0070
  117OSM   H16T12308   5.679   3.149   9.088 -0.3510 -1.9082  0.7405
  117OSM   C17S12309   5.518   3.234   8.965  0.8298  0.3541  0.7067
  117OSM   H17S12310   5.487   3.312   9.037  0.6705  1.8773 -0.9591
  117OSM   H17T12311   5.428   3.210   8.904  1.4064  1.8817 -0.8087
  117OSM   C18S12312   5.613   3.301   8.859  0.4895 -0.6719  0.0166
  117OSM   H18S12313   5.557   3.374   8.796 -1.6040 -0.5325  1.9706
  117OSM   H18T12314   5.668   3.231   8.793 -1.6492 -0.5551 -1.9763
  117OSM   H18U12315   5.685   3.357   8.922  0.4926 -0.2236 -0.3796
  117OSM    C1F12316   5.579   2.462  10.437 -0.2358 -0.0531 -0.2567
  117OSM     OF12317   5.518   2.352  10.437 -0.3633 -0.5494  0.3515
  117OSM    C2F12318   5.727   2.462  10.448 -0.4061 -0.0462  0.9721
  117OSM    H2F12319   5.759   2.381  10.516 -1.1664 -1.4112 -0.2563
  117OSM    H2G12320   5.775   2.554  10.488  1.5864  0.1718 -1.7486
  117OSM    C3F12321   5.803   2.441  10.305  1.0534 -0.7510 -0.3701
  117OSM    H3F12322   5.772   2.344  10.262 -1.3819 -0.2030  0.0822
  117OSM    H3G12323   5.913   2.433  10.325  1.2100 -2.6417 -1.9296
  117OSM    C4F12324   5.772   2.544  10.202  0.2805  0.1779 -0.0349
  117OSM    H4F12325   5.808   2.648  10.220  0.0079  0.3275 -0.3587
  117OSM    H4G12326   5.662   2.552  10.197  0.4666  3.3041 -0.3612
  117OSM    C5F12327   5.820   2.501  10.062  0.2664 -0.2226 -0.4916
  117OSM    H5F12328   5.774   2.404  10.034  0.9259 -0.9690  0.9773
  117OSM    H5G12329   5.930   2.490  10.061  0.1699 -1.2658  0.3571
  117OSM    C6F12330   5.785   2.611   9.957 -0.2635 -0.2842 -0.2340
  117OSM    H6F12331   5.806   2.715   9.990 -1.3254  0.8442 -2.9564
  117OSM    H6G12332   5.675   2.622   9.941 -0.1434  1.0966 -0.1631
  117OSM    C7F12333   5.858   2.582   9.824  0.0113 -0.3475  0.1058
  117OSM    H7F12334   5.842   2.472   9.820 -0.7256 -0.2576  0.4333
  117OSM    H7G12335   5.968   2.600   9.820 -0.3235  2.3219  1.7678
  117OSM    C8F12336   5.788   2.641   9.700 -0.9258 -0.0055  0.4805
  117OSM    H8F12337   5.828   2.743   9.683 -1.0772 -0.4299 -2.8033
  117OSM    H8G12338   5.678   2.649   9.714 -1.0687  0.2744 -0.7797
  117OSM    C9F12339   5.821   2.556   9.578  0.5439 -0.6555  0.5128
  117OSM    H9F12340   5.794   2.450   9.590  0.7677 -0.6804  0.8002
  117OSM   C10F12341   5.882   2.592   9.463  0.9170  0.5130 -1.0405
  117OSM   H10F12342   5.880   2.517   9.383 -0.2393 -0.4359 -0.1499
  117OSM   C11F12343   5.918   2.735   9.432 -0.0581  0.2182  0.2030
  117OSM   H11F12344   6.014   2.763   9.479 -0.4335 -0.1470  1.1911
  117OSM   H11G12345   5.845   2.809   9.472  0.3745  1.9751 -2.1086
  117OSM   C12F12346   5.936   2.781   9.281  1.0880  0.1899  0.2325
  117OSM   H12F12347   6.012   2.713   9.237  1.5414  1.9018 -1.6893
  117OSM   H12G12348   5.983   2.881   9.274  4.1193 -1.0574  1.4828
  117OSM   C13F12349   5.819   2.756   9.191  1.0110  0.2197  0.1543
  117OSM   H13F12350   5.729   2.807   9.231  1.2956  0.6418  0.2610
  117OSM   H13G12351   5.792   2.649   9.202 -1.1802  0.7406  0.0019
  117OSM   C14F12352   5.849   2.778   9.042 -0.0164  0.0715  0.9364
  117OSM   H14F12353   5.957   2.754   9.029 -0.1443  0.6954 -1.6606
  117OSM   H14G12354   5.830   2.885   9.017 -2.7516 -0.7279 -0.6462
  117OSM   C15F12355   5.760   2.696   8.940  0.3887  0.0035 -0.1761
  117OSM   H15F12356   5.653   2.706   8.966  0.3817  2.8628 -1.2029
  117OSM   H15G12357   5.793   2.590   8.951 -0.8048 -0.3011  0.4761
  117OSM   C16F12358   5.790   2.748   8.800  0.1609  0.1105 -0.1480
  117OSM   H16F12359   5.810   2.857   8.804 -1.7371  0.4001  1.6997
  117OSM   H16G12360   5.700   2.735   8.736 -0.0114  3.3295 -0.6356
  117OSM   C17F12361   5.903   2.682   8.729  0.2423  0.0135  0.2090
  117OSM   H17F12362   5.881   2.575   8.707 -1.2256  0.5174 -0.8320
  117OSM   H17G12363   5.995   2.683   8.791  1.0283  1.2543 -0.9337
  117OSM   C18F12364   5.949   2.746   8.595 -0.4196  0.2054 -0.8761
  117OSM   H18F12365   6.045   2.706   8.556  1.2019  0.6397  2.5025
  117OSM   H18G12366   5.972   2.853   8.616 -0.8994  0.3319 -0.9849
  117OSM   H18H12367   5.864   2.740   8.524 -0.3813  0.9733 -0.9912
  118OSM      N12368   5.811   4.486  11.305 -0.8080 -0.5877 -0.3225
  118OSM    C1512369   5.895   4.536  11.420  0.1281  0.4271 -0.5948
  118OSM   H15A12370   5.929   4.456  11.484 -0.0590  0.5888 -0.2891
  118OSM   H15B12371   5.840   4.593  11.493 -1.1066 -1.1092 -0.3004
  118OSM   H15C12372   5.985   4.583  11.382 -0.5809  1.3024 -1.2120
  118OSM    C1412373   5.773   4.609  11.225 -0.3646 -0.0435  0.0265
  118OSM   H14A12374   5.714   4.586  11.137 -0.8017 -0.0653  0.3174
  118OSM   H14B12375   5.861   4.669  11.209 -1.1484  2.1142  3.2889
  118OSM   H14C12376   5.702   4.675  11.273  0.1054  1.2530 -1.0478
  118OSM    C1312377   5.906   4.412  11.215  0.4161 -0.2334 -0.3316
  118OSM   H13A12378   5.988   4.478  11.192 -0.3998  0.6151 -0.8330
  118OSM   H13B12379   5.847   4.404  11.125 -0.6452 -0.3058  0.3663
  118OSM   H13C12380   5.925   4.310  11.244 -0.7213 -0.6694 -1.0586
  118OSM    C1212381   5.681   4.409  11.330  0.3648  0.2203  0.4826
  118OSM   H12A12382   5.626   4.387  11.240 -2.5049  2.0862  1.7203
  118OSM   H12B12383   5.622   4.457  11.406 -1.3307 -1.6893  0.4133
  118OSM    C1112384   5.710   4.270  11.385 -0.1498 -0.0762  0.1560
  118OSM   H11A12385   5.621   4.242  11.444  0.8018  0.4191  1.8602
  118OSM   H11B12386   5.797   4.274  11.454  0.1107  2.1501 -0.2590
  118OSM      P12387   5.628   4.088  11.209  0.0607 -0.2384  0.1647
  118OSM    O1312388   5.699   3.991  11.125  0.2482  0.2307 -0.1372
  118OSM    O1412389   5.530   4.038  11.310  0.0695  0.1587  0.0721
  118OSM    O1112390   5.553   4.193  11.118 -0.1327  0.1613 -0.5625
  118OSM    O1212391   5.740   4.175  11.278  0.2248  0.3285  0.1389
  118OSM    C1S12392   5.621   4.243  11.004 -0.1428  0.3781  0.8465
  118OSM    H1S12393   5.731   4.247  11.024  0.1665  1.7878 -1.0015
  118OSM    H1T12394   5.595   4.350  10.995  0.2977  0.5246  1.2661
  118OSM     NF12395   5.647   4.207  10.750  0.6142 -0.0737  0.1186
  118OSM    HNF12396   5.593   4.261  10.685 -0.0706  0.6731  1.2920
  118OSM    C2S12397   5.580   4.164  10.869 -0.2389  0.0297 -0.0402
  118OSM    H2S12398   5.601   4.056  10.881 -0.2826  0.1980  1.6946
  118OSM    C3S12399   5.430   4.172  10.856 -0.6721 -0.1450  0.0719
  118OSM    H3S12400   5.403   4.278  10.840  1.6009  0.8811  2.6705
  118OSM     O312401   5.344   4.135  10.967  0.2932  0.5346 -0.2802
  118OSM    HO312402   5.407   4.124  11.039 -1.2515  2.1445  1.4020
  118OSM    C4S12403   5.390   4.099  10.736 -0.4453  0.6053  0.4821
  118OSM    H4S12404   5.372   4.169  10.654  0.7492  1.2068  0.7238
  118OSM    C5S12405   5.391   3.963  10.712  0.4563  0.8221 -0.9133
  118OSM    H5S12406   5.425   3.891  10.788  2.7714  0.6173 -2.0867
  118OSM    C6S12407   5.371   3.903  10.578 -0.4501  0.2471  0.0610
  118OSM    H6S12408   5.283   3.945  10.526  0.8142  0.1159 -2.2361
  118OSM    H6T12409   5.353   3.796  10.602 -1.3707  0.5778  0.8683
  118OSM    C7S12410   5.506   3.913  10.499 -0.8112  0.0975  0.2030
  118OSM    H7S12411   5.585   3.839  10.525 -2.5368 -2.5413 -1.8755
  118OSM    H7T12412   5.540   4.019  10.504 -0.2823 -0.0195 -0.6898
  118OSM    C8S12413   5.474   3.869  10.353  0.0930 -0.3417  0.0637
  118OSM    H8S12414   5.426   3.950  10.295  1.3481  0.1841 -0.2594
  118OSM    H8T12415   5.397   3.790  10.347 -1.1252  0.9455 -1.6672
  118OSM    C9S12416   5.597   3.859  10.267  0.0975 -0.8689  0.3273
  118OSM    H9S12417   5.635   3.758  10.293 -1.7483 -1.2416  1.6487
  118OSM    H9T12418   5.668   3.938  10.297 -2.0748  0.8581  1.0135
  118OSM   C10S12419   5.568   3.868  10.113 -0.7070 -0.2415 -0.8599
  118OSM   H10S12420   5.546   3.973  10.088 -0.0484  0.4523  1.3292
  118OSM   H10T12421   5.482   3.805  10.082  0.8658 -1.6400 -2.4597
  118OSM   C11S12422   5.698   3.835  10.041 -0.8117  0.0702 -0.1432
  118OSM   H11S12423   5.706   3.725  10.039  1.8437  0.2484 -2.1883
  118OSM   H11T12424   5.785   3.889  10.085 -0.2344  0.5608 -1.8330
  118OSM   C12S12425   5.699   3.900   9.901 -0.4162 -0.1648 -0.1092
  118OSM   H12S12426   5.693   4.009   9.923  1.5093  0.2546 -1.5949
  118OSM   H12T12427   5.605   3.869   9.849  0.2515 -1.7751 -0.3725
  118OSM   C13S12428   5.823   3.888   9.819  0.6655 -1.5192  0.1534
  118OSM   H13S12429   5.835   3.780   9.797  0.3136 -1.5421  0.0763
  118OSM   H13T12430   5.908   3.932   9.876 -0.5728  0.8654  0.2362
  118OSM   C14S12431   5.822   3.967   9.692 -0.1437  0.2665  0.3146
  118OSM   H14S12432   5.805   4.073   9.719 -0.4010  0.5870 -1.0487
  118OSM   H14T12433   5.737   3.930   9.630 -0.8374  0.7750  0.9556
  118OSM   C15S12434   5.951   3.936   9.617 -0.1185 -0.4992 -0.4344
  118OSM   H15S12435   5.938   3.965   9.510  1.2921 -1.8156 -0.9893
  118OSM   H15T12436   5.955   3.825   9.607 -0.1846 -0.8827  3.2162
  118OSM   C16S12437   6.078   4.001   9.669  0.6966  0.1546  0.0110
  118OSM   H16S12438   6.089   3.986   9.778 -1.8795  2.3192  0.6290
  118OSM   H16T12439   6.079   4.111   9.659  1.7421  0.2201  0.7788
  118OSM   C17S12440   6.213   3.935   9.616  0.1491  0.3831 -0.9849
  118OSM   H17S12441   6.236   3.992   9.524  0.4935  0.4978 -0.8292
  118OSM   H17T12442   6.183   3.830   9.596  1.2221 -0.9553  3.7387
  118OSM   C18S12443   6.321   3.930   9.726 -0.8930 -0.4228  0.2365
  118OSM   H18S12444   6.404   3.877   9.675 -0.5634  0.1066  0.2212
  118OSM   H18T12445   6.274   3.880   9.814 -0.9641 -3.5979 -1.5481
  118OSM   H18U12446   6.364   4.027   9.760 -1.6305 -0.0030 -0.0244
  118OSM    C1F12447   5.773   4.175  10.731 -0.5588 -0.3323  0.0299
  118OSM     OF12448   5.831   4.099  10.805 -0.0406  0.1451  0.6070
  118OSM    C2F12449   5.841   4.248  10.617 -0.7208  1.0761 -0.6298
  118OSM    H2F12450   5.949   4.240  10.642 -0.8207  0.6070 -0.3463
  118OSM    H2G12451   5.812   4.355  10.623  1.0931  1.5856 -0.6161
  118OSM    C3F12452   5.824   4.165  10.488  0.3215  0.1155  0.4523
  118OSM    H3F12453   5.721   4.165  10.447 -0.2837  0.0250  1.9503
  118OSM    H3G12454   5.851   4.060  10.510 -0.6415 -0.0992  0.6234
  118OSM    C4F12455   5.909   4.212  10.375 -0.3232 -0.9064  0.1283
  118OSM    H4F12456   6.013   4.195  10.409 -0.5103 -2.0542  0.1462
  118OSM    H4G12457   5.899   4.320  10.354  0.0326 -0.9781 -0.4168
  118OSM    C5F12458   5.881   4.137  10.244 -0.4909 -0.5973 -0.7062
  118OSM    H5F12459   5.772   4.151  10.229 -0.9685 -0.7427  2.3262
  118OSM    H5G12460   5.902   4.034  10.279  2.0400  0.4497  1.0362
  118OSM    C6F12461   5.976   4.161  10.117  0.7732  0.4306 -0.0856
  118OSM    H6F12462   5.927   4.088  10.049  0.2417 -1.2408  2.0270
  118OSM    H6G12463   6.076   4.115  10.134  0.6091  0.3517  0.6858
  118OSM    C7F12464   5.997   4.309  10.073  0.6089  0.6402 -0.4751
  118OSM    H7F12465   6.073   4.347  10.144  0.4651  0.4273 -0.2085
  118OSM    H7G12466   5.904   4.366  10.090  0.1313  0.0591 -1.0963
  118OSM    C8F12467   6.039   4.335   9.925  0.4055 -0.6016  0.1652
  118OSM    H8F12468   5.944   4.327   9.868 -1.4714  1.2644  2.8973
  118OSM    H8G12469   6.109   4.252   9.905  0.3380 -0.6712  0.2191
  118OSM    C9F12470   6.094   4.470   9.904  0.2244  0.3167  0.3610
  118OSM    H9F12471   6.068   4.531   9.992 -1.6973 -0.0239  0.0495
  118OSM   C10F12472   6.161   4.518   9.792  0.5851 -0.2092 -0.5529
  118OSM   H10F12473   6.177   4.627   9.790 -0.9201  0.0947  1.9612
  118OSM   C11F12474   6.192   4.439   9.673  0.1088 -0.0344  1.0894
  118OSM   H11F12475   6.220   4.335   9.702  0.5183 -0.2797 -0.1253
  118OSM   H11G12476   6.279   4.481   9.618 -0.5954  0.7508  0.5697
  118OSM   C12F12477   6.074   4.446   9.573 -0.1611 -0.1494  0.6099
  118OSM   H12F12478   6.054   4.553   9.550  0.4883 -0.1820 -0.1006
  118OSM   H12G12479   5.986   4.401   9.624 -1.7598  0.8940 -1.1735
  118OSM   C13F12480   6.089   4.354   9.448  0.1998 -0.2477  0.0093
  118OSM   H13F12481   6.135   4.259   9.482 -0.2157 -0.0574  1.1521
  118OSM   H13G12482   6.161   4.400   9.377  0.2170  1.0158  0.8203
  118OSM   C14F12483   5.952   4.341   9.369  0.1644  0.0877 -0.0612
  118OSM   H14F12484   5.954   4.440   9.318 -0.0145  0.9836  1.6216
  118OSM   H14G12485   5.866   4.346   9.438 -2.5227 -1.9987 -3.1376
  118OSM   C15F12486   5.948   4.219   9.284 -0.2886 -0.4605 -0.0540
  118OSM   H15F12487   5.960   4.127   9.344 -1.9047 -0.8063 -0.2531
  118OSM   H15G12488   6.038   4.228   9.219  0.8880  0.7067  1.7003
  118OSM   C16F12489   5.824   4.206   9.198  0.0597 -0.3208  0.2393
  118OSM   H16F12490   5.799   4.284   9.123 -0.3565 -1.4264 -0.7928
  118OSM   H16G12491   5.740   4.201   9.270 -0.3307  1.9502 -0.0221
  118OSM   C17F12492   5.817   4.075   9.111 -1.1083  0.3610  0.6307
  118OSM   H17F12493   5.899   4.075   9.036 -2.2341  0.0039 -0.6116
  118OSM   H17G12494   5.725   4.088   9.050 -0.1042  0.6384 -0.8642
  118OSM   C18F12495   5.816   3.942   9.173  0.0616  0.4322  0.1308
  118OSM   H18F12496   5.814   3.862   9.095 -0.5866  0.4985  0.0779
  118OSM   H18G12497   5.726   3.942   9.238 -0.5735 -0.4128 -0.7346
  118OSM   H18H12498   5.900   3.933   9.245 -0.2796 -0.2599  0.4553
  119OSM      N12499   6.009   3.171  11.094  0.3658 -0.4391 -0.3468
  119OSM    C1512500   5.908   3.061  11.091  1.3012  0.7559  0.6197
  119OSM   H15A12501   5.859   3.067  11.187 -0.0394  0.1430 -0.0107
  119OSM   H15B12502   5.940   2.960  11.073 -0.8002  0.4459 -1.6600
  119OSM   H15C12503   5.825   3.096  11.031 -1.4545 -1.3291  3.1199
  119OSM    C1412504   5.944   3.298  11.134  0.3107 -0.3075  0.5394
  119OSM   H14A12505   5.851   3.315  11.081 -0.1460  0.0713  1.4599
  119OSM   H14B12506   6.013   3.381  11.127  0.8665 -1.0023 -4.0940
  119OSM   H14C12507   5.902   3.285  11.232 -2.2826 -0.2165 -0.5247
  119OSM    C1312508   6.117   3.151  11.190 -0.7737 -0.3295  0.1668
  119OSM   H13A12509   6.196   3.224  11.176 -2.2201  1.1483 -0.4043
  119OSM   H13B12510   6.165   3.057  11.167  1.2261  0.7810 -0.3158
  119OSM   H13C12511   6.083   3.145  11.292  1.6688 -0.1240  1.0396
  119OSM    C1212512   6.076   3.187  10.954 -0.4894 -0.2119 -0.9909
  119OSM   H12A12513   6.149   3.266  10.959 -0.2931 -0.2458 -2.9046
  119OSM   H12B12514   5.999   3.212  10.883 -0.9913  1.1180 -0.0024
  119OSM    C1112515   6.149   3.065  10.885  0.0459 -0.4009 -0.4876
  119OSM   H11A12516   6.171   3.091  10.779 -0.0362  2.2656  0.1305
  119OSM   H11B12517   6.074   2.983  10.893  0.2115 -0.6728 -1.6062
  119OSM      P12518   6.405   3.092  10.951 -0.0965  0.2122  0.0545
  119OSM    O1312519   6.400   3.233  10.999  0.2478  0.3124  0.0389
  119OSM    O1412520   6.508   3.001  11.001 -0.1903  0.3425  0.0292
  119OSM    O1112521   6.421   3.099  10.793 -0.6811 -0.1584 -0.0960
  119OSM    O1212522   6.264   3.021  10.962  0.3782 -0.2425 -0.6631
  119OSM    C1S12523   6.430   2.982  10.716  0.4620  0.3365 -0.6301
  119OSM    H1S12524   6.326   2.949  10.695  1.1287 -3.3615  1.5212
  119OSM    H1T12525   6.483   2.896  10.762 -1.4194 -0.7076 -0.3623
  119OSM     NF12526   6.476   2.880  10.504 -0.2859 -0.1498  0.0785
  119OSM    HNF12527   6.549   2.811  10.506  0.0880  0.1335 -2.1709
  119OSM    C2S12528   6.487   2.997  10.586 -0.6012  0.1276 -0.0583
  119OSM    H2S12529   6.440   3.073  10.521 -0.0770 -0.4838 -1.1717
  119OSM    C3S12530   6.634   3.043  10.610  0.4152 -1.0040 -0.5163
  119OSM    H3S12531   6.682   2.964  10.672  2.1799  1.4475  1.3110
  119OSM     O312532   6.644   3.161  10.682 -0.4214 -0.7311 -0.7216
  119OSM    HO312533   6.561   3.168  10.731  0.0197  1.0670 -0.1855
  119OSM    C4S12534   6.698   3.077  10.485  0.1197  0.0245  0.1656
  119OSM    H4S12535   6.672   3.178  10.451  1.2750 -0.4742 -2.3449
  119OSM    C5S12536   6.785   3.004  10.416  0.0375  0.3445 -0.8673
  119OSM    H5S12537   6.802   2.900  10.447 -1.4167  0.6316  1.0162
  119OSM    C6S12538   6.860   3.054  10.293 -0.7532  0.3165  0.5523
  119OSM    H6S12539   6.835   2.991  10.205  1.8337  1.7833 -1.3013
  119OSM    H6T12540   6.967   3.034  10.310 -0.7204 -1.3188 -1.3985
  119OSM    C7S12541   6.828   3.201  10.234  0.2770  0.5060 -0.2615
  119OSM    H7S12542   6.887   3.272  10.296 -2.8308  1.8251  1.2726
  119OSM    H7T12543   6.718   3.212  10.244  0.3218  0.3316  0.4999
  119OSM    C8S12544   6.869   3.215  10.085 -0.0073  0.4223  0.5320
  119OSM    H8S12545   6.822   3.130  10.031 -0.7523  0.8355  0.5234
  119OSM    H8T12546   6.979   3.212  10.097 -0.0520 -1.9942  0.5796
  119OSM    C9S12547   6.833   3.350  10.014  0.2619 -0.2299 -0.5333
  119OSM    H9S12548   6.875   3.429  10.080  1.4848  0.8665 -2.5767
  119OSM    H9T12549   6.726   3.367   9.989  0.3875  0.1459 -0.8135
  119OSM   C10S12550   6.888   3.350   9.874 -0.2383  0.4972  0.8729
  119OSM   H10S12551   6.985   3.301   9.855 -1.3655 -0.6062 -2.2901
  119OSM   H10T12552   6.885   3.459   9.852 -1.1483  0.1561 -0.7472
  119OSM   C11S12553   6.791   3.273   9.774  0.4164 -0.7505 -0.4112
  119OSM   H11S12554   6.692   3.324   9.773  0.2555 -1.0180  1.2238
  119OSM   H11T12555   6.786   3.165   9.802 -0.1634 -0.8176 -0.7604
  119OSM   C12S12556   6.850   3.280   9.635 -0.2446 -0.3253  0.0942
  119OSM   H12S12557   6.931   3.204   9.631 -0.7797 -0.8974 -0.0079
  119OSM   H12T12558   6.890   3.381   9.614  2.9020 -1.5749 -0.2011
  119OSM   C13S12559   6.748   3.233   9.521  0.0777  0.8894 -0.3906
  119OSM   H13S12560   6.666   3.306   9.538 -0.3903  0.3112 -0.1767
  119OSM   H13T12561   6.704   3.135   9.546  3.2000 -1.0318 -1.9837
  119OSM   C14S12562   6.804   3.246   9.385  0.5590 -0.3684 -0.5424
  119OSM   H14S12563   6.875   3.164   9.360  1.5187  0.5305 -0.8063
  119OSM   H14T12564   6.861   3.341   9.383  0.2778 -0.1183  1.5750
  119OSM   C15S12565   6.695   3.253   9.275 -0.0503  0.1590 -0.3175
  119OSM   H15S12566   6.601   3.292   9.321 -1.6075 -2.0796 -1.5033
  119OSM   H15T12567   6.670   3.152   9.235  0.2500 -0.8270  1.8743
  119OSM   C16S12568   6.747   3.345   9.159 -0.0690 -0.3901 -0.2855
  119OSM   H16S12569   6.814   3.288   9.092  0.1218  1.2756 -1.5481
  119OSM   H16T12570   6.805   3.431   9.199  2.9619 -0.7600 -3.6728
  119OSM   C17S12571   6.631   3.399   9.077 -0.2325  0.1187  0.5951
  119OSM   H17S12572   6.549   3.324   9.068 -1.1861  1.1441  0.5884
  119OSM   H17T12573   6.671   3.413   8.974 -0.8879 -0.5624  0.2447
  119OSM   C18S12574   6.577   3.532   9.134 -0.3151 -0.8539 -0.0739
  119OSM   H18S12575   6.487   3.570   9.082 -0.5286  0.6496  1.3654
  119OSM   H18T12576   6.651   3.615   9.127  0.3057 -1.3556  0.4173
  119OSM   H18U12577   6.564   3.527   9.244 -2.0606  1.5208 -0.1322
  119OSM    C1F12578   6.367   2.851  10.440 -0.1325  0.0371 -0.2945
  119OSM     OF12579   6.261   2.896  10.469  0.2375 -0.1729  0.0975
  119OSM    C2F12580   6.383   2.750  10.332 -0.2616  0.5678 -0.1835
  119OSM    H2F12581   6.298   2.679  10.327 -0.9928  1.5853 -3.9489
  119OSM    H2G12582   6.471   2.686  10.352 -0.8347 -0.1656  0.0205
  119OSM    C3F12583   6.381   2.831  10.197  0.3357 -0.2208  0.2037
  119OSM    H3F12584   6.293   2.898  10.189 -0.0812 -0.4903  2.4535
  119OSM    H3G12585   6.366   2.763  10.110 -0.9951  1.0629 -0.6128
  119OSM    C4F12586   6.501   2.922  10.171  0.3355  0.3601 -0.1621
  119OSM    H4F12587   6.591   2.867  10.206  1.3162  1.3294 -1.1017
  119OSM    H4G12588   6.501   3.014  10.234  1.8897 -0.9291  1.7947
  119OSM    C5F12589   6.520   2.948  10.022 -0.4370  0.0976  0.2136
  119OSM    H5F12590   6.606   3.017  10.009 -0.7503  0.1855 -1.5636
  119OSM    H5G12591   6.434   3.003   9.980 -0.0327  0.0167 -0.7291
  119OSM    C6F12592   6.537   2.825   9.929 -0.1103  0.0602 -0.9113
  119OSM    H6F12593   6.438   2.782   9.904  0.2971 -1.5031  0.1117
  119OSM    H6G12594   6.601   2.750   9.980 -2.9873 -2.5665 -1.0811
  119OSM    C7F12595   6.584   2.863   9.794 -0.0420  0.1316  0.5337
  119OSM    H7F12596   6.686   2.905   9.808 -0.3064  1.1739 -0.5140
  119OSM    H7G12597   6.512   2.935   9.748  0.8623  0.2875 -0.6569
  119OSM    C8F12598   6.582   2.751   9.695  0.1730  0.1738 -0.3320
  119OSM    H8F12599   6.587   2.794   9.593 -0.5449 -0.5209 -0.6616
  119OSM    H8G12600   6.480   2.708   9.705  0.0738  0.6687  0.9216
  119OSM    C9F12601   6.691   2.649   9.712  0.7549  0.8155  0.3872
  119OSM    H9F12602   6.721   2.621   9.814  0.1550  0.0434  0.3549
  119OSM   C10F12603   6.749   2.589   9.609 -0.3435  0.6978  0.5606
  119OSM   H10F12604   6.828   2.519   9.638 -0.7905 -0.2714 -0.5106
  119OSM   C11F12605   6.724   2.613   9.464  0.0603  0.5373  0.5013
  119OSM   H11F12606   6.617   2.639   9.448 -0.3480 -1.3787 -0.0102
  119OSM   H11G12607   6.731   2.512   9.418 -0.7859  0.2144  1.0590
  119OSM   C12F12608   6.806   2.709   9.384  0.2359 -0.1758  0.2279
  119OSM   H12F12609   6.912   2.676   9.388  0.6345  1.2310  1.8038
  119OSM   H12G12610   6.805   2.795   9.454  0.9668  1.4377 -1.7132
  119OSM   C13F12611   6.756   2.732   9.246 -0.5582 -0.1046  0.1040
  119OSM   H13F12612   6.647   2.751   9.248 -0.8134 -1.3763  3.7414
  119OSM   H13G12613   6.787   2.639   9.193  1.2658  0.1016  0.7509
  119OSM   C14F12614   6.822   2.856   9.182 -0.3555  0.0939 -0.0159
  119OSM   H14F12615   6.783   2.936   9.249 -0.0217 -1.7096  2.4195
  119OSM   H14G12616   6.785   2.880   9.080  0.1631 -0.1394 -0.2629
  119OSM   C15F12617   6.973   2.855   9.169 -0.3836  0.5186  0.5728
  119OSM   H15F12618   6.991   2.760   9.114 -1.3939 -1.4458  3.5651
  119OSM   H15G12619   7.003   2.830   9.273 -1.2898 -0.7736  0.5426
  119OSM   C16F12620   7.035   2.985   9.106  0.3703  0.6376  0.0158
  119OSM   H16F12621   7.139   2.998   9.142  0.3095 -3.1095  1.8002
  119OSM   H16G12622   6.977   3.076   9.133 -0.9454 -0.3454  0.5552
  119OSM   C17F12623   7.043   2.972   8.950  0.2425  0.2936 -0.2568
  119OSM   H17F12624   6.940   2.963   8.909 -0.1510  0.3526  0.7026
  119OSM   H17G12625   7.100   2.877   8.939  1.5560  0.6739  2.5584
  119OSM   C18F12626   7.123   3.088   8.893 -0.4130  0.0537 -0.8201
  119OSM   H18F12627   7.228   3.086   8.929 -1.0066  1.0653  1.0588
  119OSM   H18G12628   7.064   3.181   8.912  2.5319  1.5003  1.7464
  119OSM   H18H12629   7.132   3.076   8.783  1.1639 -3.1089 -0.3917
  120OSM      N12630   6.169   6.460  11.040 -0.1023 -0.0463  0.2727
  120OSM    C1512631   6.042   6.430  10.965  0.4996 -0.6979  0.3469
  120OSM   H15A12632   5.991   6.352  11.021  2.1896 -0.2303  2.6061
  120OSM   H15B12633   6.052   6.395  10.863 -1.0745 -0.2107  0.0108
  120OSM   H15C12634   5.984   6.521  10.961  1.0851 -0.4175 -2.5425
  120OSM    C1412635   6.136   6.457  11.184 -0.1890  0.2563  1.0905
  120OSM   H14A12636   6.065   6.533  11.214  0.3089  1.0644  0.2489
  120OSM   H14B12637   6.221   6.497  11.237  1.0857  1.0656 -1.4717
  120OSM   H14C12638   6.106   6.361  11.223  0.3236  1.1142  3.7000
  120OSM    C1312639   6.261   6.343  11.009 -0.2268 -0.1756  0.4040
  120OSM   H13A12640   6.224   6.250  11.051 -1.3832 -0.6599 -1.6543
  120OSM   H13B12641   6.357   6.363  11.054 -0.0323 -1.9957  0.8741
  120OSM   H13C12642   6.261   6.340  10.901  1.5214  0.9856  0.3560
  120OSM    C1212643   6.208   6.601  10.997  0.6750  0.2736  0.1119
  120OSM   H12A12644   6.286   6.637  11.063  0.2002 -1.1158  1.4749
  120OSM   H12B12645   6.126   6.668  11.018  0.2773 -0.6553  1.5457
  120OSM    C1112646   6.265   6.627  10.864  0.1421  0.1104  0.6073
  120OSM   H11A12647   6.361   6.571  10.865  0.8072  1.2331  0.2628
  120OSM   H11B12648   6.281   6.736  10.858 -0.8219  0.2667  0.7291
  120OSM      P12649   6.207   6.468  10.653 -0.2152 -0.1401  0.1761
  120OSM    O1312650   6.345   6.416  10.679  0.4575  0.1602  0.1597
  120OSM    O1412651   6.089   6.376  10.657  0.1325 -0.3118 -0.6909
  120OSM    O1112652   6.218   6.540  10.515 -0.5573 -0.2749  0.8908
  120OSM    O1212653   6.174   6.593  10.749  0.0413 -0.5421  0.3560
  120OSM    C1S12654   6.192   6.678  10.486  0.1512 -0.7147 -0.4026
  120OSM    H1S12655   6.260   6.739  10.550 -0.7976 -0.6524  0.5538
  120OSM    H1T12656   6.086   6.706  10.501  1.1692  3.6419 -0.5299
  120OSM     NF12657   6.183   6.857  10.310  0.2892 -0.1121  0.5236
  120OSM    HNF12658   6.100   6.876  10.258 -0.6423 -1.3465  1.5096
  120OSM    C2S12659   6.224   6.714  10.338  0.4636 -1.3893 -0.0574
  120OSM    H2S12660   6.334   6.702  10.332  0.6936  0.5005  0.1498
  120OSM    C3S12661   6.167   6.606  10.241  0.3842  0.3617  0.1230
  120OSM    H3S12662   6.059   6.586  10.257 -0.1332  0.8661 -2.4985
  120OSM     O312663   6.224   6.477  10.257  0.1350 -0.0401 -0.2650
  120OSM    HO312664   6.222   6.463  10.352  1.4514  2.9642  0.2801
  120OSM    C4S12665   6.181   6.633  10.087  0.1876  0.8168 -1.1796
  120OSM    H4S12666   6.274   6.595  10.043  1.0609  0.1843  1.1604
  120OSM    C5S12667   6.093   6.701  10.008  0.2082  0.0590  0.1146
  120OSM    H5S12668   6.009   6.756  10.055  0.9553  1.0225  0.3266
  120OSM    C6S12669   6.112   6.725   9.858 -0.4661 -0.5188 -0.0390
  120OSM    H6S12670   6.037   6.678   9.792  0.5833 -2.3950  0.0784
  120OSM    H6T12671   6.204   6.675   9.821 -0.9434 -0.0311 -1.8897
  120OSM    C7S12672   6.137   6.878   9.834 -0.2580  0.0162  0.5628
  120OSM    H7S12673   6.224   6.928   9.881 -0.4068 -1.0649  2.0130
  120OSM    H7T12674   6.045   6.935   9.859  0.6906  0.9119  2.0969
  120OSM    C8S12675   6.148   6.907   9.677 -0.2869  0.3746 -0.3103
  120OSM    H8S12676   6.203   6.829   9.620  0.5674  0.9796 -0.3198
  120OSM    H8T12677   6.200   7.005   9.667  0.4414  0.3717  3.0175
  120OSM    C9S12678   6.007   6.922   9.610 -0.6711  1.0092 -0.0397
  120OSM    H9S12679   5.954   7.005   9.659 -0.7702  0.4609  0.7805
  120OSM    H9T12680   5.956   6.826   9.632  0.1843  0.3344 -0.9165
  120OSM   C10S12681   6.010   6.931   9.458  0.0698  0.7710 -0.8120
  120OSM   H10S12682   6.054   7.028   9.429  0.6618  0.0846 -2.2818
  120OSM   H10T12683   5.906   6.939   9.420 -0.0667 -1.2847 -0.9558
  120OSM   C11S12684   6.090   6.816   9.390  0.6217 -0.0918 -0.3516
  120OSM   H11S12685   6.065   6.729   9.454  0.7938  0.6944  0.7849
  120OSM   H11T12686   6.200   6.823   9.399  0.6924 -2.2217  0.7399
  120OSM   C12S12687   6.052   6.781   9.241 -0.1243  0.6491 -0.3414
  120OSM   H12S12688   6.085   6.862   9.172 -0.4329  1.3796  0.3649
  120OSM   H12T12689   5.942   6.773   9.237  0.0308 -2.5646  0.0178
  120OSM   C13S12690   6.104   6.643   9.185 -0.2260 -0.6248 -0.2178
  120OSM   H13S12691   6.066   6.573   9.262  0.6946  1.0705  1.8139
  120OSM   H13T12692   6.214   6.646   9.169 -0.5376 -0.4283 -2.5925
  120OSM   C14S12693   6.042   6.628   9.045 -0.0514  0.2591 -0.3691
  120OSM   H14S12694   6.077   6.721   8.996 -2.6916  2.0054  1.0018
  120OSM   H14T12695   5.934   6.641   9.064 -0.1638  2.0973 -2.0368
  120OSM   C15S12696   6.095   6.503   8.979  0.2837 -0.3161  0.0786
  120OSM   H15S12697   6.115   6.428   9.058 -1.7791 -0.2342  0.7005
  120OSM   H15T12698   6.187   6.521   8.919  0.4597  3.7585  1.4226
  120OSM   C16S12699   5.992   6.437   8.890  0.3718  0.1954  0.2011
  120OSM   H16S12700   5.900   6.420   8.950 -0.3734  0.3685 -0.8942
  120OSM   H16T12701   6.038   6.348   8.841  1.6193  0.5439  0.7042
  120OSM   C17S12702   5.959   6.539   8.783  0.3653 -0.2333  0.6110
  120OSM   H17S12703   6.049   6.572   8.726  0.9537 -0.6867  1.2770
  120OSM   H17T12704   5.906   6.625   8.830  1.7871  1.5604 -0.9696
  120OSM   C18S12705   5.858   6.489   8.679 -0.5723  0.4259  1.0431
  120OSM   H18S12706   5.834   6.555   8.592 -0.4148 -1.7585 -0.6914
  120OSM   H18T12707   5.760   6.459   8.723 -0.6728  0.6997  1.0109
  120OSM   H18U12708   5.895   6.407   8.615  0.4585  1.1801  0.6556
  120OSM    C1F12709   6.251   6.961  10.361  0.0569  0.0034  0.4221
  120OSM     OF12710   6.343   6.956  10.441 -0.2607  0.2379 -0.3733
  120OSM    C2F12711   6.218   7.097  10.300  0.1527  0.1189  0.2449
  120OSM    H2F12712   6.113   7.112  10.334  0.3538  0.3708  0.7592
  120OSM    H2G12713   6.219   7.093  10.189  3.0585  0.6238  0.2281
  120OSM    C3F12714   6.317   7.200  10.334 -0.7234 -0.6139  0.1432
  120OSM    H3F12715   6.419   7.158  10.337 -0.3055  0.4316  0.6884
  120OSM    H3G12716   6.310   7.225  10.442  0.9792  2.2542 -0.3458
  120OSM    C4F12717   6.304   7.330  10.253 -0.5982  0.5581 -0.1941
  120OSM    H4F12718   6.316   7.411  10.328 -0.4132 -0.0646  0.4683
  120OSM    H4G12719   6.207   7.344  10.203 -1.0339  1.2068  0.8118
  120OSM    C5F12720   6.415   7.347  10.151 -0.1227  0.3195 -0.3095
  120OSM    H5F12721   6.518   7.330  10.190  0.1869  1.8798 -0.4295
  120OSM    H5G12722   6.401   7.449  10.110 -3.7479  1.2758  3.0283
  120OSM    C6F12723   6.396   7.246  10.034  0.2389  0.1135 -0.0642
  120OSM    H6F12724   6.291   7.219  10.009  0.3438  0.1254 -0.5392
  120OSM    H6G12725   6.436   7.148  10.066 -0.9886 -0.2629  0.3668
  120OSM    C7F12726   6.470   7.291   9.905 -0.5799 -0.3498 -1.0869
  120OSM    H7F12727   6.498   7.198   9.851  0.6457  0.0795 -1.2049
  120OSM    H7G12728   6.568   7.330   9.940 -1.3845 -1.0631  2.1780
  120OSM    C8F12729   6.393   7.390   9.817 -0.5981  0.3858 -0.7157
  120OSM    H8F12730   6.458   7.417   9.731  2.4758  0.0070  1.4153
  120OSM    H8G12731   6.364   7.479   9.876  0.6886  0.8775 -0.8149
  120OSM    C9F12732   6.260   7.332   9.766  0.5567 -0.2784 -0.0552
  120OSM    H9F12733   6.182   7.326   9.842  0.5314 -1.9150 -0.2010
  120OSM   C10F12734   6.224   7.298   9.644 -0.1738 -0.0132  0.6833
  120OSM   H10F12735   6.131   7.240   9.630 -0.3790  0.7642 -1.3826
  120OSM   C11F12736   6.313   7.290   9.522  0.0703  0.0369  0.0861
  120OSM   H11F12737   6.321   7.182   9.493 -3.9027  0.2893 -2.3468
  120OSM   H11G12738   6.418   7.310   9.553  0.4498 -0.5065 -0.8082
  120OSM   C12F12739   6.287   7.392   9.412 -0.2380  0.3689  0.6762
  120OSM   H12F12740   6.370   7.386   9.339  0.8890  2.4942  1.7263
  120OSM   H12G12741   6.292   7.495   9.454 -1.2175  1.5743 -2.0373
  120OSM   C13F12742   6.155   7.375   9.348 -0.2336 -0.0260  0.0445
  120OSM   H13F12743   6.080   7.413   9.421 -0.5931 -0.6752  0.0154
  120OSM   H13G12744   6.131   7.270   9.321  1.7473 -0.2052 -1.1189
  120OSM   C14F12745   6.139   7.462   9.223 -0.3122  0.5435  0.4300
  120OSM   H14F12746   6.212   7.431   9.145 -2.2615 -0.5484 -1.0038
  120OSM   H14G12747   6.173   7.567   9.237 -1.6411  0.7466  2.3944
  120OSM   C15F12748   5.991   7.445   9.174  0.3300 -0.1106  0.1413
  120OSM   H15F12749   5.927   7.478   9.259 -2.8940  0.7102 -2.5322
  120OSM   H15G12750   5.979   7.337   9.152  1.8557 -0.0532 -0.9997
  120OSM   C16F12751   5.964   7.538   9.054 -0.2200  0.2812 -0.6325
  120OSM   H16F12752   6.028   7.629   9.045  0.3463 -0.1275 -0.7741
  120OSM   H16G12753   5.861   7.579   9.062 -0.2124  0.2237 -0.2309
  120OSM   C17F12754   5.976   7.454   8.927  0.5835  0.3420 -0.5541
  120OSM   H17F12755   5.904   7.498   8.855 -0.5572 -0.7332 -0.1071
  120OSM   H17G12756   5.924   7.360   8.955 -2.8575  2.0202 -1.0986
  120OSM   C18F12757   6.110   7.451   8.863 -0.0416 -0.3733  0.2686
  120OSM   H18F12758   6.127   7.371   8.788 -2.3106 -0.0255 -0.6355
  120OSM   H18G12759   6.192   7.429   8.936  0.6393  0.5470 -0.2068
  120OSM   H18H12760   6.125   7.552   8.818  1.6453 -0.0058  1.5786
  121OSM      N12761   4.544   3.192  10.884  0.4863  0.0904  0.1549
  121OSM    C1512762   4.549   3.043  10.874  0.2585 -0.5909 -0.1681
  121OSM   H15A12763   4.650   3.013  10.898 -0.0040 -0.0093  1.7745
  121OSM   H15B12764   4.530   3.019  10.771 -1.2859  1.3432 -0.3676
  121OSM   H15C12765   4.479   2.996  10.941  1.8753  0.2983  2.2125
  121OSM    C1412766   4.648   3.252  10.782  0.8610 -0.8469 -0.1308
  121OSM   H14A12767   4.741   3.198  10.795  2.5711  1.4803 -2.3042
  121OSM   H14B12768   4.657   3.359  10.777  1.2007 -0.8190  1.0932
  121OSM   H14C12769   4.613   3.227  10.682  0.0443  0.1114 -0.0879
  121OSM    C1312770   4.409   3.239  10.842 -0.7779 -0.0960 -0.3425
  121OSM   H13A12771   4.323   3.197  10.893 -2.0631  0.6735 -1.8273
  121OSM   H13B12772   4.394   3.199  10.743 -1.0830  0.5686 -0.5640
  121OSM   H13C12773   4.408   3.345  10.821 -0.5415 -0.6970 -3.5513
  121OSM    C1212774   4.573   3.232  11.025  1.0053 -0.8476  0.7240
  121OSM   H12A12775   4.500   3.197  11.096 -1.0339 -2.0438 -1.8995
  121OSM   H12B12776   4.564   3.339  11.041  2.9186 -0.9402  2.6949
  121OSM    C1112777   4.719   3.192  11.075 -0.3713  0.0022  0.1385
  121OSM   H11A12778   4.721   3.254  11.167  2.0911 -1.1205  0.8828
  121OSM   H11B12779   4.796   3.237  11.008  1.2290 -2.1778  0.4547
  121OSM      P12780   4.883   2.994  11.086  0.1075  0.4167 -0.0287
  121OSM    O1312781   4.960   3.077  11.181 -0.3412  0.9829  0.1542
  121OSM    O1412782   4.872   2.847  11.117 -0.7687  0.0271 -0.1647
  121OSM    O1112783   4.920   3.025  10.935  0.1631 -0.2638  0.0246
  121OSM    O1212784   4.742   3.051  11.098  0.3553  0.9205  0.1164
  121OSM    C1S12785   4.919   2.920  10.846 -0.2028 -0.0442 -0.3200
  121OSM    H1S12786   4.815   2.882  10.849 -0.5273  0.7941 -1.0376
  121OSM    H1T12787   4.995   2.842  10.872  1.2774  1.2338 -0.7191
  121OSM     NF12788   4.932   2.860  10.612 -0.2717  0.0767  0.1792
  121OSM    HNF12789   5.009   2.820  10.562 -0.5617  1.6503 -1.5857
  121OSM    C2S12790   4.962   2.966  10.706  0.4185 -0.0198 -0.3889
  121OSM    H2S12791   4.915   3.059  10.668 -1.3007 -0.5405  0.4417
  121OSM    C3S12792   5.110   3.002  10.709  0.1496  0.2777 -0.0023
  121OSM    H3S12793   5.180   2.916  10.711 -0.8941 -0.6020 -0.8098
  121OSM     O312794   5.157   3.084  10.816 -0.1006 -0.1817  0.0822
  121OSM    HO312795   5.090   3.066  10.883  0.7675 -0.2508  0.9333
  121OSM    C4S12796   5.146   3.061  10.568  0.0094 -0.1057 -0.5231
  121OSM    H4S12797   5.197   2.989  10.502 -2.8974 -1.3038 -1.5511
  121OSM    C5S12798   5.113   3.188  10.530  0.1640 -0.1777  0.4969
  121OSM    H5S12799   5.068   3.247  10.611  0.3232 -0.4289  0.7743
  121OSM    C6S12800   5.132   3.254  10.393 -0.4361 -0.1295 -0.0697
  121OSM    H6S12801   5.206   3.336  10.401 -1.1877  0.7118 -1.4037
  121OSM    H6T12802   5.036   3.295  10.353 -0.1407  0.8028  0.1817
  121OSM    C7S12803   5.206   3.167  10.281  0.0889  0.7897 -0.3748
  121OSM    H7S12804   5.166   3.064  10.285 -1.8278  1.4897 -0.8874
  121OSM    H7T12805   5.313   3.159  10.308  0.1237  0.4368 -0.6235
  121OSM    C8S12806   5.199   3.210  10.132 -0.0889  0.6889  0.6390
  121OSM    H8S12807   5.288   3.185  10.070  0.1933 -2.8947  2.3862
  121OSM    H8T12808   5.199   3.321  10.120  0.2071  0.3246 -3.3148
  121OSM    C9S12809   5.070   3.161  10.067  0.5677 -0.3693 -0.0950
  121OSM    H9S12810   4.985   3.215  10.114  0.2143 -1.4540  0.5274
  121OSM    H9T12811   5.062   3.052  10.087 -0.3713 -0.1489  0.7527
  121OSM   C10S12812   5.059   3.185   9.915  0.3272  0.4888 -0.2543
  121OSM   H10S12813   4.958   3.152   9.883  0.7513 -1.5054  0.3821
  121OSM   H10T12814   5.118   3.113   9.854 -0.2295 -0.8038  0.7225
  121OSM   C11S12815   5.098   3.328   9.862  0.2368  0.3049  0.4142
  121OSM   H11S12816   5.205   3.349   9.886  0.0856  0.0229  1.3784
  121OSM   H11T12817   5.034   3.407   9.908 -1.2485  0.6339 -2.1427
  121OSM   C12S12818   5.086   3.344   9.707 -0.3033  0.1080 -0.0626
  121OSM   H12S12819   4.980   3.319   9.682 -0.4590 -0.0587  0.7648
  121OSM   H12T12820   5.144   3.267   9.652  1.8096  0.4175  1.6978
  121OSM   C13S12821   5.134   3.479   9.653  0.4100 -0.5797  0.2139
  121OSM   H13S12822   5.235   3.495   9.694  0.8964 -0.5370 -0.9899
  121OSM   H13T12823   5.069   3.559   9.693  0.3971 -1.2906  1.6484
  121OSM   C14S12824   5.141   3.481   9.501 -0.4893  0.4095  0.3373
  121OSM   H14S12825   5.051   3.437   9.453 -0.9917  1.5489  0.2300
  121OSM   H14T12826   5.225   3.421   9.460  0.5083  1.2054  1.1908
  121OSM   C15S12827   5.159   3.630   9.461  0.3740 -0.2214  0.1405
  121OSM   H15S12828   5.252   3.675   9.503  0.3069 -0.4310  0.5147
  121OSM   H15T12829   5.065   3.677   9.496 -0.3502  0.1043 -2.1347
  121OSM   C16S12830   5.167   3.650   9.308 -0.6651 -0.6563  0.1260
  121OSM   H16S12831   5.173   3.760   9.296  0.3752 -0.6168  0.9133
  121OSM   H16T12832   5.085   3.605   9.248 -0.8224 -1.2693  0.7904
  121OSM   C17S12833   5.282   3.572   9.234  0.5739  0.4091  0.1660
  121OSM   H17S12834   5.262   3.463   9.238  1.4023  0.2932  1.4699
  121OSM   H17T12835   5.384   3.588   9.275  1.2310 -1.6119 -0.6195
  121OSM   C18S12836   5.283   3.606   9.084  0.2701  0.0959 -0.2405
  121OSM   H18S12837   5.272   3.716   9.080 -0.7786 -0.0043 -0.4262
  121OSM   H18T12838   5.192   3.566   9.035 -1.3158  2.2549  0.8616
  121OSM   H18U12839   5.374   3.570   9.031  0.8760  1.6156 -0.2374
  121OSM    C1F12840   4.811   2.818  10.583  0.5140  0.2773 -0.1526
  121OSM     OF12841   4.708   2.875  10.622 -0.3811 -0.1295 -0.4498
  121OSM    C2F12842   4.802   2.688  10.502 -0.3560 -0.4167  0.5113
  121OSM    H2F12843   4.696   2.660  10.486 -0.6927  0.9568  0.2366
  121OSM    H2G12844   4.847   2.608  10.564 -0.1406  0.0131  0.9155
  121OSM    C3F12845   4.869   2.702  10.360 -0.0404  0.0638 -0.5565
  121OSM    H3F12846   4.979   2.698  10.370 -0.0577 -1.9220 -0.9367
  121OSM    H3G12847   4.838   2.800  10.319  3.7373  0.9451 -1.3978
  121OSM    C4F12848   4.840   2.585  10.269  0.7864 -0.8683 -0.1565
  121OSM    H4F12849   4.734   2.604  10.243  0.7957 -0.7284 -0.0970
  121OSM    H4G12850   4.851   2.487  10.320  0.3152 -1.8781 -1.9751
  121OSM    C5F12851   4.934   2.580  10.143  0.7677 -0.3788 -0.3510
  121OSM    H5F12852   4.928   2.480  10.094 -2.3512  0.1383 -1.1495
  121OSM    H5G12853   5.036   2.594  10.185  0.3929 -0.7947  0.6903
  121OSM    C6F12854   4.898   2.683  10.031  0.0238  0.5157 -0.3293
  121OSM    H6F12855   4.927   2.775  10.086  1.4062  1.3880 -2.4648
  121OSM    H6G12856   4.789   2.673  10.012 -0.0054 -2.8099  1.2687
  121OSM    C7F12857   4.982   2.664   9.904  0.4118 -0.2914  0.1583
  121OSM    H7F12858   4.948   2.573   9.849 -0.1606 -0.2169  0.3949
  121OSM    H7G12859   5.091   2.661   9.926  0.3036  0.7908  0.8501
  121OSM    C8F12860   4.951   2.786   9.806  0.0171  0.6800 -0.9575
  121OSM    H8F12861   4.968   2.882   9.860 -2.5638  1.2332 -1.0770
  121OSM    H8G12862   4.841   2.787   9.789  0.0973 -0.4327 -1.6084
  121OSM    C9F12863   5.018   2.775   9.665 -0.1531  0.4288  0.8669
  121OSM    H9F12864   5.075   2.681   9.655 -1.5641 -0.3700  0.1635
  121OSM   C10F12865   5.036   2.864   9.567  0.1703 -0.0349 -0.0624
  121OSM   H10F12866   5.068   2.827   9.469 -0.6289 -2.2683  0.4800
  121OSM   C11F12867   4.979   3.002   9.578 -0.8366 -0.5514 -0.3388
  121OSM   H11F12868   5.051   3.080   9.611 -2.5317  1.6907 -1.7935
  121OSM   H11G12869   4.891   3.005   9.644 -1.5858  0.0941 -1.3514
  121OSM   C12F12870   4.929   3.037   9.439 -0.0582 -0.7507 -0.7539
  121OSM   H12F12871   4.872   3.131   9.448  0.4675 -0.4550 -0.4992
  121OSM   H12G12872   4.851   2.963   9.409  0.3630 -2.4536  2.1247
  121OSM   C13F12873   5.039   3.069   9.336 -0.3366 -0.3318  0.7941
  121OSM   H13F12874   5.097   2.984   9.295  0.8024  1.6740 -1.8882
  121OSM   H13G12875   5.098   3.152   9.380 -0.4726  0.6363 -0.7993
  121OSM   C14F12876   4.982   3.148   9.212 -0.2773  0.2076  0.1308
  121OSM   H14F12877   5.065   3.193   9.153 -4.1275  2.9344 -3.4622
  121OSM   H14G12878   4.928   3.237   9.250 -0.6516  0.9154 -2.0301
  121OSM   C15F12879   4.886   3.061   9.126 -0.0199 -0.3070 -0.1966
  121OSM   H15F12880   4.794   3.030   9.180 -0.2014 -0.8801 -0.8191
  121OSM   H15G12881   4.952   2.975   9.100 -0.2294 -0.9256  1.2979
  121OSM   C16F12882   4.845   3.119   8.989 -0.6700 -0.0857  0.6340
  121OSM   H16F12883   4.814   3.223   9.012  0.6478  0.7579 -1.2392
  121OSM   H16G12884   4.755   3.060   8.960 -0.6154 -0.0188  0.3228
  121OSM   C17F12885   4.953   3.116   8.875  0.1072 -0.4596  0.7922
  121OSM   H17F12886   4.984   3.009   8.868 -0.7209 -0.5707 -1.4791
  121OSM   H17G12887   5.039   3.180   8.905 -0.3527  1.5926 -2.1415
  121OSM   C18F12888   4.899   3.163   8.737 -0.6811 -0.4409 -0.5405
  121OSM   H18F12889   4.846   3.259   8.752 -0.3123 -0.1793 -0.9300
  121OSM   H18G12890   4.824   3.084   8.711  0.8506 -2.2986  0.5478
  121OSM   H18H12891   4.981   3.169   8.663 -1.1248 -1.1585 -1.1015
  122OSM      N12892   5.675   1.258  11.040 -0.1975  0.2204  0.4771
  122OSM    C1512893   5.671   1.390  11.109  0.6928  0.0349  0.1692
  122OSM   H15A12894   5.637   1.388  11.211 -1.0438  0.8795 -0.3882
  122OSM   H15B12895   5.599   1.457  11.066  1.1156 -0.1581 -0.8573
  122OSM   H15C12896   5.766   1.439  11.126  2.0834 -3.1467  2.1586
  122OSM    C1412897   5.776   1.167  11.115  0.3989  0.0958  0.1690
  122OSM   H14A12898   5.790   1.080  11.052 -0.8091  0.0056  0.0075
  122OSM   H14B12899   5.739   1.132  11.211 -1.1310  0.6618 -0.2054
  122OSM   H14C12900   5.864   1.219  11.148  0.6408 -2.3117  3.6789
  122OSM    C1312901   5.529   1.210  11.031 -0.6426  0.3629 -0.1632
  122OSM   H13A12902   5.470   1.268  10.962 -2.3287 -0.3347  0.6534
  122OSM   H13B12903   5.484   1.195  11.128 -1.1760 -0.4426 -0.5303
  122OSM   H13C12904   5.520   1.116  10.979  1.1396 -0.5553  1.1573
  122OSM    C1212905   5.716   1.286  10.896 -0.1154  0.0105 -0.3087
  122OSM   H12A12906   5.814   1.330  10.893  0.2674 -0.7076  1.5181
  122OSM   H12B12907   5.648   1.358  10.852  0.0491  0.8132  0.7546
  122OSM    C1112908   5.716   1.171  10.803  0.0420 -0.3807 -0.0556
  122OSM   H11A12909   5.773   1.208  10.715 -1.0728  0.7362 -0.3188
  122OSM   H11B12910   5.613   1.150  10.769 -0.0938 -0.1544  0.2139
  122OSM      P12911   5.782   0.936  10.749  0.0708  0.2908  0.1210
  122OSM    O1312912   5.901   0.849  10.785  0.0761 -0.5181  0.3451
  122OSM    O1412913   5.648   0.871  10.746 -0.1231 -0.5211  0.0237
  122OSM    O1112914   5.802   1.010  10.612 -0.0971 -0.6898 -0.1909
  122OSM    O1212915   5.783   1.051  10.849  0.5048 -0.6935  0.0250
  122OSM    C1S12916   5.899   0.969  10.520  0.1505 -0.4778 -0.2218
  122OSM    H1S12917   5.916   0.859  10.520  0.2064 -0.4699 -1.2379
  122OSM    H1T12918   5.991   1.030  10.530 -0.1491  0.1272 -1.1153
  122OSM     NF12919   5.976   0.977  10.283 -0.6050  0.0366  0.0097
  122OSM    HNF12920   6.020   1.063  10.259 -0.3149 -0.4943 -1.3791
  122OSM    C2S12921   5.857   0.999  10.376  0.0897  0.4859  0.1396
  122OSM    H2S12922   5.773   0.934  10.344  1.0820 -1.0016  0.4753
  122OSM    C3S12923   5.800   1.141  10.369  0.1685 -0.2895 -0.0082
  122OSM    H3S12924   5.879   1.210  10.406  0.4515 -0.5696 -0.0921
  122OSM     O312925   5.690   1.171  10.455  0.2022 -0.1244 -0.1055
  122OSM    HO312926   5.700   1.098  10.517  4.4184 -0.4061 -0.9476
  122OSM    C4S12927   5.770   1.175  10.226 -0.2950 -0.0739  0.0952
  122OSM    H4S12928   5.845   1.226  10.164  0.5830 -2.0403 -0.5180
  122OSM    C5S12929   5.649   1.143  10.170 -0.0004  0.9161  0.1807
  122OSM    H5S12930   5.569   1.092  10.226 -0.2567  2.9869  1.7485
  122OSM    C6S12931   5.602   1.176  10.031  0.3388 -0.3417 -0.5555
  122OSM    H6S12932   5.539   1.267  10.027  2.4317  1.2166  1.0379
  122OSM    H6T12933   5.530   1.096  10.000  0.4265 -0.3680 -0.6924
  122OSM    C7S12934   5.713   1.197   9.934  0.1884 -0.0778 -0.6799
  122OSM    H7S12935   5.779   1.107   9.933  1.4432  0.6921  3.3573
  122OSM    H7T12936   5.775   1.284   9.963 -0.4567 -0.0193  0.5459
  122OSM    C8S12937   5.671   1.228   9.789  0.1403 -0.3214  0.4397
  122OSM    H8S12938   5.761   1.248   9.726 -1.5270  2.6074 -1.1211
  122OSM    H8T12939   5.598   1.311   9.783  0.6214  0.1722  1.4160
  122OSM    C9S12940   5.611   1.107   9.727  0.0512  0.4679  0.1011
  122OSM    H9S12941   5.530   1.061   9.787  0.4889 -2.9114 -1.7449
  122OSM    H9T12942   5.692   1.031   9.717 -0.1165  0.3397 -0.2659
  122OSM   C10S12943   5.550   1.139   9.589  0.1546 -0.5494  0.4358
  122OSM   H10S12944   5.618   1.217   9.548 -1.0863 -0.5068 -1.6177
  122OSM   H10T12945   5.448   1.180   9.602  0.4312 -0.4377  2.3553
  122OSM   C11S12946   5.536   1.010   9.503 -0.3821  0.3431  0.3028
  122OSM   H11S12947   5.494   0.925   9.560 -1.6313  0.0353 -1.0376
  122OSM   H11T12948   5.640   0.993   9.468  0.0830  0.2719  1.7107
  122OSM   C12S12949   5.441   1.032   9.384  0.2332 -0.1069 -0.4460
  122OSM   H12S12950   5.340   1.059   9.423  0.7473 -1.5841  2.0328
  122OSM   H12T12951   5.431   0.941   9.321 -0.7787 -0.8799  0.7769
  122OSM   C13S12952   5.495   1.145   9.293  0.3790  0.1634  0.4652
  122OSM   H13S12953   5.602   1.127   9.269  0.2377  0.0514 -0.0864
  122OSM   H13T12954   5.490   1.244   9.344  1.1568  0.7213 -0.5287
  122OSM   C14S12955   5.411   1.155   9.159 -0.3602  0.1539 -0.4428
  122OSM   H14S12956   5.315   1.198   9.196 -0.3418 -0.2146  0.0285
  122OSM   H14T12957   5.385   1.050   9.134 -1.1312  0.9549 -3.2916
  122OSM   C15S12958   5.476   1.241   9.043  0.6644 -0.0807 -0.2444
  122OSM   H15S12959   5.503   1.340   9.085 -1.5529 -0.1929  1.5915
  122OSM   H15T12960   5.405   1.263   8.961  2.7754  2.3328 -1.4626
  122OSM   C16S12961   5.609   1.185   8.994  0.5485  0.5179 -0.8063
  122OSM   H16S12962   5.596   1.077   8.973 -3.0673  0.7552 -0.1249
  122OSM   H16T12963   5.678   1.199   9.080 -1.5504  1.4659  0.7659
  122OSM   C17S12964   5.654   1.247   8.866 -0.3711  0.5580  0.0394
  122OSM   H17S12965   5.656   1.356   8.885  1.2296  0.2657  1.6406
  122OSM   H17T12966   5.566   1.227   8.800  1.2261 -1.9366 -1.4142
  122OSM   C18S12967   5.789   1.205   8.799  0.3087 -0.3398  0.4133
  122OSM   H18S12968   5.773   1.249   8.698  2.5260 -1.6247 -0.5277
  122OSM   H18T12969   5.791   1.095   8.786  0.2211 -0.4759  1.5262
  122OSM   H18U12970   5.879   1.244   8.852 -0.1240 -1.3066  1.8972
  122OSM    C1F12971   6.033   0.864  10.253 -0.6474  0.7826  0.1523
  122OSM     OF12972   6.000   0.754  10.294 -0.6086 -0.4533 -0.0214
  122OSM    C2F12973   6.162   0.885  10.165  0.1334  0.1695 -0.3094
  122OSM    H2F12974   6.245   0.830  10.214  1.0471  0.8880 -1.0427
  122OSM    H2G12975   6.192   0.991  10.157  1.1116 -0.1576 -1.1135
  122OSM    C3F12976   6.149   0.831  10.023 -0.2953  0.5955 -0.0159
  122OSM    H3F12977   6.101   0.731  10.028  0.5284  0.1703 -0.4493
  122OSM    H3G12978   6.245   0.824   9.968  0.4142  1.9677  1.0209
  122OSM    C4F12979   6.070   0.923   9.937  0.5905 -0.0578  0.2060
  122OSM    H4F12980   6.103   1.027   9.951  0.4859  0.4197 -2.6774
  122OSM    H4G12981   5.963   0.921   9.969  0.4246  1.5379 -0.2023
  122OSM    C5F12982   6.061   0.880   9.786  0.3445 -0.0243  1.0820
  122OSM    H5F12983   5.987   0.798   9.779  0.0832  0.4211 -2.6157
  122OSM    H5G12984   6.165   0.856   9.754  0.2915 -1.2691  1.8064
  122OSM    C6F12985   6.015   0.987   9.693 -0.1979 -0.4058  0.1312
  122OSM    H6F12986   6.094   1.063   9.705  1.6759 -2.3283  0.2265
  122OSM    H6G12987   5.921   1.039   9.723 -0.9267 -1.7348  0.2225
  122OSM    C7F12988   5.982   0.940   9.553 -0.7531  0.3945 -0.3244
  122OSM    H7F12989   5.888   0.881   9.540  1.3845 -3.4197  0.8466
  122OSM    H7G12990   6.060   0.863   9.535  0.1816  1.6669 -1.8344
  122OSM    C8F12991   5.986   1.048   9.450 -0.2676  0.0484  0.3363
  122OSM    H8F12992   5.930   1.137   9.486  0.8324  1.0679 -0.3960
  122OSM    H8G12993   5.939   1.016   9.355  2.0487 -1.1153 -0.4570
  122OSM    C9F12994   6.132   1.086   9.425  0.3465  0.1514 -0.3349
  122OSM    H9F12995   6.188   1.092   9.520  0.3965 -2.2853 -0.1889
  122OSM   C10F12996   6.202   1.091   9.308 -0.4362  0.8798 -0.1070
  122OSM   H10F12997   6.307   1.119   9.317  0.0005  0.5874 -3.4896
  122OSM   C11F12998   6.157   1.077   9.164 -0.4161 -0.1868 -0.1488
  122OSM   H11F12999   6.086   0.992   9.165 -0.6913  0.0588  1.1300
  122OSM   H11G13000   6.246   1.056   9.100 -0.0276  3.1450 -0.7860
  122OSM   C12F13001   6.089   1.211   9.109  0.3805  0.6177 -0.2912
  122OSM   H12F13002   6.003   1.231   9.177 -0.1047 -1.1806 -0.3315
  122OSM   H12G13003   6.035   1.197   9.013  1.5594 -3.1308 -0.4960
  122OSM   C13F13004   6.177   1.337   9.103  0.6403  0.6682 -0.6845
  122OSM   H13F13005   6.269   1.298   9.055 -0.4075 -1.4009 -1.0622
  122OSM   H13G13006   6.213   1.375   9.201 -1.8595  0.3955  0.3756
  122OSM   C14F13007   6.109   1.448   9.014 -0.5602  0.4819  0.5367
  122OSM   H14F13008   6.126   1.409   8.911 -2.4855 -0.4117  0.5418
  122OSM   H14G13009   6.173   1.539   9.007 -0.7631  0.5838  0.0044
  122OSM   C15F13010   5.961   1.477   9.043  0.0699  0.6134 -0.8087
  122OSM   H15F13011   5.959   1.507   9.150 -2.6704  0.7444 -0.8615
  122OSM   H15G13012   5.897   1.386   9.040  2.5723 -1.2663  0.3510
  122OSM   C16F13013   5.903   1.568   8.935 -0.6681 -0.0216  0.0833
  122OSM   H16F13014   5.900   1.513   8.839  3.3219 -1.4547  0.7055
  122OSM   H16G13015   5.973   1.654   8.922 -2.3629  1.2291 -1.1806
  122OSM   C17F13016   5.768   1.625   8.971 -0.2956  0.2322 -0.2807
  122OSM   H17F13017   5.775   1.687   9.063  1.1480 -0.5582  0.1713
  122OSM   H17G13018   5.713   1.531   8.993 -0.1692  0.4781  1.1134
  122OSM   C18F13019   5.679   1.690   8.865 -0.3139 -0.3813  0.3595
  122OSM   H18F13020   5.610   1.766   8.906 -1.5325 -1.6075  0.6169
  122OSM   H18G13021   5.614   1.617   8.812 -2.5434  1.3037  0.7205
  122OSM   H18H13022   5.742   1.744   8.791 -2.9624  0.6342 -1.1984
  123OSM      N13023   2.989   6.122   5.881 -1.0698 -0.6159 -0.0681
  123OSM    C1513024   2.979   6.121   6.028 -0.1723 -0.1639 -0.1003
  123OSM   H15A13025   2.897   6.057   6.056 -0.1517 -0.2058 -0.1354
  123OSM   H15B13026   2.956   6.216   6.073 -1.5531  0.2648 -1.6588
  123OSM   H15C13027   3.075   6.090   6.066  0.4871 -0.7243 -2.1773
  123OSM    C1413028   2.969   5.976   5.839  0.3483 -0.2960  0.2743
  123OSM   H14A13029   2.951   5.979   5.733  1.2905  0.9630  0.1333
  123OSM   H14B13030   2.878   5.941   5.886 -0.5610 -0.4567 -1.5571
  123OSM   H14C13031   3.057   5.920   5.866  2.1844  2.2758 -0.2409
  123OSM    C1313032   2.887   6.199   5.816 -0.4420 -0.4190 -0.3022
  123OSM   H13A13033   2.786   6.160   5.809 -0.5941 -0.8519  3.6825
  123OSM   H13B13034   2.898   6.209   5.709  0.5380  0.1505 -0.1559
  123OSM   H13C13035   2.879   6.299   5.856 -2.6972 -0.4847 -0.5006
  123OSM    C1213036   3.128   6.172   5.836 -0.2295 -0.5637  0.2016
  123OSM   H12A13037   3.137   6.278   5.857 -1.5673 -0.2590 -0.6653
  123OSM   H12B13038   3.138   6.168   5.729 -2.4703  0.1327 -0.0588
  123OSM    C1113039   3.253   6.094   5.894 -0.0392  0.1743 -0.4308
  123OSM   H11A13040   3.346   6.128   5.844  0.4028 -1.8665 -1.0156
  123OSM   H11B13041   3.243   5.988   5.863  0.8914  0.5789 -2.2168
  123OSM      P13042   3.378   6.207   6.101 -0.1818  0.4490  0.1004
  123OSM    O1313043   3.509   6.150   6.069  0.7384  0.3176 -0.4432
  123OSM    O1413044   3.360   6.344   6.055  0.8411 -0.1653 -0.0495
  123OSM    O1113045   3.339   6.195   6.257  0.9125 -0.9677 -1.0345
  123OSM    O1213046   3.266   6.105   6.039  0.4831 -0.7970  1.0915
  123OSM    C1S13047   3.208   6.234   6.307 -0.6843 -0.4202 -0.4870
  123OSM    H1S13048   3.137   6.155   6.275 -0.3721 -0.4969 -1.0101
  123OSM    H1T13049   3.184   6.335   6.267 -0.6291 -0.5228 -0.7829
  123OSM     NF13050   3.087   6.220   6.524 -0.1221 -0.0174 -0.4716
  123OSM    HNF13051   3.046   6.294   6.577 -3.6861 -1.7357 -0.6659
  123OSM    C2S13052   3.221   6.238   6.462 -0.1548 -0.5239  1.3066
  123OSM    H2S13053   3.291   6.157   6.492 -0.2903 -0.5727  1.4872
  123OSM    C3S13054   3.300   6.365   6.507  0.0381  0.1230 -0.7354
  123OSM    H3S13055   3.238   6.456   6.493  1.5433  1.5409  1.3809
  123OSM     O313056   3.425   6.392   6.447 -0.3404 -0.3027 -0.4203
  123OSM    HO313057   3.424   6.338   6.368  1.4838 -2.2898  0.8276
  123OSM    C4S13058   3.330   6.358   6.657  0.3570 -0.0902 -0.5556
  123OSM    H4S13059   3.263   6.417   6.721 -0.3803 -3.3992  1.8512
  123OSM    C5S13060   3.420   6.283   6.723  0.2003  0.4826  0.0713
  123OSM    H5S13061   3.500   6.243   6.660  0.5431  0.3319  0.5960
  123OSM    C6S13062   3.449   6.272   6.871  0.6474  0.7464  0.2781
  123OSM    H6S13063   3.558   6.289   6.888  0.8179 -0.3877  0.3636
  123OSM    H6T13064   3.431   6.167   6.901  0.7187  0.5685 -0.3019
  123OSM    C7S13065   3.380   6.369   6.972 -0.1196 -0.5460 -0.3941
  123OSM    H7S13066   3.270   6.358   6.987 -0.2867  2.6429  0.9204
  123OSM    H7T13067   3.399   6.471   6.933  0.9162 -1.0580 -1.2347
  123OSM    C8S13068   3.424   6.344   7.116  0.5046 -0.0919  0.1708
  123OSM    H8S13069   3.527   6.380   7.134  0.4225  1.2902 -1.9721
  123OSM    H8T13070   3.426   6.235   7.138  0.3606  0.2895  2.2339
  123OSM    C9S13071   3.327   6.415   7.211 -0.0423  0.5321  0.9290
  123OSM    H9S13072   3.222   6.380   7.204  0.2267 -0.2680  0.8782
  123OSM    H9T13073   3.327   6.523   7.182 -0.2287  0.8274  2.0088
  123OSM   C10S13074   3.370   6.403   7.360 -0.5723  0.3800  0.6330
  123OSM   H10S13075   3.415   6.302   7.370 -2.2691 -0.1806  3.2521
  123OSM   H10T13076   3.282   6.417   7.426  0.6012  2.1583  1.8723
  123OSM   C11S13077   3.483   6.502   7.386  0.7992  0.1363  0.0730
  123OSM   H11S13078   3.456   6.608   7.366  0.6578 -0.0685 -0.8580
  123OSM   H11T13079   3.571   6.488   7.319  0.5895 -0.8516 -0.0112
  123OSM   C12S13080   3.537   6.499   7.531  1.0397  0.0658  0.0856
  123OSM   H12S13081   3.620   6.572   7.541  0.4962  0.4962  1.5682
  123OSM   H12T13082   3.583   6.399   7.548  0.9889  0.0592  0.1798
  123OSM   C13S13083   3.435   6.540   7.640  0.8811  0.7041 -0.0057
  123OSM   H13S13084   3.372   6.450   7.654  0.0479  1.5517  1.7865
  123OSM   H13T13085   3.380   6.624   7.593  1.4096  2.7868  3.0137
  123OSM   C14S13086   3.500   6.588   7.770  1.0839 -0.1537 -0.1568
  123OSM   H14S13087   3.578   6.661   7.742 -0.6069  0.8425 -2.4783
  123OSM   H14T13088   3.556   6.510   7.826  0.3463  1.9220  3.6775
  123OSM   C15S13089   3.403   6.651   7.870  0.1660 -0.1107  0.0186
  123OSM   H15S13090   3.329   6.571   7.893 -1.3206  1.6077  1.4073
  123OSM   H15T13091   3.347   6.734   7.822 -1.1271 -1.0353 -0.1091
  123OSM   C16S13092   3.464   6.708   8.001 -0.5922  0.3388 -0.5514
  123OSM   H16S13093   3.524   6.795   7.967  0.5650 -0.6774 -1.1480
  123OSM   H16T13094   3.530   6.630   8.045 -0.7678 -0.5966 -1.9078
  123OSM   C17S13095   3.372   6.752   8.113 -0.3904 -0.3425 -0.1719
  123OSM   H17S13096   3.288   6.820   8.088 -0.3455 -1.1038 -2.4828
  123OSM   H17T13097   3.439   6.801   8.188  0.1198 -1.2988  0.0000
  123OSM   C18S13098   3.308   6.634   8.187  0.1732  0.1431  0.0844
  123OSM   H18S13099   3.247   6.571   8.119 -0.1522  0.9293 -0.3692
  123OSM   H18T13100   3.250   6.661   8.277 -1.4636 -2.1366 -0.2560
  123OSM   H18U13101   3.392   6.569   8.216  0.0806  0.2470  0.5845
  123OSM    C1F13102   3.033   6.101   6.527 -0.2467  0.3004 -0.4196
  123OSM     OF13103   3.071   6.015   6.452  0.1509 -0.4849  0.3423
  123OSM    C2F13104   2.910   6.080   6.612  0.4486 -0.2260 -0.5890
  123OSM    H2F13105   2.833   6.031   6.550  1.3621 -1.8666 -0.4523
  123OSM    H2G13106   2.874   6.183   6.633 -1.0929 -0.3996 -2.3093
  123OSM    C3F13107   2.935   5.998   6.737  0.9854 -0.5180  0.6245
  123OSM    H3F13108   2.993   5.904   6.727  0.7062 -0.3741 -2.8430
  123OSM    H3G13109   2.846   5.968   6.796  1.0436 -0.1270  0.9170
  123OSM    C4F13110   3.025   6.068   6.843  0.1743  0.3265  0.5162
  123OSM    H4F13111   2.969   6.160   6.873 -0.0702  0.3400  0.0205
  123OSM    H4G13112   3.123   6.101   6.801  1.1760  0.5609  2.9377
  123OSM    C5F13113   3.049   5.985   6.967 -0.3342  0.0639 -0.3903
  123OSM    H5F13114   3.090   5.885   6.941 -0.3170  0.1328 -0.6223
  123OSM    H5G13115   2.944   5.972   7.002  0.0766  1.1430  1.2984
  123OSM    C6F13116   3.139   6.047   7.075  0.5881  1.1881  0.1530
  123OSM    H6F13117   3.101   6.151   7.086 -0.5568  0.7517  0.4904
  123OSM    H6G13118   3.243   6.045   7.036  0.8093 -0.5746  0.8098
  123OSM    C7F13119   3.135   5.960   7.202 -0.1057  0.1637  0.0169
  123OSM    H7F13120   3.199   5.870   7.193 -0.1621  0.3023 -1.9701
  123OSM    H7G13121   3.032   5.925   7.223  1.1315 -1.9210  2.7773
  123OSM    C8F13122   3.176   6.034   7.334  0.3478 -0.4344  0.1263
  123OSM    H8F13123   3.133   5.971   7.414 -2.0095 -0.4180 -1.0883
  123OSM    H8G13124   3.115   6.126   7.342 -3.4510 -2.6919 -1.3150
  123OSM    C9F13125   3.321   6.061   7.336 -0.1324 -0.2306 -0.1357
  123OSM    H9F13126   3.370   6.065   7.238 -1.8962 -2.2921 -1.1713
  123OSM   C10F13127   3.402   6.054   7.448 -0.1801 -0.2858 -0.2268
  123OSM   H10F13128   3.506   6.081   7.424  0.3254 -1.8184  0.1686
  123OSM   C11F13129   3.363   6.012   7.584 -0.1805 -0.1534 -0.1901
  123OSM   H11F13130   3.424   5.924   7.613  1.1968 -0.2384 -3.1163
  123OSM   H11G13131   3.255   5.985   7.582 -0.0348 -0.6936 -0.9177
  123OSM   C12F13132   3.388   6.121   7.691 -0.0008 -0.4886 -0.4781
  123OSM   H12F13133   3.337   6.217   7.667 -0.8971 -1.0445 -0.8219
  123OSM   H12G13134   3.496   6.140   7.701 -0.2657  0.6329  0.3538
  123OSM   C13F13135   3.317   6.086   7.825 -0.5064  0.4646 -0.6750
  123OSM   H13F13136   3.347   5.985   7.861 -1.3916  0.7134  0.8087
  123OSM   H13G13137   3.209   6.082   7.799 -0.3896  0.7539 -1.2105
  123OSM   C14F13138   3.344   6.189   7.930  0.0992 -0.0408  0.1579
  123OSM   H14F13139   3.274   6.157   8.011  1.7504  2.0576  2.5022
  123OSM   H14G13140   3.313   6.287   7.889 -0.3153  0.8459  2.5409
  123OSM   C15F13141   3.482   6.179   8.004  0.8260 -0.2238 -0.2826
  123OSM   H15F13142   3.563   6.180   7.928 -1.2613  1.8297 -2.5488
  123OSM   H15G13143   3.494   6.090   8.069 -1.2621  0.3005  0.8756
  123OSM   C16F13144   3.504   6.301   8.091 -0.5674  0.2869 -0.2999
  123OSM   H16F13145   3.407   6.339   8.130 -0.3597  1.2657 -0.7098
  123OSM   H16G13146   3.528   6.387   8.025  0.1261  0.6020  0.3496
  123OSM   C17F13147   3.623   6.296   8.187 -1.0618 -0.3277  0.0689
  123OSM   H17F13148   3.610   6.211   8.257  0.1497  0.1822  0.9409
  123OSM   H17G13149   3.628   6.397   8.234 -0.1118  0.0710 -0.8840
  123OSM   C18F13150   3.761   6.273   8.110  0.7264 -0.7727 -0.4057
  123OSM   H18F13151   3.809   6.372   8.093  0.4384 -0.9197 -2.0727
  123OSM   H18G13152   3.746   6.221   8.013 -0.9371  0.9754 -1.1157
  123OSM   H18H13153   3.828   6.207   8.170  0.2173 -2.0565 -1.2224
  124OSM      N13154   6.361   3.659   6.482  0.5418 -0.3128 -0.4457
  124OSM    C1513155   6.500   3.633   6.533 -0.3604 -1.1517 -0.2153
  124OSM   H15A13156   6.544   3.556   6.471  0.3189 -0.4122 -0.6467
  124OSM   H15B13157   6.509   3.594   6.633 -3.9791 -2.1949 -0.2011
  124OSM   H15C13158   6.564   3.719   6.536 -1.3190 -0.2791 -3.1748
  124OSM    C1413159   6.278   3.528   6.472 -0.0120 -0.6371  0.1554
  124OSM   H14A13160   6.280   3.473   6.565 -1.3286 -1.2455 -0.1679
  124OSM   H14B13161   6.314   3.465   6.393  1.5213  0.5179 -0.0765
  124OSM   H14C13162   6.178   3.554   6.440 -1.1738 -2.1091  2.4554
  124OSM    C1313163   6.298   3.752   6.575 -0.3167 -0.9155 -0.2789
  124OSM   H13A13164   6.192   3.757   6.554 -0.2573 -0.7544 -0.5387
  124OSM   H13B13165   6.343   3.848   6.555 -1.1640 -0.8943 -2.2095
  124OSM   H13C13166   6.312   3.731   6.680  0.7300 -0.8135 -0.3920
  124OSM    C1213167   6.374   3.731   6.352 -0.4833  0.2507  0.1883
  124OSM   H12A13168   6.283   3.735   6.294  0.3980  2.9313 -1.1160
  124OSM   H12B13169   6.429   3.656   6.295  0.5941  3.3189 -3.0237
  124OSM    C1113170   6.453   3.855   6.345 -0.6436 -0.0778  0.8883
  124OSM   H11A13171   6.486   3.874   6.241  1.3307 -0.2985  1.4628
  124OSM   H11B13172   6.553   3.840   6.391 -0.2014  0.8202  0.2245
  124OSM      P13173   6.273   4.035   6.328  0.1374  0.1832 -0.6168
  124OSM    O1313174   6.335   4.153   6.263  0.4599 -0.0578  0.0930
  124OSM    O1413175   6.199   3.939   6.243 -0.4489  0.4648  0.3926
  124OSM    O1113176   6.169   4.081   6.443  0.1107  0.4596 -0.6911
  124OSM    O1213177   6.388   3.966   6.403  0.8620  0.4955  0.1952
  124OSM    C1S13178   6.223   4.110   6.572  0.1874  0.4604  0.2422
  124OSM    H1S13179   6.300   4.191   6.570 -0.0639  0.6818 -1.0231
  124OSM    H1T13180   6.272   4.022   6.619  2.2116  1.5014  0.1524
  124OSM     NF13181   6.194   4.161   6.802 -0.1549  0.2950  0.0938
  124OSM    HNF13182   6.239   4.088   6.853  2.2638  0.6853 -1.4236
  124OSM    C2S13183   6.123   4.135   6.685  0.6327 -0.3928 -0.8095
  124OSM    H2S13184   6.057   4.216   6.646 -1.9894 -2.2352 -0.3166
  124OSM    C3S13185   6.019   4.015   6.698  0.3297  0.0804 -0.0303
  124OSM    H3S13186   6.068   3.919   6.726 -0.4509 -1.0241 -2.3393
  124OSM     O313187   5.956   3.995   6.575 -0.0478 -0.3800  0.7050
  124OSM    HO313188   6.028   4.018   6.516 -0.7152  1.0829  0.4313
  124OSM    C4S13189   5.918   4.052   6.809  0.2659  0.4704  0.0634
  124OSM    H4S13190   5.893   4.159   6.810 -0.9170  0.2192 -1.0650
  124OSM    C5S13191   5.893   3.971   6.911  0.6451 -0.0832 -0.1263
  124OSM    H5S13192   5.953   3.879   6.925 -0.8093 -1.2879 -1.5163
  124OSM    C6S13193   5.814   4.013   7.032 -0.4972 -0.2729  0.3294
  124OSM    H6S13194   5.711   3.972   7.035  0.1367 -2.1630 -1.7621
  124OSM    H6T13195   5.816   4.124   7.034  0.6056 -0.2723 -0.1652
  124OSM    C7S13196   5.884   3.970   7.168 -0.0006  0.3186 -0.5286
  124OSM    H7S13197   5.990   4.003   7.169 -0.2436  1.0917 -0.0871
  124OSM    H7T13198   5.892   3.859   7.168 -0.9266  0.2515  0.3278
  124OSM    C8S13199   5.813   4.029   7.300 -0.3541  0.2895 -0.0326
  124OSM    H8S13200   5.718   3.973   7.311 -1.5756  2.4994  1.2404
  124OSM    H8T13201   5.778   4.129   7.265  1.1698  0.1742 -1.9045
  124OSM    C9S13202   5.894   4.028   7.424 -0.1180 -0.1081 -0.8860
  124OSM    H9S13203   5.992   4.079   7.417 -0.0328  0.2271  2.2236
  124OSM    H9T13204   5.916   3.920   7.435 -2.9463 -0.4550  2.2202
  124OSM   C10S13205   5.829   4.098   7.546  0.0684 -0.4424  0.7496
  124OSM   H10S13206   5.736   4.038   7.558 -0.9543  0.8372 -0.5739
  124OSM   H10T13207   5.806   4.202   7.515  3.8735 -0.0047 -0.9660
  124OSM   C11S13208   5.923   4.096   7.662  0.4969  0.4562 -0.2713
  124OSM   H11S13209   6.018   4.148   7.637  0.0851 -0.2662 -3.6159
  124OSM   H11T13210   5.942   3.991   7.695 -1.9422  0.4315  1.2240
  124OSM   C12S13211   5.850   4.155   7.793  0.0059 -0.1164  0.4546
  124OSM   H12S13212   5.770   4.088   7.829 -0.9685 -0.1076 -1.6278
  124OSM   H12T13213   5.810   4.254   7.763  1.1926 -0.0014 -0.8257
  124OSM   C13S13214   5.961   4.152   7.900 -0.2437  0.8373  0.4951
  124OSM   H13S13215   6.040   4.216   7.855  0.7200  0.1453  1.1617
  124OSM   H13T13216   6.001   4.048   7.906 -1.8646  0.2237  0.8081
  124OSM   C14S13217   5.918   4.193   8.040 -0.9116  0.1256  0.5730
  124OSM   H14S13218   5.819   4.144   8.045 -0.2086 -1.5306 -1.3329
  124OSM   H14T13219   5.907   4.304   8.044  1.1013  0.3937 -0.5601
  124OSM   C15S13220   6.018   4.151   8.151 -0.1698 -0.1018 -0.4488
  124OSM   H15S13221   6.120   4.185   8.122  0.7971 -1.5241  1.2036
  124OSM   H15T13222   6.032   4.041   8.157 -1.8011 -0.2242  1.5910
  124OSM   C16S13223   5.981   4.175   8.298 -0.2938  0.1361 -0.6634
  124OSM   H16S13224   5.894   4.108   8.313  1.4258 -1.9086  0.3757
  124OSM   H16T13225   5.940   4.279   8.305 -1.3934 -0.2701 -0.8574
  124OSM   C17S13226   6.090   4.160   8.408  0.2772  0.0020  0.4526
  124OSM   H17S13227   6.034   4.155   8.504  0.3440 -0.1620  0.4823
  124OSM   H17T13228   6.160   4.245   8.398  0.9982 -0.7221 -0.7073
  124OSM   C18S13229   6.174   4.034   8.388  0.0138 -0.4746 -0.4557
  124OSM   H18S13230   6.207   4.028   8.282  1.5107  0.5506 -0.0829
  124OSM   H18T13231   6.114   3.945   8.414  0.3585 -1.2637 -2.3280
  124OSM   H18U13232   6.271   4.033   8.444  0.2664  1.8101 -0.7652
  124OSM    C1F13233   6.248   4.284   6.813  0.4831 -0.0741 -0.2444
  124OSM     OF13234   6.222   4.365   6.728 -0.3213  0.0298 -0.3553
  124OSM    C2F13235   6.340   4.311   6.922 -0.3543  0.1091 -0.0193
  124OSM    H2F13236   6.433   4.250   6.914  0.7558  1.6523  0.7798
  124OSM    H2G13237   6.286   4.288   7.017  0.4652 -2.0203 -0.0339
  124OSM    C3F13238   6.384   4.460   6.923 -1.4107 -0.1811 -0.4157
  124OSM    H3F13239   6.292   4.519   6.901 -0.3667  0.9306 -1.8915
  124OSM    H3G13240   6.462   4.484   6.848  0.1057 -0.5625  1.0350
  124OSM    C4F13241   6.444   4.497   7.065 -0.0159  0.5050 -0.6461
  124OSM    H4F13242   6.485   4.600   7.072  2.0254 -0.3480  0.1501
  124OSM    H4G13243   6.535   4.434   7.076  0.0041  0.6790  0.1743
  124OSM    C5F13244   6.342   4.483   7.181  0.5883 -0.0260  0.1746
  124OSM    H5F13245   6.351   4.377   7.215  1.3909 -0.1303 -0.3401
  124OSM    H5G13246   6.248   4.493   7.124  0.7759  1.0586  0.0426
  124OSM    C6F13247   6.355   4.594   7.284  0.4107  0.2551  0.0783
  124OSM    H6F13248   6.271   4.604   7.357  1.1074  1.1384  0.7686
  124OSM    H6G13249   6.364   4.693   7.234  0.7242  0.1019 -0.1653
  124OSM    C7F13250   6.481   4.566   7.379  0.1511 -1.0685  0.0573
  124OSM    H7F13251   6.557   4.542   7.301  3.4558  2.4303  2.0649
  124OSM    H7G13252   6.453   4.477   7.440 -1.6448  1.5412  3.1867
  124OSM    C8F13253   6.527   4.679   7.470  0.4126  0.1272  0.0779
  124OSM    H8F13254   6.545   4.768   7.406 -2.2890  1.3682  0.9737
  124OSM    H8G13255   6.626   4.666   7.521  1.5842  2.9468 -1.3739
  124OSM    C9F13256   6.412   4.724   7.558  0.0295  0.2445 -0.9901
  124OSM    H9F13257   6.331   4.785   7.516 -0.8485  0.9874  1.6651
  124OSM   C10F13258   6.408   4.695   7.689 -1.2036 -0.1566 -0.0020
  124OSM   H10F13259   6.320   4.722   7.749 -2.6992 -0.9106 -1.7907
  124OSM   C11F13260   6.520   4.626   7.761  0.5633 -0.0170 -0.9348
  124OSM   H11F13261   6.601   4.696   7.793  0.5396 -0.8389  1.0402
  124OSM   H11G13262   6.554   4.527   7.723  2.0391 -0.2255  0.8142
  124OSM   C12F13263   6.460   4.589   7.901  0.1811 -0.2405 -0.4982
  124OSM   H12F13264   6.386   4.506   7.900 -0.8420  0.6648 -0.1208
  124OSM   H12G13265   6.411   4.676   7.948 -0.1880  1.4533 -3.8208
  124OSM   C13F13266   6.573   4.546   7.992 -0.3578  0.1588  0.1712
  124OSM   H13F13267   6.654   4.621   8.007  0.6149 -0.8287 -0.0466
  124OSM   H13G13268   6.618   4.455   7.947 -2.1786 -0.0829 -1.2270
  124OSM   C14F13269   6.513   4.501   8.120  0.2046  0.1008  0.4410
  124OSM   H14F13270   6.439   4.420   8.100  1.4574 -1.6802  2.7623
  124OSM   H14G13271   6.450   4.588   8.149  0.7413  0.3438  0.8696
  124OSM   C15F13272   6.601   4.443   8.223 -0.3395  0.3844  0.5503
  124OSM   H15F13273   6.671   4.521   8.259 -0.1103 -0.0744  1.1172
  124OSM   H15G13274   6.656   4.355   8.182 -0.4534  0.2666  0.6488
  124OSM   C16F13275   6.522   4.388   8.345 -0.2220 -0.5241 -0.0509
  124OSM   H16F13276   6.465   4.297   8.318  1.0355 -0.7271 -2.1142
  124OSM   H16G13277   6.436   4.458   8.355 -0.5220 -0.4821 -2.5537
  124OSM   C17F13278   6.603   4.341   8.460 -0.1133 -0.2994 -0.7424
  124OSM   H17F13279   6.656   4.431   8.499 -0.1183  0.3421 -2.1845
  124OSM   H17G13280   6.682   4.277   8.415  0.0329 -2.1461  2.0644
  124OSM   C18F13281   6.525   4.278   8.571 -0.5292  0.4980  0.1240
  124OSM   H18F13282   6.475   4.186   8.534  5.1908 -2.4051 -0.9884
  124OSM   H18G13283   6.456   4.354   8.612 -1.6527 -1.7158  2.4851
  124OSM   H18H13284   6.595   4.252   8.653 -0.7238 -1.0114 -0.1747
  125OSM      N13285   6.038   5.429   5.958  0.2860  0.6151 -0.4320
  125OSM    C1513286   6.095   5.354   5.845  0.0139 -0.2493  0.1668
  125OSM   H15A13287   6.134   5.422   5.770 -1.1248  0.3133  0.0655
  125OSM   H15B13288   6.030   5.273   5.816 -1.3507 -0.1353  2.7595
  125OSM   H15C13289   6.186   5.308   5.881  0.8047  0.2420 -1.1658
  125OSM    C1413290   6.136   5.525   6.012  0.4909 -0.6411 -0.4836
  125OSM   H14A13291   6.179   5.593   5.940  1.0129  0.8156  1.1766
  125OSM   H14B13292   6.227   5.485   6.056  0.8222  2.0208  1.3665
  125OSM   H14C13293   6.088   5.589   6.084  1.5227 -0.6305  0.2186
  125OSM    C1313294   5.916   5.493   5.913  0.2760  0.4536  0.3557
  125OSM   H13A13295   5.823   5.438   5.904  0.1202  0.5750  1.1785
  125OSM   H13B13296   5.931   5.529   5.812 -1.6501 -3.9675 -1.6528
  125OSM   H13C13297   5.899   5.575   5.982 -0.9780  1.6070 -1.2900
  125OSM    C1213298   6.007   5.332   6.073 -0.0937  0.3677 -0.1080
  125OSM   H12A13299   6.098   5.277   6.094 -2.0524 -2.5463  1.2134
  125OSM   H12B13300   5.931   5.264   6.040 -0.2409  0.4976 -0.0375
  125OSM    C1113301   5.951   5.384   6.208  0.1367 -0.7830  0.2147
  125OSM   H11A13302   6.020   5.465   6.240  0.4745 -0.6579 -0.8059
  125OSM   H11B13303   5.962   5.313   6.292 -1.6647  1.4401  2.3923
  125OSM      P13304   5.692   5.339   6.236 -0.1749  0.5002  0.3110
  125OSM    O1313305   5.569   5.418   6.213 -0.6325 -0.1773 -0.1491
  125OSM    O1413306   5.713   5.205   6.171  0.2566 -0.8147  0.6186
  125OSM    O1113307   5.698   5.335   6.387 -0.1672 -0.1356 -0.0711
  125OSM    O1213308   5.815   5.440   6.192 -0.0647  0.5110 -0.1633
  125OSM    C1S13309   5.744   5.440   6.480  0.0170 -0.4934  0.0910
  125OSM    H1S13310   5.688   5.534   6.462 -0.9208 -0.7347  1.6067
  125OSM    H1T13311   5.852   5.461   6.491 -0.3079 -0.6361  5.0232
  125OSM     NF13312   5.707   5.523   6.710  0.1740 -0.2649 -0.1165
  125OSM    HNF13313   5.784   5.531   6.772  1.0476 -2.0151 -0.9601
  125OSM    C2S13314   5.712   5.406   6.622 -0.2193 -0.0131  0.1081
  125OSM    H2S13315   5.611   5.361   6.627 -0.4424  0.2999 -1.2733
  125OSM    C3S13316   5.813   5.292   6.666 -0.4832 -0.1849  0.0314
  125OSM    H3S13317   5.908   5.345   6.688 -0.4757 -0.1384 -0.1075
  125OSM     O313318   5.853   5.196   6.568  0.2939 -0.4821 -0.4350
  125OSM    HO313319   5.788   5.219   6.501  0.9313 -0.2672 -0.9949
  125OSM    C4S13320   5.764   5.224   6.792 -0.7333  0.1639  0.0966
  125OSM    H4S13321   5.669   5.169   6.790  1.0300 -3.2908  4.6021
  125OSM    C5S13322   5.832   5.190   6.904  0.3703 -0.2904 -0.0650
  125OSM    H5S13323   5.940   5.206   6.914  0.4013 -0.1804 -0.5316
  125OSM    C6S13324   5.769   5.104   7.006  0.8518 -0.0426  0.0738
  125OSM    H6S13325   5.791   5.000   6.977 -2.6701 -1.0508  0.7528
  125OSM    H6T13326   5.659   5.118   7.012  1.0231  1.3084  0.2605
  125OSM    C7S13327   5.821   5.107   7.154  0.3703  0.4341  0.7696
  125OSM    H7S13328   5.799   5.208   7.194  0.5308  0.2460  1.3247
  125OSM    H7T13329   5.930   5.095   7.136  0.5926  1.4803  1.4086
  125OSM    C8S13330   5.758   5.013   7.262  0.1434 -0.5753  0.4011
  125OSM    H8S13331   5.762   4.909   7.222  1.3959 -0.2572 -0.3217
  125OSM    H8T13332   5.651   5.042   7.265  0.4004  0.6682 -1.6671
  125OSM    C9S13333   5.825   5.032   7.402  0.5574 -0.5558 -0.9071
  125OSM    H9S13334   5.809   5.134   7.442 -3.5884 -0.6445 -2.1320
  125OSM    H9T13335   5.936   5.037   7.399  0.6504  0.4070  2.5214
  125OSM   C10S13336   5.773   4.924   7.496 -0.0447  0.1223 -0.3709
  125OSM   H10S13337   5.782   4.823   7.450  0.1508  0.1515 -0.3928
  125OSM   H10T13338   5.666   4.949   7.512  0.5698  1.6662  1.5857
  125OSM   C11S13339   5.845   4.932   7.635  0.7930  0.0892  0.1760
  125OSM   H11S13340   5.952   4.907   7.619  0.6680 -0.7879  0.7131
  125OSM   H11T13341   5.802   4.857   7.704 -2.8906 -1.4699 -3.5745
  125OSM   C12S13342   5.838   5.068   7.702  0.7495 -0.1394 -0.1483
  125OSM   H12S13343   5.733   5.102   7.688  0.5166 -1.2425 -1.0796
  125OSM   H12T13344   5.904   5.145   7.656  0.6021 -0.6321 -1.1994
  125OSM   C13S13345   5.856   5.060   7.857 -0.2260  0.6765 -0.0401
  125OSM   H13S13346   5.960   5.028   7.879  0.3517  2.9073  0.5232
  125OSM   H13T13347   5.779   4.986   7.889  0.6836 -0.5549 -0.6557
  125OSM   C14S13348   5.849   5.199   7.921  0.1518  0.0227 -0.1133
  125OSM   H14S13349   5.748   5.243   7.910  0.3820  0.0992 -2.0375
  125OSM   H14T13350   5.928   5.257   7.869  0.6702  0.1722  0.8303
  125OSM   C15S13351   5.888   5.195   8.067 -0.3592 -0.0683 -0.6940
  125OSM   H15S13352   5.997   5.195   8.087  0.1443 -2.3020 -3.1523
  125OSM   H15T13353   5.839   5.109   8.117  1.5075 -0.9152 -0.3061
  125OSM   C16S13354   5.837   5.321   8.150 -0.2496  0.3847  1.3239
  125OSM   H16S13355   5.740   5.353   8.107  0.3058  2.8737  1.8541
  125OSM   H16T13356   5.910   5.404   8.139  0.6541 -0.7227 -1.4199
  125OSM   C17S13357   5.792   5.297   8.296 -0.3178  0.0806 -0.9833
  125OSM   H17S13358   5.884   5.293   8.358 -0.7150  3.4579 -0.0938
  125OSM   H17T13359   5.743   5.197   8.295 -0.2848  0.0573 -0.3635
  125OSM   C18S13360   5.697   5.407   8.356 -1.1320  0.7231 -0.6084
  125OSM   H18S13361   5.748   5.506   8.361  1.7806 -0.7099 -0.5365
  125OSM   H18T13362   5.657   5.387   8.457 -0.7434  0.9002 -0.4195
  125OSM   H18U13363   5.619   5.427   8.279 -1.9892 -0.2420  0.0073
  125OSM    C1F13364   5.609   5.613   6.714  0.6329  0.1239  0.1844
  125OSM     OF13365   5.503   5.594   6.653 -0.2031 -0.1432 -1.2559
  125OSM    C2F13366   5.629   5.743   6.792  0.9723  0.2493  0.1202
  125OSM    H2F13367   5.671   5.815   6.719  1.0151  1.8775  1.7216
  125OSM    H2G13368   5.709   5.737   6.868 -1.2602  3.6200  2.8758
  125OSM    C3F13369   5.492   5.803   6.852 -0.0560 -0.2644 -0.3529
  125OSM    H3F13370   5.443   5.718   6.903 -1.5119 -1.0108 -2.9079
  125OSM    H3G13371   5.428   5.842   6.771 -1.2355  0.5738  0.9540
  125OSM    C4F13372   5.520   5.926   6.940  0.3948 -0.0682 -0.2397
  125OSM    H4F13373   5.421   5.975   6.955 -1.6396 -3.8385 -0.7998
  125OSM    H4G13374   5.580   6.005   6.890 -1.0833  0.0581 -1.8679
  125OSM    C5F13375   5.578   5.892   7.080 -0.5099  0.7630 -0.1236
  125OSM    H5F13376   5.647   5.977   7.101  0.3860 -0.1163  0.5642
  125OSM    H5G13377   5.638   5.798   7.079 -1.0759  0.4006 -0.1284
  125OSM    C6F13378   5.465   5.884   7.185 -0.3261  0.0917 -0.5348
  125OSM    H6F13379   5.380   5.818   7.156 -1.8693  1.8706 -0.1301
  125OSM    H6G13380   5.430   5.988   7.201 -2.6046 -0.5853 -1.0226
  125OSM    C7F13381   5.514   5.820   7.319  0.2310  0.2885 -1.1912
  125OSM    H7F13382   5.563   5.723   7.297  1.4424  0.7725 -0.6601
  125OSM    H7G13383   5.431   5.793   7.388  1.6088 -0.3325  0.2666
  125OSM    C8F13384   5.620   5.901   7.401 -0.3825  0.0641 -0.5518
  125OSM    H8F13385   5.566   5.997   7.419  0.3710  0.8234 -2.1843
  125OSM    H8G13386   5.706   5.919   7.333  0.0619  0.8112  0.1961
  125OSM    C9F13387   5.652   5.833   7.533 -0.0041 -0.2432 -0.1545
  125OSM    H9F13388   5.747   5.778   7.526 -0.8276 -1.8299  0.9859
  125OSM   C10F13389   5.582   5.841   7.650 -0.2929 -0.6054 -0.1166
  125OSM   H10F13390   5.628   5.792   7.737  0.3780  0.1363 -0.0464
  125OSM   C11F13391   5.451   5.917   7.678  0.1912 -0.1001  1.1524
  125OSM   H11F13392   5.362   5.853   7.662  0.9686 -1.3119  1.6227
  125OSM   H11G13393   5.453   6.005   7.609  0.6469  1.1970  2.7741
  125OSM   C12F13394   5.457   5.966   7.821 -0.1417  0.7800 -0.0811
  125OSM   H12F13395   5.393   6.055   7.838 -0.7438  0.1483  0.9648
  125OSM   H12G13396   5.559   5.999   7.852 -0.2678  0.2451  0.9180
  125OSM   C13F13397   5.415   5.851   7.915 -0.9095  0.1774  0.5696
  125OSM   H13F13398   5.485   5.766   7.901 -0.7084  0.0329  2.2716
  125OSM   H13G13399   5.315   5.812   7.887 -0.2476 -0.6287 -0.6718
  125OSM   C14F13400   5.407   5.892   8.060  0.1094  0.0173 -0.0011
  125OSM   H14F13401   5.329   5.969   8.078  0.9865  1.2681 -1.4681
  125OSM   H14G13402   5.503   5.936   8.094  0.6467 -1.9256  1.0834
  125OSM   C15F13403   5.359   5.787   8.161  0.5698 -0.2206  0.0853
  125OSM   H15F13404   5.441   5.714   8.166 -0.6065 -1.4876  1.3571
  125OSM   H15G13405   5.279   5.719   8.124  1.4684 -0.3310 -1.6968
  125OSM   C16F13406   5.316   5.844   8.300  0.5455 -1.2345  0.5277
  125OSM   H16F13407   5.277   5.759   8.360 -0.9211 -1.1163 -0.2318
  125OSM   H16G13408   5.235   5.916   8.278  0.4766 -2.1225 -2.3239
  125OSM   C17F13409   5.435   5.906   8.373 -0.3856  0.1887 -0.0864
  125OSM   H17F13410   5.391   5.958   8.461  0.4820 -0.2378  0.6008
  125OSM   H17G13411   5.479   5.993   8.320 -2.1594  2.6538  2.3363
  125OSM   C18F13412   5.553   5.812   8.413 -0.4129  0.4713  0.6375
  125OSM   H18F13413   5.623   5.796   8.328  0.3197  2.2544  0.8935
  125OSM   H18G13414   5.520   5.716   8.458  0.5378 -0.2032 -0.0816
  125OSM   H18H13415   5.607   5.855   8.500 -1.4626  2.4804  0.3001
  126OSM      N13416   3.399   5.108   6.499  0.1334  0.0317  0.4725
  126OSM    C1513417   3.476   5.177   6.608 -0.3370 -0.0913  0.1078
  126OSM   H15A13418   3.475   5.284   6.594  1.0128  0.2026  2.0243
  126OSM   H15B13419   3.581   5.154   6.614 -1.2049 -4.2560  0.5610
  126OSM   H15C13420   3.427   5.149   6.701  0.8227  0.2055  0.8190
  126OSM    C1413421   3.253   5.146   6.493  0.6146 -0.0387 -0.3104
  126OSM   H14A13422   3.196   5.109   6.577 -0.3047  3.7084  0.8590
  126OSM   H14B13423   3.217   5.114   6.397  0.8346  2.2755 -1.2010
  126OSM   H14C13424   3.241   5.254   6.488  1.6757  0.0568 -0.8766
  126OSM    C1313425   3.462   5.159   6.371  0.1502 -0.0339 -0.7009
  126OSM   H13A13426   3.569   5.173   6.375  0.0225  0.4882  1.2495
  126OSM   H13B13427   3.429   5.255   6.332  2.7894  0.6969 -1.1951
  126OSM   H13C13428   3.448   5.090   6.289  0.7192 -0.0512 -0.7802
  126OSM    C1213429   3.431   4.965   6.521  0.4026  0.0175  0.3326
  126OSM   H12A13430   3.377   4.937   6.610 -2.2889 -0.7193 -1.4876
  126OSM   H12B13431   3.537   4.954   6.541  0.3632 -0.8010  0.0730
  126OSM    C1113432   3.390   4.860   6.416  0.1943  0.4994  0.3614
  126OSM   H11A13433   3.430   4.769   6.465 -0.5269  0.0426  0.1234
  126OSM   H11B13434   3.447   4.870   6.321  0.4110  0.8221  0.5264
  126OSM      P13435   3.159   4.724   6.428 -0.3791 -0.3585  0.1362
  126OSM    O1313436   3.035   4.742   6.355 -0.0384 -0.4568  0.6192
  126OSM    O1413437   3.240   4.609   6.390 -0.2971  0.4286 -0.1110
  126OSM    O1113438   3.124   4.724   6.586  0.5255  0.3770  0.3440
  126OSM    O1213439   3.249   4.854   6.401 -0.6061 -0.1413  0.2984
  126OSM    C1S13440   3.091   4.839   6.666  0.3094 -0.1683 -0.5669
  126OSM    H1S13441   2.983   4.860   6.654  0.5441  1.8325  0.6004
  126OSM    H1T13442   3.145   4.929   6.628 -0.1860  0.3985  0.0766
  126OSM     NF13443   3.058   4.910   6.889  0.6097 -0.0487 -0.4179
  126OSM    HNF13444   3.113   4.993   6.892  1.0370 -0.3361 -0.1667
  126OSM    C2S13445   3.134   4.812   6.815 -0.3613 -0.4484  0.0417
  126OSM    H2S13446   3.096   4.711   6.841 -2.1733  0.0057 -0.7974
  126OSM    C3S13447   3.282   4.822   6.825  0.0592  0.3483  0.1837
  126OSM    H3S13448   3.304   4.928   6.798  2.2923 -0.4287 -1.1587
  126OSM     O313449   3.349   4.749   6.726 -0.0554  0.1499  0.2489
  126OSM    HO313450   3.280   4.719   6.666 -0.5356 -1.0729  1.3782
  126OSM    C4S13451   3.326   4.788   6.964 -0.9568 -0.2850  0.0332
  126OSM    H4S13452   3.359   4.684   6.974  2.2788  0.6616 -0.3283
  126OSM    C5S13453   3.350   4.871   7.063 -0.5743  0.9670  0.2060
  126OSM    H5S13454   3.351   4.981   7.054 -1.1392  0.8797 -0.9950
  126OSM    C6S13455   3.386   4.845   7.202 -0.8581  0.4086 -0.2486
  126OSM    H6S13456   3.313   4.884   7.275  0.0072 -0.9970  1.3932
  126OSM    H6T13457   3.480   4.900   7.220 -0.2179 -0.9218  0.5434
  126OSM    C7S13458   3.394   4.695   7.237  0.0995 -0.0773  0.1153
  126OSM    H7S13459   3.470   4.640   7.177 -0.7032  0.5078 -1.4510
  126OSM    H7T13460   3.299   4.643   7.212  0.7576 -2.0873  1.6440
  126OSM    C8S13461   3.403   4.660   7.383 -0.0152 -0.8551 -0.1676
  126OSM    H8S13462   3.316   4.712   7.428  0.8279 -1.6787  2.5282
  126OSM    H8T13463   3.483   4.722   7.428 -0.7416 -0.4682  0.5981
  126OSM    C9S13464   3.412   4.508   7.415 -0.3406  0.5545 -0.3087
  126OSM    H9S13465   3.499   4.464   7.363 -1.8965  0.5698 -2.9951
  126OSM    H9T13466   3.315   4.470   7.377  0.9450 -2.5223 -0.6278
  126OSM   C10S13467   3.416   4.490   7.568  0.6838  0.1279 -0.0905
  126OSM   H10S13468   3.343   4.554   7.621 -0.5706 -0.0022 -1.6429
  126OSM   H10T13469   3.515   4.530   7.599 -0.3188  2.8715 -0.3373
  126OSM   C11S13470   3.399   4.344   7.602  0.3691 -0.0309  0.5872
  126OSM   H11S13471   3.465   4.283   7.537  0.2621 -0.0576  0.5045
  126OSM   H11T13472   3.292   4.324   7.584 -0.0392 -0.4342  3.3384
  126OSM   C12S13473   3.420   4.309   7.751 -0.2257  0.3724  0.9606
  126OSM   H12S13474   3.395   4.202   7.766  2.2228 -0.7457 -2.1951
  126OSM   H12T13475   3.344   4.371   7.803  0.1856  1.3290  0.4437
  126OSM   C13S13476   3.563   4.318   7.804  0.4882  0.0748 -0.3582
  126OSM   H13S13477   3.590   4.424   7.787 -1.4270  0.2937 -2.1671
  126OSM   H13T13478   3.626   4.262   7.731 -1.8712 -1.4807 -1.2721
  126OSM   C14S13479   3.592   4.268   7.942  0.4702  0.4291 -0.3079
  126OSM   H14S13480   3.541   4.332   8.018  1.7664 -0.0083  0.9515
  126OSM   H14T13481   3.700   4.286   7.959  0.3242  0.3526  0.7569
  126OSM   C15S13482   3.560   4.122   7.979  0.0341  0.0150  0.4322
  126OSM   H15S13483   3.619   4.050   7.918  1.5733  1.9625 -0.4355
  126OSM   H15T13484   3.453   4.095   7.971  0.0315  0.4387 -1.0254
  126OSM   C16S13485   3.593   4.085   8.123  0.5541 -0.3785 -0.3344
  126OSM   H16S13486   3.702   4.071   8.133  0.3754 -0.7620  1.1360
  126OSM   H16T13487   3.550   3.984   8.142  0.8410 -0.8178 -1.9353
  126OSM   C17S13488   3.550   4.182   8.232 -0.0458  0.4096  0.4806
  126OSM   H17S13489   3.588   4.285   8.220 -4.0579  1.9980  0.6140
  126OSM   H17T13490   3.591   4.146   8.329  0.7801 -1.2015 -0.4489
  126OSM   C18S13491   3.399   4.184   8.247 -0.1181 -0.1520  0.9411
  126OSM   H18S13492   3.360   4.106   8.316  1.4457 -0.4572  1.4925
  126OSM   H18T13493   3.364   4.176   8.142 -4.1850 -0.0635  2.1730
  126OSM   H18U13494   3.366   4.280   8.292 -0.5551  0.2209 -0.1533
  126OSM    C1F13495   2.933   4.889   6.926 -0.4105  0.5849 -0.2013
  126OSM     OF13496   2.878   4.784   6.891  0.1441  0.0171  0.1205
  126OSM    C2F13497   2.862   4.998   6.996  0.2127 -0.4859 -0.3745
  126OSM    H2F13498   2.787   4.948   7.061  0.8429 -1.1134 -0.1288
  126OSM    H2G13499   2.800   5.055   6.923  0.8558 -0.4736 -0.9172
  126OSM    C3F13500   2.948   5.104   7.084 -0.2841 -0.4680  0.3932
  126OSM    H3F13501   2.879   5.179   7.128 -0.8686 -0.3107 -0.7817
  126OSM    H3G13502   3.021   5.157   7.019 -1.8795  1.2769 -0.0026
  126OSM    C4F13503   3.032   5.048   7.206 -0.1811  0.3987 -0.0037
  126OSM    H4F13504   3.093   5.135   7.238 -1.5708  1.3314  0.1197
  126OSM    H4G13505   3.104   4.976   7.160 -0.9343  0.0556 -0.6526
  126OSM    C5F13506   2.949   4.991   7.313  0.4244 -0.2803  0.0955
  126OSM    H5F13507   2.891   4.901   7.285  2.2912 -2.7406  3.8023
  126OSM    H5G13508   2.890   5.075   7.355 -0.0305  0.3409 -1.7383
  126OSM    C6F13509   3.053   4.948   7.415  0.2945  0.3355  0.9708
  126OSM    H6F13510   3.130   5.022   7.447 -1.0751  0.1189  5.0788
  126OSM    H6G13511   3.110   4.859   7.384 -1.2608 -0.7350  1.1265
  126OSM    C7F13512   2.980   4.929   7.548 -0.8512 -0.0903  0.1379
  126OSM    H7F13513   2.886   4.870   7.545 -1.4557  0.9317 -1.8758
  126OSM    H7G13514   2.939   5.024   7.586 -1.5795 -0.3879  0.1180
  126OSM    C8F13515   3.079   4.876   7.652 -0.2223  0.2409 -0.2782
  126OSM    H8F13516   3.147   4.957   7.685 -1.1100  1.0432 -0.3841
  126OSM    H8G13517   3.148   4.803   7.605 -0.2144 -0.4012  0.7196
  126OSM    C9F13518   2.996   4.812   7.766  0.5690  0.9184  0.9320
  126OSM    H9F13519   2.940   4.720   7.744  0.7613  1.3491 -1.5296
  126OSM   C10F13520   3.005   4.849   7.891 -0.1153  0.2007 -0.9179
  126OSM   H10F13521   2.939   4.803   7.966  1.2056 -1.3850 -0.7020
  126OSM   C11F13522   3.105   4.949   7.952 -0.2652 -0.3744  0.0343
  126OSM   H11F13523   3.060   5.047   7.924  1.4169  0.1170 -0.9853
  126OSM   H11G13524   3.206   4.945   7.905 -1.1225 -2.2393 -1.7250
  126OSM   C12F13525   3.124   4.946   8.110 -1.8586  0.0495  0.3295
  126OSM   H12F13526   3.157   4.844   8.139 -2.0756 -0.0542  0.2146
  126OSM   H12G13527   3.031   4.974   8.164 -1.0586  2.1009  0.6608
  126OSM   C13F13528   3.242   5.034   8.148 -0.2085 -0.1870 -0.2415
  126OSM   H13F13529   3.204   5.138   8.146  2.3527  0.8780  3.1122
  126OSM   H13G13530   3.334   5.024   8.086 -0.8868 -0.7710 -1.1840
  126OSM   C14F13531   3.287   5.003   8.292 -0.0634 -0.3988 -0.2202
  126OSM   H14F13532   3.394   5.027   8.307 -0.3432  0.7834 -0.1049
  126OSM   H14G13533   3.274   4.895   8.314 -0.1181 -0.1911  0.7921
  126OSM   C15F13534   3.207   5.088   8.388 -0.2188  0.2990  0.1243
  126OSM   H15F13535   3.096   5.074   8.389 -0.2376  0.2849  2.8283
  126OSM   H15G13536   3.226   5.189   8.346  0.0924 -0.8181 -2.5153
  126OSM   C16F13537   3.257   5.085   8.531  0.8830 -0.7197 -0.1015
  126OSM   H16F13538   3.357   5.132   8.540 -0.5168  2.1288  1.1566
  126OSM   H16G13539   3.268   4.978   8.560  4.8925  0.4878  3.1434
  126OSM   C17F13540   3.158   5.163   8.623 -0.0837  0.1885  0.2847
  126OSM   H17F13541   3.061   5.108   8.623  1.4119 -2.5570  1.5058
  126OSM   H17G13542   3.140   5.266   8.584  0.4670 -0.0167 -0.5256
  126OSM   C18F13543   3.222   5.183   8.759  0.4300  0.0414 -0.3000
  126OSM   H18F13544   3.307   5.254   8.759 -0.1327  0.7835 -3.1238
  126OSM   H18G13545   3.258   5.085   8.798 -0.1467 -0.0052  0.1170
  126OSM   H18H13546   3.151   5.221   8.837  0.6343 -0.9231  0.3680
  127OSM      N13547   4.711   3.719   6.124  0.5627  0.3078 -0.0487
  127OSM    C1513548   4.573   3.767   6.097 -0.0882  0.0960  0.5702
  127OSM   H15A13549   4.571   3.866   6.054  1.7353  0.0078  0.2502
  127OSM   H15B13550   4.521   3.783   6.190 -1.3359  0.5310 -0.1892
  127OSM   H15C13551   4.514   3.698   6.037  1.7488  0.0963 -1.2963
  127OSM    C1413552   4.777   3.696   5.993 -0.2429  0.3902 -0.1645
  127OSM   H14A13553   4.749   3.773   5.922 -1.1670  0.5504  0.3677
  127OSM   H14B13554   4.759   3.595   5.961  0.5432  0.5946 -1.2949
  127OSM   H14C13555   4.884   3.703   5.998 -0.3344  1.7258  0.1000
  127OSM    C1313556   4.775   3.829   6.194 -0.6055  0.9662  0.1791
  127OSM   H13A13557   4.723   3.842   6.287  0.0043 -1.6885  0.9343
  127OSM   H13B13558   4.770   3.918   6.132 -0.9726  0.8803  0.0808
  127OSM   H13C13559   4.878   3.806   6.215 -1.0306 -1.9544 -0.7234
  127OSM    C1213560   4.718   3.596   6.208  0.6290 -0.2942 -0.1871
  127OSM   H12A13561   4.822   3.573   6.226  0.5590  0.4747  1.2759
  127OSM   H12B13562   4.667   3.507   6.175  0.7481 -0.8351  1.0596
  127OSM    C1113563   4.659   3.622   6.352  0.4293  0.2190 -0.4163
  127OSM   H11A13564   4.701   3.711   6.402 -1.0305 -0.6753  2.5678
  127OSM   H11B13565   4.685   3.534   6.415 -0.4248  0.8514  0.8351
  127OSM      P13566   4.422   3.516   6.322 -0.1657  0.2896  0.0765
  127OSM    O1313567   4.280   3.572   6.322 -1.2061  0.2460 -0.5017
  127OSM    O1413568   4.466   3.444   6.209 -0.2746  0.3174  0.0585
  127OSM    O1113569   4.448   3.425   6.453 -0.0413  0.0517  0.1996
  127OSM    O1213570   4.519   3.637   6.349 -0.0565 -0.7131 -0.7776
  127OSM    C1S13571   4.456   3.486   6.579  0.0468 -0.1202  0.1241
  127OSM    H1S13572   4.375   3.562   6.583  0.3408  0.2083 -0.0846
  127OSM    H1T13573   4.547   3.550   6.583 -0.5375  0.7544 -0.4592
  127OSM     NF13574   4.451   3.453   6.827  0.1152  0.1428  0.3649
  127OSM    HNF13575   4.525   3.499   6.875  0.7491  0.5249 -0.9618
  127OSM    C2S13576   4.464   3.384   6.697  0.5393 -0.5994 -0.6897
  127OSM    H2S13577   4.385   3.306   6.696 -1.0611  1.0014 -1.1071
  127OSM    C3S13578   4.608   3.312   6.689 -0.2778  0.8110 -0.3186
  127OSM    H3S13579   4.678   3.396   6.706 -0.2722  0.2134  2.9782
  127OSM     O313580   4.641   3.269   6.561  0.0919  0.2705  0.7142
  127OSM    HO313581   4.572   3.308   6.506  0.6304 -1.0883 -0.9591
  127OSM    C4S13582   4.627   3.223   6.811 -0.1634  0.9620  0.0352
  127OSM    H4S13583   4.662   3.276   6.901  3.0561  0.7547 -1.0178
  127OSM    C5S13584   4.604   3.095   6.792 -0.5110 -0.2446 -0.3924
  127OSM    H5S13585   4.563   3.056   6.697 -1.8416  1.7095 -0.6591
  127OSM    C6S13586   4.624   2.992   6.903 -0.0362 -0.2308  0.2319
  127OSM    H6S13587   4.616   2.892   6.855  0.4505 -0.7838  1.2506
  127OSM    H6T13588   4.551   3.002   6.986 -0.2264 -0.1461  0.0512
  127OSM    C7S13589   4.773   2.992   6.959 -0.2093  0.7970  0.1385
  127OSM    H7S13590   4.770   3.087   7.018 -1.1636  0.1400  1.1471
  127OSM    H7T13591   4.834   2.991   6.866 -1.4162 -0.7978 -0.6555
  127OSM    C8S13592   4.791   2.869   7.043  0.6057 -0.6334 -0.4884
  127OSM    H8S13593   4.893   2.825   7.048  0.3987 -1.1024 -0.2623
  127OSM    H8T13594   4.718   2.789   7.016 -0.2611  0.0216 -0.1225
  127OSM    C9S13595   4.766   2.906   7.193 -0.4462 -0.5559 -0.2155
  127OSM    H9S13596   4.667   2.957   7.201 -1.3330 -2.2675 -0.0550
  127OSM    H9T13597   4.852   2.967   7.228  0.3879 -0.2098 -2.7282
  127OSM   C10S13598   4.761   2.768   7.268  0.1583 -0.0916 -0.1520
  127OSM   H10S13599   4.850   2.707   7.242 -0.0015 -0.4760  0.2034
  127OSM   H10T13600   4.670   2.716   7.231  0.1238 -0.5971  0.6281
  127OSM   C11S13601   4.738   2.782   7.416  0.3659 -0.5187  0.0290
  127OSM   H11S13602   4.646   2.842   7.430 -0.1607 -0.1297 -4.3308
  127OSM   H11T13603   4.820   2.833   7.471 -1.3913 -1.2522  3.4458
  127OSM   C12S13604   4.716   2.655   7.495  0.6751 -0.0149 -0.1331
  127OSM   H12S13605   4.797   2.582   7.475 -1.2285 -1.9991 -0.7998
  127OSM   H12T13606   4.623   2.609   7.456  0.3714 -0.4069  1.0315
  127OSM   C13S13607   4.707   2.666   7.651  0.3820  0.1923  0.2584
  127OSM   H13S13608   4.650   2.576   7.682 -0.8471  1.0456  0.5143
  127OSM   H13T13609   4.640   2.754   7.659  2.1510  1.4496  1.4502
  127OSM   C14S13610   4.842   2.681   7.722  0.2843 -0.2233 -0.4417
  127OSM   H14S13611   4.911   2.740   7.658  3.1174 -2.5168  0.4231
  127OSM   H14T13612   4.868   2.574   7.733  2.2270  0.4795  2.5584
  127OSM   C15S13613   4.833   2.745   7.862  0.3914  0.0656 -0.6354
  127OSM   H15S13614   4.756   2.693   7.923 -0.8243  0.7043 -1.5870
  127OSM   H15T13615   4.807   2.853   7.850 -0.3077  0.0918  0.9953
  127OSM   C16S13616   4.964   2.746   7.941 -0.6916  0.0875  0.5283
  127OSM   H16S13617   5.037   2.776   7.864 -2.4983  0.5129 -1.0680
  127OSM   H16T13618   4.984   2.642   7.976 -0.8349 -0.3787 -0.7447
  127OSM   C17S13619   4.954   2.847   8.061 -0.0226  0.0483 -0.0796
  127OSM   H17S13620   4.882   2.803   8.134  0.2751  1.8755  1.3411
  127OSM   H17T13621   4.927   2.948   8.023  2.5299  0.4445 -0.9486
  127OSM   C18S13622   5.079   2.876   8.148  0.7469 -0.3034  0.5824
  127OSM   H18S13623   5.054   2.935   8.238 -3.5204  0.4279 -0.9505
  127OSM   H18T13624   5.149   2.928   8.080  0.6277 -0.4307  0.3610
  127OSM   H18U13625   5.119   2.784   8.195  1.3237 -0.6873 -0.6275
  127OSM    C1F13626   4.333   3.484   6.882  0.0982 -0.0013  0.4756
  127OSM     OF13627   4.228   3.459   6.825 -0.0482  0.4096  0.1555
  127OSM    C2F13628   4.340   3.541   7.018 -0.7737 -0.0567  0.0220
  127OSM    H2F13629   4.297   3.643   7.023  0.0985  0.3362 -0.4140
  127OSM    H2G13630   4.445   3.541   7.054 -0.6532 -0.1083 -0.3221
  127OSM    C3F13631   4.258   3.451   7.104  0.3261  1.1259 -0.5958
  127OSM    H3F13632   4.153   3.456   7.066 -1.2791  4.2883  3.7899
  127OSM    H3G13633   4.253   3.495   7.206 -0.8489 -2.3488  0.9241
  127OSM    C4F13634   4.304   3.300   7.118 -0.0319 -0.2956 -0.2021
  127OSM    H4F13635   4.302   3.263   7.013  2.4045 -0.1523 -0.3177
  127OSM    H4G13636   4.234   3.240   7.181 -0.8963  1.5130  0.5839
  127OSM    C5F13637   4.451   3.277   7.153  0.0388 -0.4423  1.2124
  127OSM    H5F13638   4.523   3.337   7.094  0.6367 -0.7302  1.6394
  127OSM    H5G13639   4.480   3.175   7.119  1.6132  0.7766 -1.1789
  127OSM    C6F13640   4.490   3.313   7.293 -0.0542 -0.2101  0.3489
  127OSM    H6F13641   4.488   3.424   7.290  3.3949 -0.0877  1.3080
  127OSM    H6G13642   4.592   3.273   7.308 -0.3825 -2.2762 -2.4271
  127OSM    C7F13643   4.396   3.266   7.412 -0.3356  0.6082 -0.4896
  127OSM    H7F13644   4.404   3.156   7.405 -2.2951  0.2917  1.5673
  127OSM    H7G13645   4.297   3.316   7.399 -0.1304  0.8698 -1.0541
  127OSM    C8F13646   4.440   3.315   7.556  0.0472  0.5320 -0.2802
  127OSM    H8F13647   4.368   3.269   7.628 -0.3218 -0.9053 -1.5430
  127OSM    H8G13648   4.438   3.426   7.559  2.1870  0.5517  2.6673
  127OSM    C9F13649   4.579   3.265   7.584  0.1940 -0.1450 -0.7762
  127OSM    H9F13650   4.656   3.312   7.521  0.9081  0.6151  0.6174
  127OSM   C10F13651   4.619   3.174   7.676 -1.0711 -0.1255 -0.2402
  127OSM   H10F13652   4.722   3.136   7.672 -0.0425  2.1067  2.7807
  127OSM   C11F13653   4.537   3.108   7.778  0.8755 -0.2357  0.1013
  127OSM   H11F13654   4.574   3.004   7.790  0.8029 -0.1615  1.0058
  127OSM   H11G13655   4.432   3.091   7.745  0.6853  2.3307 -0.7299
  127OSM   C12F13656   4.535   3.153   7.926 -0.2517 -0.2435 -0.3656
  127OSM   H12F13657   4.478   3.077   7.983  0.0086 -0.9258 -1.0188
  127OSM   H12G13658   4.478   3.247   7.946 -0.4644 -0.4420 -0.0251
  127OSM   C13F13659   4.673   3.174   7.980  0.2741 -0.8760  0.5189
  127OSM   H13F13660   4.721   3.247   7.911 -1.4031 -0.4206 -0.1942
  127OSM   H13G13661   4.731   3.080   7.973  1.2410 -0.1548 -1.9359
  127OSM   C14F13662   4.662   3.227   8.126  0.5978  0.0750  0.1156
  127OSM   H14F13663   4.602   3.317   8.102  1.0686  0.4179  0.2302
  127OSM   H14G13664   4.761   3.268   8.154 -0.9356  1.7493  3.4474
  127OSM   C15F13665   4.594   3.158   8.238 -0.1251  1.1119 -0.0930
  127OSM   H15F13666   4.661   3.082   8.282  0.6544  1.6441 -0.3596
  127OSM   H15G13667   4.502   3.107   8.202  1.9645 -3.0046  0.0959
  127OSM   C16F13668   4.557   3.253   8.357  0.0308 -0.0122 -0.2753
  127OSM   H16F13669   4.519   3.187   8.438 -2.2752  1.9784  0.3094
  127OSM   H16G13670   4.478   3.328   8.336  1.2160  1.4267  0.2627
  127OSM   C17F13671   4.685   3.320   8.410 -0.4802 -0.2500  0.0071
  127OSM   H17F13672   4.715   3.393   8.332  0.9347 -0.3885  0.4030
  127OSM   H17G13673   4.771   3.253   8.429  0.3436  1.6566  3.5143
  127OSM   C18F13674   4.658   3.406   8.535  0.2240  0.2135 -0.0303
  127OSM   H18F13675   4.601   3.499   8.512  2.3623  1.5892  0.1046
  127OSM   H18G13676   4.747   3.450   8.584  0.1134 -0.3259  0.6698
  127OSM   H18H13677   4.599   3.348   8.609  0.9874 -1.7290 -0.9105
  128OSM      N13678   0.525   6.753   5.967  0.0163 -0.5360 -0.0541
  128OSM    C1513679   0.448   6.862   5.910  0.8946  0.2251  0.1717
  128OSM   H15A13680   0.493   6.956   5.936  1.3130  0.0563  0.0615
  128OSM   H15B13681   0.347   6.871   5.947  0.2048  0.4827 -1.7244
  128OSM   H15C13682   0.428   6.862   5.804  0.2017  0.1191  0.3008
  128OSM    C1413683   0.457   6.623   5.935 -0.4057  0.1942 -0.1866
  128OSM   H14A13684   0.441   6.623   5.828 -0.8065  2.4590 -0.1643
  128OSM   H14B13685   0.360   6.612   5.981 -0.0630  0.3937  0.5929
  128OSM   H14C13686   0.519   6.536   5.945 -2.8668 -1.4148  1.7258
  128OSM    C1313687   0.666   6.757   5.900 -0.5391 -0.2752 -0.8493
  128OSM   H13A13688   0.733   6.691   5.954 -0.0977 -0.2527 -1.3731
  128OSM   H13B13689   0.703   6.857   5.915  1.5567 -0.7422 -2.6194
  128OSM   H13C13690   0.665   6.738   5.794  2.5719  0.6275 -1.0822
  128OSM    C1213691   0.542   6.767   6.118 -0.0002 -0.5266 -0.4597
  128OSM   H12A13692   0.581   6.865   6.139  0.3537 -1.3404  3.0226
  128OSM   H12B13693   0.624   6.704   6.150 -1.3746 -2.7770 -1.2624
  128OSM    C1113694   0.419   6.744   6.212  0.0443 -0.2369 -0.3109
  128OSM   H11A13695   0.454   6.750   6.317  1.2143 -0.6933 -0.6648
  128OSM   H11B13696   0.386   6.643   6.179 -1.7262 -0.4308  1.9557
  128OSM      P13697   0.330   6.989   6.256  0.3046 -0.1457 -0.0279
  128OSM    O1313698   0.475   7.031   6.248  0.1794 -0.5249 -0.3739
  128OSM    O1413699   0.231   7.068   6.182 -0.0555 -0.8543 -0.3395
  128OSM    O1113700   0.278   6.971   6.401  0.0165  0.4637 -0.5001
  128OSM    O1213701   0.325   6.847   6.201 -0.0906  0.3028  0.3471
  128OSM    C1S13702   0.183   6.876   6.442 -0.7098  0.0540 -0.1273
  128OSM    H1S13703   0.235   6.781   6.464  2.1509  1.7904  0.9487
  128OSM    H1T13704   0.108   6.855   6.363 -2.1575 -0.6029  1.3923
  128OSM     NF13705   0.036   6.811   6.641  0.2503 -0.1240 -0.8107
  128OSM    HNF13706  -0.064   6.816   6.644 -0.0990 -3.4928 -3.5527
  128OSM    C2S13707   0.110   6.918   6.571  0.2332 -0.0834  0.1279
  128OSM    H2S13708   0.182   6.957   6.646  1.1293 -1.3661 -0.0464
  128OSM    C3S13709   0.030   7.046   6.539  0.5388  0.4013  0.7962
  128OSM    H3S13710  -0.063   7.011   6.489  0.9054 -2.9860  2.3202
  128OSM     O313711   0.089   7.139   6.453  0.0947  0.0583  0.5796
  128OSM    HO313712   0.164   7.092   6.416  0.9574  2.1117 -0.3658
  128OSM    C4S13713  -0.015   7.110   6.675 -0.9099 -0.1543 -0.5398
  128OSM    H4S13714  -0.099   7.048   6.709 -1.2300  1.1502  1.1190
  128OSM    C5S13715   0.028   7.219   6.747 -1.0173 -0.4371  0.2958
  128OSM    H5S13716   0.114   7.278   6.711 -0.4158  0.2280  2.6728
  128OSM    C6S13717  -0.026   7.267   6.878 -0.5887 -0.3644 -0.6391
  128OSM    H6S13718  -0.068   7.179   6.932 -0.4970  0.3355  0.6000
  128OSM    H6T13719  -0.115   7.331   6.857 -1.4068 -1.5135 -0.7272
  128OSM    C7S13720   0.080   7.336   6.967  0.1734  0.7001  0.0257
  128OSM    H7S13721   0.106   7.435   6.926  1.1217  0.8504  0.9623
  128OSM    H7T13722   0.172   7.274   6.967  0.6561  1.4080  1.2848
  128OSM    C8S13723   0.027   7.331   7.111  0.1101  0.1069 -0.7543
  128OSM    H8S13724  -0.024   7.235   7.136  2.5709 -0.8576  0.6668
  128OSM    H8T13725  -0.052   7.410   7.114  1.0320  0.9975  0.1214
  128OSM    C9S13726   0.136   7.359   7.216  0.3838 -0.3124  0.2692
  128OSM    H9S13727   0.185   7.456   7.196 -1.9691  1.0609  0.9227
  128OSM    H9T13728   0.219   7.285   7.212  0.6402 -0.1339  1.9057
  128OSM   C10S13729   0.088   7.344   7.363  0.1893 -0.3005 -0.9281
  128OSM   H10S13730   0.082   7.238   7.394  0.1382 -0.2173 -0.6422
  128OSM   H10T13731  -0.017   7.382   7.364 -0.3802 -1.8281  1.3643
  128OSM   C11S13732   0.189   7.417   7.454  0.0833 -0.0242  0.2970
  128OSM   H11S13733   0.210   7.522   7.424 -0.4197 -0.4816 -1.7523
  128OSM   H11T13734   0.289   7.368   7.449 -0.5247 -1.3192  0.6777
  128OSM   C12S13735   0.150   7.404   7.592  0.2957  0.4802 -0.4232
  128OSM   H12S13736   0.144   7.295   7.608  0.5447  0.2750 -1.7082
  128OSM   H12T13737   0.050   7.445   7.617 -0.0711 -0.8581  0.3263
  128OSM   C13S13738   0.246   7.464   7.696  0.0255  0.3924  0.2095
  128OSM   H13S13739   0.246   7.571   7.668  0.7480  0.1130 -0.8995
  128OSM   H13T13740   0.349   7.424   7.686 -0.0580 -0.9300  3.8728
  128OSM   C14S13741   0.174   7.449   7.833  0.0059 -0.2076  0.2498
  128OSM   H14S13742   0.157   7.340   7.842 -1.5730  0.1981  2.4851
  128OSM   H14T13743   0.075   7.499   7.823 -0.0818  0.1421  2.5047
  128OSM   C15S13744   0.264   7.503   7.947 -0.3167  0.4786  0.4970
  128OSM   H15S13745   0.282   7.606   7.909 -1.3318  0.4092 -0.1865
  128OSM   H15T13746   0.362   7.452   7.943 -1.0280 -0.8450 -0.1947
  128OSM   C16S13747   0.214   7.485   8.090 -0.4909  0.1313 -0.0291
  128OSM   H16S13748   0.105   7.508   8.091 -0.7113 -0.8070 -1.1308
  128OSM   H16T13749   0.253   7.558   8.164  0.9994 -2.1182  1.4515
  128OSM   C17S13750   0.234   7.345   8.141 -0.2024  0.3355 -0.0194
  128OSM   H17S13751   0.344   7.330   8.142 -0.2885 -0.3065 -0.0310
  128OSM   H17T13752   0.206   7.262   8.072 -0.8754  0.4699  0.0928
  128OSM   C18S13753   0.161   7.324   8.276 -0.2313  0.0825 -0.2166
  128OSM   H18S13754   0.193   7.406   8.345 -1.8086  0.7119 -0.2015
  128OSM   H18T13755   0.165   7.219   8.313 -2.8512 -0.0678 -0.2451
  128OSM   H18U13756   0.058   7.351   8.244  0.5916  1.8196 -1.4708
  128OSM    C1F13757   0.095   6.705   6.691 -0.2624 -0.4191 -0.1027
  128OSM     OF13758   0.210   6.709   6.707  0.4165  0.1383 -0.2107
  128OSM    C2F13759   0.009   6.588   6.725 -0.0192 -0.2462 -0.2549
  128OSM    H2F13760   0.005   6.536   6.627  0.1927 -0.6008 -0.0759
  128OSM    H2G13761  -0.090   6.631   6.750 -0.8123  1.0120 -5.0646
  128OSM    C3F13762   0.059   6.494   6.847 -0.0599 -0.5687 -0.3475
  128OSM    H3F13763   0.166   6.465   6.837  0.3269  1.1437 -1.3369
  128OSM    H3G13764   0.005   6.397   6.856 -1.3718  0.3113  1.3667
  128OSM    C4F13765   0.058   6.567   6.983  0.0782  0.3703 -0.5489
  128OSM    H4F13766  -0.034   6.629   6.983 -1.0580 -1.2582 -1.1570
  128OSM    H4G13767   0.126   6.653   6.966 -0.3236  1.4903  3.0266
  128OSM    C5F13768   0.060   6.468   7.104 -0.3028  0.4400  0.0927
  128OSM    H5F13769   0.163   6.430   7.117 -0.9193 -1.8014 -1.2588
  128OSM    H5G13770  -0.008   6.382   7.085  1.8116 -1.1046 -0.7560
  128OSM    C6F13771   0.003   6.524   7.236 -0.3036 -0.1863 -0.3317
  128OSM    H6F13772  -0.093   6.579   7.229  0.0659  0.5664  0.3512
  128OSM    H6G13773   0.087   6.594   7.259  0.8231 -1.5177 -0.3448
  128OSM    C7F13774   0.001   6.423   7.351 -0.0271 -0.1292 -0.9437
  128OSM    H7F13775   0.095   6.364   7.353 -0.1164 -0.3479 -2.5065
  128OSM    H7G13776  -0.078   6.353   7.316 -0.5009  1.1420 -2.4900
  128OSM    C8F13777  -0.053   6.474   7.486  0.8408 -0.1488 -0.4343
  128OSM    H8F13778  -0.164   6.480   7.485  0.8398 -0.0567 -2.9056
  128OSM    H8G13779  -0.015   6.579   7.484 -3.3454  1.4919  0.5981
  128OSM    C9F13780  -0.002   6.387   7.594 -0.2968  0.0316 -0.5584
  128OSM    H9F13781  -0.003   6.280   7.568 -0.3547 -0.2546  0.5721
  128OSM   C10F13782   0.025   6.429   7.717 -0.0595  0.8323 -1.2569
  128OSM   H10F13783   0.061   6.360   7.795 -3.4617 -1.4955 -1.6642
  128OSM   C11F13784  -0.002   6.572   7.769  0.1332 -0.1102  0.0021
  128OSM   H11F13785  -0.013   6.641   7.683 -0.5823  0.2260  0.3587
  128OSM   H11G13786   0.086   6.608   7.826  0.8204 -1.7706  0.0399
  128OSM   C12F13787  -0.123   6.587   7.868 -0.5579  0.4815 -0.4004
  128OSM   H12F13788  -0.212   6.557   7.809 -1.0932 -1.6795  1.4511
  128OSM   H12G13789  -0.139   6.696   7.885 -1.1434  0.3044  0.1673
  128OSM   C13F13790  -0.125   6.510   8.002  0.0751  0.7138  0.6386
  128OSM   H13F13791  -0.030   6.515   8.060  0.5457 -1.2549  0.0779
  128OSM   H13G13792  -0.144   6.404   7.975 -0.3943  1.5783 -2.6741
  128OSM   C14F13793  -0.226   6.549   8.105  0.2033  0.0196 -1.1070
  128OSM   H14F13794  -0.326   6.531   8.060  1.2799 -0.2300 -3.5021
  128OSM   H14G13795  -0.227   6.656   8.132 -0.4133 -0.2377 -0.0559
  128OSM   C15F13796  -0.215   6.464   8.230  0.8565 -0.3299 -0.3815
  128OSM   H15F13797  -0.128   6.514   8.277  1.5238  1.1589 -3.1331
  128OSM   H15G13798  -0.181   6.361   8.209  1.8066  0.3895 -2.4902
  128OSM   C16F13799  -0.335   6.462   8.321 -0.0583 -0.7044  0.7867
  128OSM   H16F13800  -0.410   6.396   8.272 -1.6750  1.6952 -0.0885
  128OSM   H16G13801  -0.376   6.565   8.319  2.3135  0.2696  0.5077
  128OSM   C17F13802  -0.299   6.417   8.463  0.9597  0.1642  0.2103
  128OSM   H17F13803  -0.209   6.470   8.499  0.7727  0.0845  0.8020
  128OSM   H17G13804  -0.264   6.311   8.458 -0.1217 -0.2669  1.3626
  128OSM   C18F13805  -0.429   6.427   8.554 -0.6098  0.0252  0.2063
  128OSM   H18F13806  -0.523   6.383   8.513 -1.1612  1.2180  0.1599
  128OSM   H18G13807  -0.447   6.536   8.571 -0.2379  0.1152  0.0195
  128OSM   H18H13808  -0.412   6.376   8.651  3.2787  0.0063 -0.4039
  129OSM      N13809   3.418   3.552   6.223 -0.2400  0.0619 -0.0740
  129OSM    C1513810   3.322   3.555   6.108 -0.1783 -0.1796  0.1302
  129OSM   H15A13811   3.330   3.640   6.042 -0.3641 -0.1301  0.1720
  129OSM   H15B13812   3.223   3.560   6.151 -0.6912 -2.9762 -0.6487
  129OSM   H15C13813   3.335   3.472   6.040  0.4893  0.0979 -0.0842
  129OSM    C1413814   3.398   3.679   6.300  0.0358 -0.7741 -0.4224
  129OSM   H14A13815   3.441   3.765   6.251 -1.9476  0.4136 -0.1419
  129OSM   H14B13816   3.438   3.668   6.400 -0.2795 -0.1508 -0.2286
  129OSM   H14C13817   3.294   3.706   6.297  0.2592 -0.0817 -3.5220
  129OSM    C1313818   3.389   3.436   6.313 -1.0190 -0.0071 -0.2376
  129OSM   H13A13819   3.415   3.339   6.274  2.2501  0.8845 -0.4477
  129OSM   H13B13820   3.284   3.426   6.336 -0.6788 -1.4937  0.7720
  129OSM   H13C13821   3.436   3.446   6.409  1.0178 -1.6744 -1.0133
  129OSM    C1213822   3.570   3.537   6.177 -0.3233 -1.2736  0.1504
  129OSM   H12A13823   3.600   3.623   6.118 -0.0738 -2.7645 -1.9676
  129OSM   H12B13824   3.579   3.454   6.108  0.9543 -2.1191  1.3146
  129OSM    C1113825   3.673   3.530   6.297 -0.2948 -0.1659  0.6516
  129OSM   H11A13826   3.656   3.610   6.373 -2.6187 -1.3447  1.4086
  129OSM   H11B13827   3.770   3.556   6.251  0.4683 -4.0749 -0.0541
  129OSM      P13828   3.762   3.295   6.314 -0.4090 -0.0191  0.1620
  129OSM    O1313829   3.727   3.179   6.388 -0.3747  0.3769 -0.0545
  129OSM    O1413830   3.756   3.294   6.166  0.6904 -0.4051  0.0637
  129OSM    O1113831   3.905   3.344   6.356 -0.1445 -0.8487 -0.3369
  129OSM    O1213832   3.672   3.407   6.356  0.3124  0.1937 -0.0883
  129OSM    C1S13833   3.937   3.427   6.458 -0.3727  0.5803  0.0705
  129OSM    H1S13834   3.863   3.510   6.469 -2.1010 -1.0063  0.8080
  129OSM    H1T13835   4.041   3.463   6.447  0.3088 -1.0860  0.8986
  129OSM     NF13836   3.974   3.442   6.707  0.6178 -0.2412  0.4245
  129OSM    HNF13837   4.069   3.447   6.736  0.7043 -0.2180  0.1442
  129OSM    C2S13838   3.940   3.353   6.594  0.0288  0.0092  0.2492
  129OSM    H2S13839   3.840   3.310   6.618 -0.2243 -0.1276 -1.0430
  129OSM    C3S13840   4.045   3.230   6.585  0.5083 -0.2658  0.2655
  129OSM    H3S13841   4.149   3.265   6.569  0.0451  1.1776  0.3886
  129OSM     O313842   4.018   3.140   6.475  0.0480 -0.1608 -0.0117
  129OSM    HO313843   3.939   3.168   6.429 -0.1767 -0.4706  0.1815
  129OSM    C4S13844   4.019   3.144   6.702 -0.1568 -0.5348  0.4260
  129OSM    H4S13845   3.922   3.093   6.712 -0.2590 -0.8203 -1.8119
  129OSM    C5S13846   4.113   3.149   6.803 -0.5101 -0.1275  0.5033
  129OSM    H5S13847   4.206   3.206   6.791 -0.7567  0.1430 -0.1016
  129OSM    C6S13848   4.094   3.076   6.929 -0.4304  0.0461 -0.0542
  129OSM    H6S13849   3.993   3.032   6.939 -0.5304  0.6121  1.6933
  129OSM    H6T13850   4.094   3.147   7.014 -0.6552  0.5229 -0.4529
  129OSM    C7S13851   4.212   2.979   6.947 -0.2258  0.2698 -0.4056
  129OSM    H7S13852   4.313   3.025   6.943  0.2920 -0.6403  1.4162
  129OSM    H7T13853   4.210   2.901   6.868 -2.5783  0.6336 -0.7304
  129OSM    C8S13854   4.202   2.910   7.085 -1.0999 -0.2903  0.0847
  129OSM    H8S13855   4.111   2.845   7.087 -0.1085 -1.7183 -0.4226
  129OSM    H8T13856   4.203   2.983   7.168 -0.2500  0.3816 -0.5115
  129OSM    C9S13857   4.323   2.817   7.113 -0.5044 -0.0890 -0.0619
  129OSM    H9S13858   4.422   2.860   7.086 -0.5743  0.4240  0.5062
  129OSM    H9T13859   4.304   2.723   7.056 -1.3592 -0.1981  0.3990
  129OSM   C10S13860   4.349   2.767   7.257  1.0919 -0.2183 -0.0500
  129OSM   H10S13861   4.346   2.850   7.331 -1.3729  1.8520 -2.3479
  129OSM   H10T13862   4.447   2.716   7.264  1.2301 -0.0100 -0.4240
  129OSM   C11S13863   4.242   2.670   7.306  0.2348 -0.1614  0.0694
  129OSM   H11S13864   4.218   2.593   7.229 -1.6401  0.8988 -0.4501
  129OSM   H11T13865   4.144   2.722   7.301  0.6667  0.6446 -0.0527
  129OSM   C12S13866   4.258   2.602   7.442  0.6956 -0.8478  0.1283
  129OSM   H12S13867   4.335   2.524   7.422  2.7705  2.1159 -3.9831
  129OSM   H12T13868   4.163   2.551   7.470 -0.5256  1.4176  0.1581
  129OSM   C13S13869   4.309   2.689   7.552  0.0888  0.5998 -0.1917
  129OSM   H13S13870   4.230   2.762   7.577  0.3317 -0.1544  3.0683
  129OSM   H13T13871   4.402   2.743   7.525 -0.1105  1.4366  0.7861
  129OSM   C14S13872   4.321   2.604   7.678  0.5597  0.2878  0.5561
  129OSM   H14S13873   4.422   2.558   7.689  0.0569 -0.5944  1.6028
  129OSM   H14T13874   4.247   2.522   7.670 -1.2862  1.6124  3.5184
  129OSM   C15S13875   4.290   2.673   7.810 -0.4110 -0.3991 -0.2609
  129OSM   H15S13876   4.198   2.735   7.812 -0.0486  0.1746 -1.2433
  129OSM   H15T13877   4.372   2.746   7.825 -0.8816  0.5858 -2.2969
  129OSM   C16S13878   4.278   2.577   7.926  0.3780  0.4377  0.4199
  129OSM   H16S13879   4.377   2.532   7.951 -0.3296 -0.8297  0.9684
  129OSM   H16T13880   4.210   2.492   7.907 -2.7183  2.5143  1.8411
  129OSM   C17S13881   4.239   2.655   8.055  0.1946  0.1287  0.6077
  129OSM   H17S13882   4.206   2.585   8.135 -2.0894  0.5253  0.0381
  129OSM   H17T13883   4.152   2.721   8.038  0.3366  0.7136  2.0900
  129OSM   C18S13884   4.358   2.733   8.115 -0.3877  1.0721  0.0466
  129OSM   H18S13885   4.382   2.829   8.065 -0.4611  1.6089  1.0206
  129OSM   H18T13886   4.447   2.667   8.108 -0.4787  1.0839 -1.2308
  129OSM   H18U13887   4.349   2.754   8.224 -1.9765  0.1820  0.0920
  129OSM    C1F13888   3.884   3.534   6.740  0.7719 -0.0941  0.6018
  129OSM     OF13889   3.769   3.544   6.689 -0.2304 -0.5918 -0.0155
  129OSM    C2F13890   3.934   3.629   6.845 -0.2465 -0.0949  0.2080
  129OSM    H2F13891   3.995   3.708   6.797  0.1285 -1.0345 -0.8736
  129OSM    H2G13892   3.996   3.570   6.916 -1.1484 -0.9989  0.2622
  129OSM    C3F13893   3.821   3.702   6.919  0.3714  0.1270  0.3864
  129OSM    H3F13894   3.749   3.749   6.849  1.0513 -1.0305 -1.1330
  129OSM    H3G13895   3.879   3.773   6.981 -0.8740  1.9481 -0.5001
  129OSM    C4F13896   3.740   3.615   7.018 -0.2584 -0.4419 -0.0570
  129OSM    H4F13897   3.673   3.549   6.956  0.5243  0.3207 -1.7513
  129OSM    H4G13898   3.659   3.671   7.070 -0.4279 -0.7429  0.0079
  129OSM    C5F13899   3.816   3.536   7.115 -0.4711 -0.0637 -0.4927
  129OSM    H5F13900   3.894   3.471   7.069 -0.9720  0.1939 -1.7363
  129OSM    H5G13901   3.740   3.476   7.170 -0.0344  0.1953  0.3964
  129OSM    C6F13902   3.892   3.623   7.220 -0.6502  0.1461  0.2358
  129OSM    H6F13903   3.815   3.691   7.261 -2.1401 -0.1227 -1.9970
  129OSM    H6G13904   3.966   3.691   7.173 -0.2766 -0.1182  0.4397
  129OSM    C7F13905   3.972   3.537   7.315 -0.3361  0.1492 -0.2652
  129OSM    H7F13906   4.039   3.471   7.255 -0.5926 -1.5689  1.2932
  129OSM    H7G13907   3.891   3.478   7.361 -1.7721  2.7005  0.5628
  129OSM    C8F13908   4.062   3.608   7.420 -0.6907  0.0083  0.0576
  129OSM    H8F13909   3.999   3.694   7.451 -0.1481  0.3612  0.2079
  129OSM    H8G13910   4.146   3.664   7.371  1.6914 -2.8540  0.7290
  129OSM    C9F13911   4.088   3.530   7.542 -0.5170 -1.5070 -0.4170
  129OSM    H9F13912   4.023   3.444   7.564 -2.7557  0.2405 -0.0569
  129OSM   C10F13913   4.184   3.554   7.634 -0.2215  0.2893  0.3451
  129OSM   H10F13914   4.180   3.497   7.728 -1.7689 -2.5574 -1.3659
  129OSM   C11F13915   4.281   3.668   7.627 -0.0177  0.3737 -0.4141
  129OSM   H11F13916   4.229   3.754   7.580 -0.4200  0.7962  0.7803
  129OSM   H11G13917   4.361   3.633   7.558 -0.0977 -0.2294 -0.2033
  129OSM   C12F13918   4.341   3.723   7.756  0.6498 -0.3503 -1.3213
  129OSM   H12F13919   4.430   3.788   7.745  0.3340 -0.2360 -3.3310
  129OSM   H12G13920   4.374   3.642   7.826 -1.8967 -0.7787 -0.5478
  129OSM   C13F13921   4.237   3.820   7.834 -0.3617 -0.2615  0.8378
  129OSM   H13F13922   4.146   3.757   7.847 -0.7983 -0.3141 -2.1545
  129OSM   H13G13923   4.213   3.901   7.762  0.7582  0.1753  0.9536
  129OSM   C14F13924   4.275   3.883   7.972 -0.2227  0.6076 -0.6732
  129OSM   H14F13925   4.190   3.947   8.003  0.4888  0.0201  2.6834
  129OSM   H14G13926   4.362   3.951   7.961  0.5735 -0.6102 -2.1672
  129OSM   C15F13927   4.304   3.781   8.085 -0.0694  0.1338 -0.7185
  129OSM   H15F13928   4.398   3.728   8.061 -0.4128 -0.7413 -0.1370
  129OSM   H15G13929   4.234   3.697   8.063  1.8141 -1.4797 -0.6007
  129OSM   C16F13930   4.301   3.846   8.225 -0.0987  0.2498 -1.0653
  129OSM   H16F13931   4.215   3.915   8.225 -0.4685 -0.2103 -1.4388
  129OSM   H16G13932   4.381   3.919   8.248 -0.4411  0.5861 -0.9566
  129OSM   C17F13933   4.298   3.738   8.339  0.6171  0.5412 -0.0134
  129OSM   H17F13934   4.189   3.715   8.344  0.3589  1.8097  0.4027
  129OSM   H17G13935   4.322   3.782   8.438 -1.4789  0.6768  0.4646
  129OSM   C18F13936   4.377   3.606   8.311 -1.0259  0.4246  0.3163
  129OSM   H18F13937   4.328   3.558   8.224 -0.7077 -0.4098  0.5905
  129OSM   H18G13938   4.386   3.534   8.395 -2.1444  0.0782  0.1432
  129OSM   H18H13939   4.483   3.635   8.299 -0.7907 -0.3231  0.5451
  130OSM      N13940   0.765   5.567   5.940 -0.4801 -0.0093  0.0930
  130OSM    C1513941   0.656   5.462   5.956  0.0382 -0.3307  0.3185
  130OSM   H15A13942   0.660   5.406   5.864  2.8858  1.2942 -0.5975
  130OSM   H15B13943   0.569   5.520   5.982 -1.1628 -1.9408  0.0020
  130OSM   H15C13944   0.683   5.407   6.045 -2.3476  0.7845  1.8068
  130OSM    C1413945   0.890   5.496   5.913 -0.0658 -0.1413  0.4891
  130OSM   H14A13946   0.875   5.421   5.837  2.5177 -1.4486  1.2187
  130OSM   H14B13947   0.915   5.434   5.998 -0.7625 -1.8235 -0.4883
  130OSM   H14C13948   0.971   5.562   5.888  0.6281 -0.8302  0.9077
  130OSM    C1313949   0.733   5.650   5.829 -0.0339  0.1666  0.4733
  130OSM   H13A13950   0.737   5.594   5.736  1.9321  1.1689 -0.0659
  130OSM   H13B13951   0.804   5.730   5.820 -0.5742  0.4547 -1.6593
  130OSM   H13C13952   0.636   5.695   5.846  0.0384  0.0495  1.1965
  130OSM    C1213953   0.778   5.637   6.078  0.0693 -0.4090 -0.5841
  130OSM   H12A13954   0.834   5.728   6.061  1.1556 -1.1531 -1.0225
  130OSM   H12B13955   0.830   5.580   6.153  1.9831  0.6449 -1.0783
  130OSM    C1113956   0.646   5.690   6.153 -0.4632  0.1859 -0.4343
  130OSM   H11A13957   0.687   5.754   6.233 -0.8756  2.1944 -1.7756
  130OSM   H11B13958   0.586   5.610   6.202 -0.5280  1.7530  2.1249
  130OSM      P13959   0.453   5.859   6.087  0.1747  0.0219  0.4546
  130OSM    O1313960   0.489   5.994   6.043 -0.5069 -0.1445  0.1735
  130OSM    O1413961   0.330   5.803   6.027  0.2087  0.6218  0.0448
  130OSM    O1113962   0.433   5.853   6.240  0.4342  0.3964 -0.4864
  130OSM    O1213963   0.573   5.765   6.056  0.1961  0.3295  0.5297
  130OSM    C1S13964   0.368   5.968   6.310  0.1168  0.5213  0.4220
  130OSM    H1S13965   0.262   5.971   6.277 -0.4319  0.8823  2.1818
  130OSM    H1T13966   0.426   6.061   6.289 -0.0431  0.3588 -0.8130
  130OSM     NF13967   0.315   6.073   6.542 -0.3765  0.2211 -0.6223
  130OSM    HNF13968   0.377   6.144   6.574 -0.7163 -0.3780  1.4613
  130OSM    C2S13969   0.374   5.956   6.473 -0.0164 -0.4214  0.2936
  130OSM    H2S13970   0.321   5.860   6.493 -0.9411  0.1596  0.6495
  130OSM    C3S13971   0.526   5.938   6.516  0.6723  0.2788  0.0253
  130OSM    H3S13972   0.582   6.030   6.488 -1.3801  1.6449  0.2776
  130OSM     O313973   0.595   5.831   6.452 -0.8531 -0.1757  0.1172
  130OSM    HO313974   0.538   5.820   6.376  2.2289 -1.9325 -2.0784
  130OSM    C4S13975   0.532   5.927   6.662 -0.1369 -0.0082  0.1796
  130OSM    H4S13976   0.535   6.028   6.707  0.7760  0.2086 -0.3533
  130OSM    C5S13977   0.532   5.822   6.746 -0.1500 -0.2942  0.7047
  130OSM    H5S13978   0.539   5.721   6.704 -0.4528 -0.5140  1.1788
  130OSM    C6S13979   0.520   5.820   6.899  0.2558  0.3591  0.1551
  130OSM    H6S13980   0.553   5.722   6.941 -1.0581 -0.7825 -1.3883
  130OSM    H6T13981   0.414   5.822   6.932  0.2323 -0.4909  0.1483
  130OSM    C7S13982   0.587   5.929   6.982  0.1940 -0.5298  0.6569
  130OSM    H7S13983   0.564   6.017   6.919 -0.2805 -0.2365  1.2422
  130OSM    H7T13984   0.696   5.923   7.002  1.2066  1.6803 -3.6164
  130OSM    C8S13985   0.509   5.963   7.108  0.1993 -0.0960 -0.3740
  130OSM    H8S13986   0.400   5.943   7.106 -0.4320  2.9901  1.1171
  130OSM    H8T13987   0.514   6.073   7.112  1.4343 -0.1549  0.0193
  130OSM    C9S13988   0.565   5.903   7.240  0.5456  0.3426 -0.2236
  130OSM    H9S13989   0.674   5.918   7.254  0.5009  0.9905 -0.5669
  130OSM    H9T13990   0.547   5.793   7.233  1.4666  0.0514  1.4995
  130OSM   C10S13991   0.473   5.950   7.353 -0.0620  0.0382  0.0957
  130OSM   H10S13992   0.380   5.891   7.346 -0.9533  1.2584  1.2812
  130OSM   H10T13993   0.460   6.057   7.324 -1.5593 -0.3696 -0.7600
  130OSM   C11S13994   0.539   5.940   7.490 -0.9590  0.0594 -0.5458
  130OSM   H11S13995   0.633   5.999   7.496  0.7967 -2.8881  3.3121
  130OSM   H11T13996   0.553   5.835   7.522  3.4115  0.9703  0.9214
  130OSM   C12S13997   0.450   6.002   7.598  0.7530  0.2152 -0.3518
  130OSM   H12S13998   0.355   5.947   7.581  0.8477 -0.3905  0.9773
  130OSM   H12T13999   0.433   6.111   7.582  0.2241  0.4939  1.9348
  130OSM   C13S14000   0.482   5.967   7.748  0.1086 -0.3108 -0.0597
  130OSM   H13S14001   0.474   5.859   7.772  1.0840 -0.4770 -0.4410
  130OSM   H13T14002   0.399   6.011   7.806  0.6160  0.4253  0.1215
  130OSM   C14S14003   0.619   6.021   7.805  0.8511  0.6965  0.1599
  130OSM   H14S14004   0.637   6.129   7.788 -0.6091  1.0987  1.0851
  130OSM   H14T14005   0.698   5.963   7.752  1.5608  1.4856  0.3373
  130OSM   C15S14006   0.628   6.001   7.962  0.6035 -0.6574  0.1907
  130OSM   H15S14007   0.732   5.986   7.997  0.2388 -3.3470  0.2229
  130OSM   H15T14008   0.572   5.909   7.987  0.8145 -0.0713  2.9620
  130OSM   C16S14009   0.579   6.124   8.041  0.0634  0.2306 -0.2578
  130OSM   H16S14010   0.486   6.149   7.986 -1.3195 -2.7045  0.6328
  130OSM   H16T14011   0.654   6.206   8.042  0.8157 -0.4498  0.6803
  130OSM   C17S14012   0.544   6.102   8.189 -0.1686 -0.6004  0.5105
  130OSM   H17S14013   0.625   6.037   8.228  0.2787  0.3406  1.1836
  130OSM   H17T14014   0.439   6.065   8.195 -0.4570  0.2577  0.9003
  130OSM   C18S14015   0.532   6.232   8.271 -0.0286  0.3350  0.6285
  130OSM   H18S14016   0.474   6.307   8.215  1.0905  0.7849  0.0527
  130OSM   H18T14017   0.630   6.284   8.284  0.9000 -1.7753  2.5066
  130OSM   H18U14018   0.480   6.214   8.368 -0.2224  0.3543  0.5267
  130OSM    C1F14019   0.186   6.102   6.536  0.4372  0.2465 -0.5061
  130OSM     OF14020   0.116   6.053   6.455 -0.0571  0.2836 -0.2396
  130OSM    C2F14021   0.134   6.196   6.641 -0.6442 -0.5576  0.2837
  130OSM    H2F14022   0.088   6.282   6.588  0.1257 -0.0386  0.4478
  130OSM    H2G14023   0.206   6.233   6.718 -1.1811  1.3285 -0.0898
  130OSM    C3F14024   0.026   6.127   6.731  0.2965  0.1949 -0.3877
  130OSM    H3F14025  -0.055   6.105   6.659 -0.4771 -0.9458  0.8086
  130OSM    H3G14026  -0.003   6.214   6.793  1.7168 -0.2147  0.8842
  130OSM    C4F14027   0.068   6.003   6.807 -0.2961  0.0621  0.3458
  130OSM    H4F14028   0.177   5.994   6.788  0.0141  0.1993  2.0013
  130OSM    H4G14029   0.020   5.909   6.775  2.8478 -1.8143  0.8947
  130OSM    C5F14030   0.037   6.006   6.962  0.1688 -0.1530  0.3000
  130OSM    H5F14031   0.061   5.907   7.008  1.0396  0.0945  0.3947
  130OSM    H5G14032  -0.072   6.022   6.968 -0.0432 -0.3891 -2.5596
  130OSM    C6F14033   0.127   6.106   7.041  0.4123 -0.4205 -0.2611
  130OSM    H6F14034   0.101   6.205   6.998 -0.3600 -0.6474 -0.3326
  130OSM    H6G14035   0.235   6.088   7.020  1.2603  1.7639  2.0043
  130OSM    C7F14036   0.096   6.107   7.194  0.2317  0.5623  0.1027
  130OSM    H7F14037  -0.007   6.148   7.206 -1.0669 -1.9152 -2.0725
  130OSM    H7G14038   0.152   6.184   7.251 -0.6843  0.2746  1.4346
  130OSM    C8F14039   0.112   5.979   7.272 -0.4967 -0.3459 -0.5930
  130OSM    H8F14040   0.181   6.004   7.355 -1.0787  0.6810 -0.4211
  130OSM    H8G14041   0.177   5.913   7.209  1.2847  0.1229  0.7227
  130OSM    C9F14042  -0.006   5.898   7.313  0.0032 -0.5280  0.4193
  130OSM    H9F14043  -0.065   5.873   7.223  0.0009  0.5920  0.0951
  130OSM   C10F14044  -0.030   5.847   7.433 -0.1516  0.7646 -0.2168
  130OSM   H10F14045  -0.115   5.778   7.436  0.3687 -0.1259 -3.6428
  130OSM   C11F14046   0.056   5.878   7.554 -0.1853 -0.1359 -0.9673
  130OSM   H11F14047   0.046   5.987   7.571  0.2213 -0.0198 -1.4357
  130OSM   H11G14048   0.161   5.847   7.534  0.4261  1.9482 -1.1272
  130OSM   C12F14049   0.016   5.808   7.684  0.0435  0.2241  0.0025
  130OSM   H12F14050   0.027   5.698   7.682  1.3815  0.2330  3.0245
  130OSM   H12G14051  -0.090   5.835   7.700 -0.1693  0.3015 -1.4848
  130OSM   C13F14052   0.095   5.866   7.807 -0.0866  0.2048 -0.6503
  130OSM   H13F14053   0.068   5.974   7.805 -1.1681 -0.0041  1.3738
  130OSM   H13G14054   0.203   5.859   7.784 -0.7197 -1.5788 -3.2864
  130OSM   C14F14055   0.056   5.802   7.944  0.0671  0.3636  0.1944
  130OSM   H14F14056   0.086   5.697   7.929  0.2860  0.4540  0.0011
  130OSM   H14G14057  -0.054   5.804   7.954  0.0028  0.7121 -0.5301
  130OSM   C15F14058   0.141   5.860   8.051  0.1843  1.0027  0.4725
  130OSM   H15F14059   0.112   5.966   8.068  0.9822  1.1903  0.6807
  130OSM   H15G14060   0.248   5.868   8.023  0.0682  0.6918 -0.0693
  130OSM   C16F14061   0.128   5.775   8.179  0.1483 -0.3686 -0.3354
  130OSM   H16F14062   0.194   5.822   8.255  0.8573 -0.5294 -0.8475
  130OSM   H16G14063   0.154   5.667   8.166 -0.6957 -0.2740 -3.0136
  130OSM   C17F14064  -0.021   5.783   8.226 -0.3918 -0.0183 -0.6747
  130OSM   H17F14065  -0.084   5.750   8.142 -0.8147  0.7945 -0.6804
  130OSM   H17G14066  -0.044   5.890   8.246 -0.8493  0.3359 -3.0438
  130OSM   C18F14067  -0.049   5.696   8.351 -0.1802 -0.3469 -0.2267
  130OSM   H18F14068  -0.157   5.699   8.376  0.1744  2.4230  1.0993
  130OSM   H18G14069   0.004   5.738   8.439  0.3902 -0.7775 -0.3613
  130OSM   H18H14070  -0.007   5.594   8.336 -1.3043 -0.9747  0.7752
  131OSM      N14071   4.857   0.905   5.944 -0.4709 -0.1129 -0.7736
  131OSM    C1514072   4.975   0.810   5.952  0.5582 -1.3229 -0.1090
  131OSM   H15A14073   4.988   0.754   5.861 -0.2636 -1.4064 -0.1821
  131OSM   H15B14074   4.936   0.742   6.027 -0.5405 -0.4050  0.1575
  131OSM   H15C14075   5.066   0.860   5.982 -1.0133 -0.7352  4.0562
  131OSM    C1414076   4.883   1.010   5.841  0.3737  0.3746 -0.0821
  131OSM   H14A14077   4.961   1.070   5.885  1.2805 -1.0517  0.2782
  131OSM   H14B14078   4.799   1.078   5.838 -0.0976 -0.2507 -1.9960
  131OSM   H14C14079   4.906   0.974   5.742 -3.8568  0.9551 -1.3776
  131OSM    C1314080   4.738   0.835   5.910  0.2760  0.2554  0.4648
  131OSM   H13A14081   4.650   0.898   5.919 -0.6244 -1.1702  2.0975
  131OSM   H13B14082   4.717   0.753   5.978 -1.4626  1.2502  1.1708
  131OSM   H13C14083   4.751   0.791   5.812  0.5842 -1.5788  1.3081
  131OSM    C1214084   4.838   0.984   6.081 -0.0533 -0.4492  0.1634
  131OSM   H12A14085   4.931   1.039   6.089 -0.0106 -0.5521  0.3765
  131OSM   H12B14086   4.844   0.916   6.164  1.6590 -0.8015 -0.2341
  131OSM    C1114087   4.729   1.095   6.103  0.2414  0.2069  0.6665
  131OSM   H11A14088   4.743   1.142   6.202 -2.0530  1.3453  0.4909
  131OSM   H11B14089   4.625   1.055   6.104  0.2692  0.0559 -1.2156
  131OSM      P14090   4.818   1.325   5.997 -0.0389  0.1019  0.1973
  131OSM    O1314091   4.916   1.325   5.883 -0.3951 -0.5025 -0.4206
  131OSM    O1414092   4.714   1.428   6.013  0.3221  1.1096 -0.5288
  131OSM    O1114093   4.907   1.322   6.124 -0.5148 -0.0967 -0.3041
  131OSM    O1214094   4.744   1.192   5.994 -0.0773  0.4943 -0.7234
  131OSM    C1S14095   4.983   1.433   6.175 -0.4521  0.6703  0.2905
  131OSM    H1S14096   4.993   1.513   6.098 -0.4308 -0.5972 -1.0364
  131OSM    H1T14097   5.091   1.410   6.189 -0.7570 -0.9132  0.0626
  131OSM     NF14098   5.015   1.619   6.332  0.3566 -0.2352 -0.4362
  131OSM    HNF14099   5.095   1.611   6.391 -0.0220 -2.1921 -0.1431
  131OSM    C2S14100   4.940   1.496   6.304  0.0263 -0.2778 -0.3424
  131OSM    H2S14101   4.830   1.510   6.293 -0.3113 -1.6355  1.0505
  131OSM    C3S14102   4.954   1.396   6.420 -0.1953  0.0183  1.3684
  131OSM    H3S14103   5.062   1.371   6.427  0.3232  1.7333 -0.0917
  131OSM     O314104   4.888   1.270   6.399  0.1908  0.7135  0.1472
  131OSM    HO314105   4.851   1.261   6.311 -1.4487  1.5276  0.7293
  131OSM    C4S14106   4.909   1.455   6.550 -0.1980 -0.6177 -0.2428
  131OSM    H4S14107   4.801   1.476   6.550 -0.2942 -1.0782  0.8059
  131OSM    C5S14108   4.989   1.486   6.651 -0.1562  0.8535 -0.9080
  131OSM    H5S14109   5.097   1.465   6.650 -0.2129  0.4639  0.5973
  131OSM    C6S14110   4.929   1.548   6.785  0.3820  0.4921  0.3770
  131OSM    H6S14111   4.845   1.619   6.773 -0.0648 -0.1841 -0.6194
  131OSM    H6T14112   5.004   1.609   6.839 -2.1430 -0.2461  4.9618
  131OSM    C7S14113   4.877   1.434   6.883 -0.0588 -0.7125  0.0080
  131OSM    H7S14114   4.967   1.369   6.885  0.1137 -0.4576  1.4755
  131OSM    H7T14115   4.799   1.375   6.831  1.4640 -2.4544 -0.3554
  131OSM    C8S14116   4.838   1.490   7.023  0.2513  0.6233  0.0931
  131OSM    H8S14117   4.743   1.548   7.012 -0.4148 -0.1208  1.7979
  131OSM    H8T14118   4.917   1.556   7.063  2.0795 -1.7373  0.4510
  131OSM    C9S14119   4.817   1.377   7.120  0.3996 -0.2005 -0.3176
  131OSM    H9S14120   4.898   1.301   7.109  1.3969  0.8467 -0.2667
  131OSM    H9T14121   4.725   1.315   7.112 -0.3992  1.2821 -2.7871
  131OSM   C10S14122   4.834   1.433   7.259  0.0574  0.0977  0.2221
  131OSM   H10S14123   4.765   1.519   7.274 -1.3189 -0.8358 -0.6491
  131OSM   H10T14124   4.932   1.484   7.275  1.7231 -2.5194 -1.1363
  131OSM   C11S14125   4.802   1.335   7.376  0.7274  0.0074  0.1756
  131OSM   H11S14126   4.877   1.254   7.368 -0.1704 -0.9476  1.3443
  131OSM   H11T14127   4.705   1.290   7.348  1.5520 -2.4673  1.1852
  131OSM   C12S14128   4.809   1.387   7.515 -0.1915 -0.6190  0.4148
  131OSM   H12S14129   4.810   1.304   7.589  1.4191 -0.8680  0.1261
  131OSM   H12T14130   4.717   1.447   7.532 -0.2703 -0.9524  1.2150
  131OSM   C13S14131   4.938   1.469   7.547 -0.5483  0.9771  0.1147
  131OSM   H13S14132   4.930   1.574   7.511  0.5513  1.6336  1.7183
  131OSM   H13T14133   5.025   1.431   7.488 -0.3089 -1.8304  2.1625
  131OSM   C14S14134   4.972   1.469   7.704 -0.5233 -0.7965  0.1915
  131OSM   H14S14135   5.068   1.521   7.720 -0.6768  0.0575 -1.5272
  131OSM   H14T14136   4.980   1.359   7.724 -0.0452 -0.7713  0.1510
  131OSM   C15S14137   4.853   1.525   7.790 -0.6307 -0.2851  1.3330
  131OSM   H15S14138   4.754   1.489   7.756 -0.8396 -0.2432  1.8945
  131OSM   H15T14139   4.842   1.635   7.780 -1.9217 -0.4429  0.9490
  131OSM   C16S14140   4.849   1.491   7.941 -0.4146 -0.0841 -0.2765
  131OSM   H16S14141   4.954   1.512   7.971 -0.4202 -0.4680  0.0219
  131OSM   H16T14142   4.829   1.383   7.955  1.5449 -0.4253 -0.0653
  131OSM   C17S14143   4.751   1.562   8.036  0.1817  0.2578 -0.8331
  131OSM   H17S14144   4.651   1.525   8.005  1.3591 -1.9690 -2.0324
  131OSM   H17T14145   4.751   1.673   8.031  0.8487  0.2984  0.0325
  131OSM   C18S14146   4.773   1.518   8.181 -0.2956  0.2176  0.3071
  131OSM   H18S14147   4.686   1.541   8.246 -0.2817 -0.7629  0.6810
  131OSM   H18T14148   4.857   1.560   8.238 -1.4087  2.0095  0.6557
  131OSM   H18U14149   4.772   1.407   8.190 -1.6197  0.0791 -1.1940
  131OSM    C1F14150   5.013   1.733   6.263 -0.6701  0.5319 -0.1827
  131OSM     OF14151   4.932   1.741   6.172  0.4419 -0.1463  0.2543
  131OSM    C2F14152   5.109   1.837   6.300 -0.1240  0.9319 -0.2908
  131OSM    H2F14153   5.119   1.912   6.219  1.6890  1.0484  0.0198
  131OSM    H2G14154   5.211   1.797   6.319  0.0064  1.6930  0.6522
  131OSM    C3F14155   5.080   1.924   6.428 -0.6181  0.0094 -0.4577
  131OSM    H3F14156   4.979   1.971   6.427 -0.0602  1.3917  2.7062
  131OSM    H3G14157   5.152   2.009   6.427  0.9795 -1.3101 -2.5750
  131OSM    C4F14158   5.107   1.845   6.557  0.3764  0.4432 -0.8457
  131OSM    H4F14159   5.214   1.818   6.548 -0.0249 -0.7946 -2.0343
  131OSM    H4G14160   5.038   1.758   6.565  2.7105 -1.3363  0.7620
  131OSM    C5F14161   5.090   1.936   6.681 -0.5353  0.2029 -0.5138
  131OSM    H5F14162   4.980   1.954   6.681 -0.0349  3.4247  0.3832
  131OSM    H5G14163   5.135   2.036   6.664  1.2820 -0.1338  2.1126
  131OSM    C6F14164   5.131   1.868   6.819 -0.0240 -0.4422  0.4619
  131OSM    H6F14165   5.208   1.788   6.812  0.9573  0.6463 -1.4525
  131OSM    H6G14166   5.039   1.822   6.861 -0.3566  0.0832  0.3040
  131OSM    C7F14167   5.181   1.977   6.915 -0.6993  0.1891 -0.1222
  131OSM    H7F14168   5.095   2.042   6.943  0.5893  1.6103  0.6132
  131OSM    H7G14169   5.256   2.035   6.856 -0.1518  0.5374  0.9076
  131OSM    C8F14170   5.250   1.920   7.045  0.1305  0.3330 -0.6204
  131OSM    H8F14171   5.286   2.000   7.113 -0.0724 -0.3395  0.2886
  131OSM    H8G14172   5.341   1.870   7.007  0.6546  0.8201 -0.0054
  131OSM    C9F14173   5.155   1.826   7.128  0.0367  0.3830 -0.4712
  131OSM    H9F14174   5.057   1.869   7.152  0.0539 -0.7450  1.7216
  131OSM   C10F14175   5.169   1.691   7.159  0.2017  0.2804  1.4507
  131OSM   H10F14176   5.087   1.642   7.213  0.9372 -1.2840  1.1732
  131OSM   C11F14177   5.289   1.611   7.119 -0.5610  0.1193  0.0746
  131OSM   H11F14178   5.383   1.668   7.139  0.2462 -1.5645  1.1502
  131OSM   H11G14179   5.295   1.595   7.009 -0.6919 -0.8533  0.2099
  131OSM   C12F14180   5.300   1.468   7.179 -0.4062 -0.1837 -0.6166
  131OSM   H12F14181   5.401   1.432   7.151 -0.2949 -0.0594 -0.3767
  131OSM   H12G14182   5.232   1.391   7.137  0.9255 -0.9210 -1.4245
  131OSM   C13F14183   5.298   1.463   7.330  0.1884  0.4887 -0.2948
  131OSM   H13F14184   5.199   1.497   7.369 -0.1145 -0.4751 -0.2275
  131OSM   H13G14185   5.371   1.539   7.366 -0.7149  1.5579 -0.6821
  131OSM   C14F14186   5.342   1.326   7.382  0.3406 -0.7593  0.3046
  131OSM   H14F14187   5.443   1.299   7.345  0.8248 -1.1862  1.8886
  131OSM   H14G14188   5.275   1.248   7.339 -0.3770 -1.4236  2.5511
  131OSM   C15F14189   5.345   1.329   7.535 -0.7718  0.5627 -0.4103
  131OSM   H15F14190   5.246   1.322   7.586 -0.2287  2.0508  0.8908
  131OSM   H15G14191   5.398   1.418   7.574  1.0064 -0.5611 -0.1759
  131OSM   C16F14192   5.417   1.201   7.577  0.1255 -0.1875  0.1038
  131OSM   H16F14193   5.510   1.193   7.516  1.1124  0.2003  1.5513
  131OSM   H16G14194   5.357   1.112   7.547  0.0658  0.1316 -0.7398
  131OSM   C17F14195   5.459   1.212   7.728 -0.0846 -0.0437  0.7132
  131OSM   H17F14196   5.373   1.250   7.786  0.2864 -0.6093  1.6536
  131OSM   H17G14197   5.542   1.286   7.721  1.0907 -1.3449  0.4944
  131OSM   C18F14198   5.497   1.073   7.780 -0.2286 -0.5817  0.3959
  131OSM   H18F14199   5.421   0.999   7.745 -0.7082  0.7749 -1.4543
  131OSM   H18G14200   5.470   1.063   7.888  1.1700 -2.5547  0.5926
  131OSM   H18H14201   5.599   1.046   7.746 -0.9425 -0.1547 -2.1911
  132OSM      N14202   6.380   3.167   6.059 -0.1820  0.0878 -0.4548
  132OSM    C1514203   6.411   3.017   6.076  0.3905 -0.6499 -0.2875
  132OSM   H15A14204   6.322   2.981   6.125 -0.8008  1.6094 -0.7229
  132OSM   H15B14205   6.490   3.013   6.150  0.2328 -0.0272 -0.0839
  132OSM   H15C14206   6.442   2.962   5.989  4.0162  0.5392  0.1595
  132OSM    C1414207   6.504   3.242   6.034  0.3254  0.1524 -0.2241
  132OSM   H14A14208   6.517   3.315   6.112  1.1430 -0.2943  0.0680
  132OSM   H14B14209   6.481   3.309   5.953 -0.2386  0.2173 -0.0114
  132OSM   H14C14210   6.593   3.182   6.021 -0.3569 -0.9673  0.1848
  132OSM    C1314211   6.290   3.181   5.931  0.0241  0.1019  0.1510
  132OSM   H13A14212   6.350   3.159   5.844 -0.7440 -1.3949 -0.0092
  132OSM   H13B14213   6.255   3.284   5.932  0.2124  0.1551  2.2053
  132OSM   H13C14214   6.206   3.114   5.937  0.0585  0.1360  1.0714
  132OSM    C1214215   6.307   3.228   6.182  0.3800  0.0031 -0.2692
  132OSM   H12A14216   6.212   3.178   6.195  0.7117 -0.5919 -0.1005
  132OSM   H12B14217   6.280   3.333   6.184  2.0597  0.4434 -0.0487
  132OSM    C1114218   6.376   3.213   6.314  0.1912  0.2524 -0.4037
  132OSM   H11A14219   6.376   3.109   6.354 -2.4273  0.0659 -0.8075
  132OSM   H11B14220   6.310   3.268   6.385  0.1529 -0.2104 -0.0786
  132OSM      P14221   6.636   3.199   6.368 -0.5637 -0.3031 -0.0181
  132OSM    O1314222   6.615   3.059   6.326  0.2127 -0.0230  0.2749
  132OSM    O1414223   6.755   3.263   6.309  0.4008  0.2012 -0.1876
  132OSM    O1114224   6.649   3.210   6.524  0.2803  0.3389 -0.0663
  132OSM    O1214225   6.504   3.274   6.330  0.6488  0.5296 -0.1872
  132OSM    C1S14226   6.548   3.169   6.613 -0.4933  0.1069  0.3083
  132OSM    H1S14227   6.511   3.067   6.588  2.9795 -0.8975 -0.9419
  132OSM    H1T14228   6.466   3.241   6.591 -0.0861  0.8192  1.1221
  132OSM     NF14229   6.489   3.112   6.839 -0.1908 -0.1456  0.7869
  132OSM    HNF14230   6.424   3.169   6.890  0.3386 -0.4428  1.8104
  132OSM    C2S14231   6.587   3.186   6.765  0.2409  0.2047 -0.1045
  132OSM    H2S14232   6.685   3.135   6.778 -0.6888 -2.1602 -2.0125
  132OSM    C3S14233   6.602   3.334   6.804 -0.0034 -0.0606  0.9223
  132OSM    H3S14234   6.503   3.384   6.808  0.1007  0.1381  1.0205
  132OSM     O314235   6.677   3.421   6.720  0.2055 -0.5130  0.0990
  132OSM    HO314236   6.696   3.360   6.648  1.1387  1.3392 -1.2398
  132OSM    C4S14237   6.659   3.335   6.945  0.5121 -0.4224 -0.2695
  132OSM    H4S14238   6.580   3.297   7.012 -1.4216 -1.7925 -3.2073
  132OSM    C5S14239   6.782   3.353   6.990 -0.3372 -0.3376 -0.0778
  132OSM    H5S14240   6.871   3.374   6.929  0.9661 -0.1175  1.8342
  132OSM    C6S14241   6.823   3.351   7.128 -0.6592 -0.2416  0.0357
  132OSM    H6S14242   6.913   3.415   7.123 -0.8433  0.0130 -0.0307
  132OSM    H6T14243   6.855   3.246   7.146 -1.7568 -0.8914 -1.6923
  132OSM    C7S14244   6.728   3.386   7.236  0.2450 -0.3762  0.1795
  132OSM    H7S14245   6.632   3.333   7.218 -0.3580  1.0807 -0.9973
  132OSM    H7T14246   6.709   3.495   7.230  0.7129 -0.3299 -0.5200
  132OSM    C8S14247   6.772   3.342   7.382  0.3817  0.8266 -0.5894
  132OSM    H8S14248   6.882   3.348   7.397  0.5315 -1.6267 -0.4904
  132OSM    H8T14249   6.755   3.233   7.381  2.2375  0.5204 -2.6624
  132OSM    C9S14250   6.700   3.419   7.495 -0.1466  0.4662 -0.1436
  132OSM    H9S14251   6.592   3.394   7.491 -0.2205  1.1208 -2.9949
  132OSM    H9T14252   6.706   3.529   7.482  0.0090  0.6866  1.7090
  132OSM   C10S14253   6.754   3.381   7.631 -0.1191  0.2287  0.0082
  132OSM   H10S14254   6.858   3.341   7.622 -0.6745 -1.7489  2.0219
  132OSM   H10T14255   6.691   3.293   7.656 -0.6972  0.4981 -0.4928
  132OSM   C11S14256   6.743   3.496   7.736 -0.4627  0.4401 -0.0011
  132OSM   H11S14257   6.640   3.532   7.756 -0.6780  0.3587 -0.9456
  132OSM   H11T14258   6.791   3.585   7.689  1.1245 -1.5217 -2.2046
  132OSM   C12S14259   6.812   3.455   7.869 -0.4854  0.6807  0.3134
  132OSM   H12S14260   6.920   3.441   7.851 -0.9744 -1.5677 -1.0421
  132OSM   H12T14261   6.770   3.356   7.896 -1.6620  1.4250  1.3081
  132OSM   C13S14262   6.789   3.544   7.988 -0.0332 -0.0079  0.0381
  132OSM   H13S14263   6.683   3.572   8.007  0.2550 -0.7350  2.8076
  132OSM   H13T14264   6.838   3.640   7.961 -1.7962  0.5575 -1.3017
  132OSM   C14S14265   6.855   3.487   8.114  0.3179 -0.7061 -0.1439
  132OSM   H14S14266   6.961   3.456   8.100  1.1429  1.6187  0.6704
  132OSM   H14T14267   6.809   3.390   8.141 -0.7508 -0.1990 -0.1019
  132OSM   C15S14268   6.826   3.568   8.244 -0.1048 -0.2880  0.3024
  132OSM   H15S14269   6.718   3.586   8.261 -0.2961 -1.1938  0.0702
  132OSM   H15T14270   6.867   3.671   8.231 -2.0186  0.2370 -1.7650
  132OSM   C16S14271   6.911   3.512   8.357 -0.0338  0.5463  0.0006
  132OSM   H16S14272   7.013   3.477   8.329  0.0906  1.3308 -0.5475
  132OSM   H16T14273   6.858   3.417   8.380  0.2311  0.1609 -0.9554
  132OSM   C17S14274   6.918   3.590   8.483 -0.1677  0.2543 -0.6652
  132OSM   H17S14275   6.844   3.672   8.469  1.9782  2.0147 -2.0457
  132OSM   H17T14276   7.024   3.625   8.480  0.3487 -1.2259 -0.4080
  132OSM   C18S14277   6.901   3.503   8.607 -0.2576 -0.5739  0.2468
  132OSM   H18S14278   6.996   3.457   8.643  0.6841  0.5694 -0.7181
  132OSM   H18T14279   6.827   3.423   8.591 -2.9896  1.5322  1.8513
  132OSM   H18U14280   6.876   3.565   8.696 -0.1928  1.0784 -0.8668
  132OSM    C1F14281   6.471   2.984   6.832  0.5106  0.2297  0.2007
  132OSM     OF14282   6.553   2.910   6.778  0.7712  0.1547 -0.5080
  132OSM    C2F14283   6.348   2.926   6.897 -0.5165  0.3502 -0.2692
  132OSM    H2F14284   6.292   2.871   6.819 -3.4733  0.2666  1.8559
  132OSM    H2G14285   6.278   3.005   6.931 -1.3226  0.0623 -1.2370
  132OSM    C3F14286   6.387   2.835   7.017  0.0993 -0.6715 -0.6782
  132OSM    H3F14287   6.456   2.889   7.086 -0.7341 -0.6506  0.1525
  132OSM    H3G14288   6.441   2.742   6.990  0.1916 -0.0564 -2.6752
  132OSM    C4F14289   6.258   2.784   7.099 -0.0416  0.7344 -0.2629
  132OSM    H4F14290   6.193   2.726   7.029 -1.1800 -0.1582  1.4900
  132OSM    H4G14291   6.206   2.874   7.137  0.7019  1.3014 -0.5908
  132OSM    C5F14292   6.294   2.692   7.211 -0.3319 -0.1460  0.3889
  132OSM    H5F14293   6.380   2.745   7.258 -0.1673  0.6177 -0.7435
  132OSM    H5G14294   6.331   2.592   7.178  0.6838  0.2621  0.2813
  132OSM    C6F14295   6.182   2.656   7.310  0.2582  0.1374 -0.6288
  132OSM    H6F14296   6.131   2.565   7.271 -2.5308  1.2699  0.2640
  132OSM    H6G14297   6.119   2.748   7.308  4.0886  2.8407 -2.2129
  132OSM    C7F14298   6.221   2.596   7.448 -0.1229  0.6163  0.5332
  132OSM    H7F14299   6.289   2.661   7.507  1.3363  1.4052 -1.9244
  132OSM    H7G14300   6.284   2.505   7.431  1.5255  1.8246  0.0395
  132OSM    C8F14301   6.106   2.533   7.523  0.2832  0.2758 -0.1786
  132OSM    H8F14302   6.157   2.466   7.595  1.8104  1.6688  0.0614
  132OSM    H8G14303   6.049   2.462   7.460  0.5878 -1.2784  1.2794
  132OSM    C9F14304   6.031   2.644   7.585 -0.1813  0.2687 -0.5201
  132OSM    H9F14305   5.966   2.703   7.519 -0.1975  4.0263  2.6819
  132OSM   C10F14306   6.031   2.685   7.713 -0.1878 -0.1170 -0.0097
  132OSM   H10F14307   5.986   2.781   7.741  2.6735  1.1935  0.3265
  132OSM   C11F14308   6.124   2.633   7.824 -0.2577 -0.6852  0.0522
  132OSM   H11F14309   6.216   2.592   7.779 -0.5177 -0.9935 -0.1991
  132OSM   H11G14310   6.081   2.543   7.872 -0.3462  0.2143  1.7100
  132OSM   C12F14311   6.180   2.732   7.934 -0.1155  0.2600  0.2708
  132OSM   H12F14312   6.249   2.809   7.892  2.2565 -1.5944  0.6297
  132OSM   H12G14313   6.247   2.668   7.996 -1.9702 -1.2218  0.7834
  132OSM   C13F14314   6.065   2.802   8.012 -0.5543  0.5657  0.6304
  132OSM   H13F14315   6.084   2.786   8.121  0.9937  3.2901  0.8101
  132OSM   H13G14316   5.962   2.766   7.991 -0.0434 -1.2965  1.2390
  132OSM   C14F14317   6.060   2.953   7.991 -0.2715 -0.3457 -0.3277
  132OSM   H14F14318   6.019   2.979   7.891 -0.8544  2.4207  0.6055
  132OSM   H14G14319   6.165   2.988   8.000 -0.1518 -0.8456  0.3034
  132OSM   C15F14320   5.991   3.034   8.102 -0.1701 -1.2564  0.5372
  132OSM   H15F14321   5.883   3.010   8.113 -0.5442  0.2151  0.2614
  132OSM   H15G14322   5.979   3.140   8.072  0.0585 -2.1011 -2.7216
  132OSM   C16F14323   6.067   3.027   8.236  0.1954  0.3562  0.6244
  132OSM   H16F14324   6.161   3.081   8.214 -0.0332  0.2949 -0.5347
  132OSM   H16G14325   6.088   2.918   8.242  0.1843  0.2180 -1.4793
  132OSM   C17F14326   5.993   3.063   8.369 -0.3113 -0.2678 -1.1164
  132OSM   H17F14327   5.906   2.996   8.386  0.4688 -1.5664 -2.0354
  132OSM   H17G14328   5.955   3.167   8.362  0.7207  0.3702  2.0967
  132OSM   C18F14329   6.092   3.065   8.483  0.2041 -0.2300 -0.2776
  132OSM   H18F14330   6.160   3.147   8.452  0.7150 -0.4424  0.2587
  132OSM   H18G14331   6.147   2.968   8.486 -1.3422 -1.0799  1.5193
  132OSM   H18H14332   6.045   3.087   8.581 -0.2142 -1.3339 -0.2185
  133OSM      N14333   0.365   3.153   6.183  0.6683 -0.0253  0.7825
  133OSM    C1514334   0.415   3.030   6.114 -0.7313 -0.1006 -0.0724
  133OSM   H15A14335   0.428   2.951   6.186  1.6109  0.7202  0.4751
  133OSM   H15B14336   0.508   3.038   6.059 -0.6865 -2.1046 -0.3111
  133OSM   H15C14337   0.350   2.986   6.040  2.0397 -2.8061 -1.0215
  133OSM    C1414338   0.474   3.208   6.278  0.2647  0.1545  0.4476
  133OSM   H14A14339   0.563   3.238   6.224  0.3415  0.2123  0.6063
  133OSM   H14B14340   0.497   3.134   6.354  0.6355  1.7987  1.9518
  133OSM   H14C14341   0.439   3.292   6.336  0.7264 -0.8371  2.2059
  133OSM    C1314342   0.337   3.260   6.088 -0.4774  0.5355 -0.1391
  133OSM   H13A14343   0.419   3.268   6.019 -0.1867  0.0556  0.1544
  133OSM   H13B14344   0.337   3.350   6.148 -2.0044  1.3983 -1.3942
  133OSM   H13C14345   0.247   3.244   6.030 -2.0893  1.0185  2.1503
  133OSM    C1214346   0.237   3.132   6.260 -0.3132  0.4437 -0.4183
  133OSM   H12A14347   0.152   3.137   6.194  1.2558 -0.3921 -2.5400
  133OSM   H12B14348   0.217   3.224   6.314  3.2898 -0.5806  2.9276
  133OSM    C1114349   0.224   3.000   6.340 -0.0638 -0.2408  0.2300
  133OSM   H11A14350   0.148   3.011   6.420  1.3644  2.5727  1.2462
  133OSM   H11B14351   0.321   2.982   6.391  1.7631  0.4646 -2.8945
  133OSM      P14352   0.247   2.748   6.293 -0.4208 -0.1376  0.1695
  133OSM    O1314353   0.156   2.650   6.233  0.1827 -0.3418  0.0939
  133OSM    O1414354   0.389   2.744   6.256 -0.6394  0.2148  0.3292
  133OSM    O1114355   0.227   2.723   6.449 -0.9587  0.2408  0.6320
  133OSM    O1214356   0.192   2.886   6.260 -0.2901 -0.7811  0.1822
  133OSM    C1S14357   0.086   2.725   6.495 -0.7278  0.0042 -0.0491
  133OSM    H1S14358   0.029   2.643   6.448 -0.6024 -0.6622  0.9508
  133OSM    H1T14359   0.037   2.819   6.463  1.4364  1.4381  0.7316
  133OSM     NF14360  -0.059   2.699   6.683  0.3217  0.2703 -0.0059
  133OSM    HNF14361  -0.103   2.770   6.737 -1.1756 -0.4926 -0.2000
  133OSM    C2S14362   0.074   2.723   6.646  0.1507  0.3323  0.6722
  133OSM    H2S14363   0.139   2.638   6.674  0.7940  1.1092  1.5566
  133OSM    C3S14364   0.136   2.850   6.708  0.2144 -0.4564 -0.2786
  133OSM    H3S14365   0.077   2.933   6.665  1.4057  0.9863  0.8415
  133OSM     O314366   0.270   2.875   6.667  0.0654 -0.1283 -0.1071
  133OSM    HO314367   0.299   2.806   6.607  0.2881 -0.1182 -0.0160
  133OSM    C4S14368   0.134   2.845   6.859  0.7420  0.1369 -0.5145
  133OSM    H4S14369   0.196   2.765   6.901  0.5280 -0.0985 -0.6407
  133OSM    C5S14370   0.070   2.944   6.930  0.4442  0.1202  0.5606
  133OSM    H5S14371   0.031   3.035   6.882  3.2225  0.3209 -1.4197
  133OSM    C6S14372   0.059   2.948   7.080  0.0597 -0.4220  0.7098
  133OSM    H6S14373  -0.030   2.891   7.112 -1.5414  1.2344 -0.6867
  133OSM    H6T14374   0.042   3.052   7.117  2.6049  0.1435  0.4064
  133OSM    C7S14375   0.185   2.901   7.158 -0.6516 -0.3646 -0.9022
  133OSM    H7S14376   0.279   2.944   7.119  0.2573 -1.5178 -0.0106
  133OSM    H7T14377   0.206   2.794   7.137  0.9676 -0.2467  0.0382
  133OSM    C8S14378   0.180   2.931   7.310  0.0808 -0.1097  0.4847
  133OSM    H8S14379   0.104   2.868   7.362 -0.2905  1.5806  2.0596
  133OSM    H8T14380   0.143   3.035   7.317  0.3991  0.0529 -0.2868
  133OSM    C9S14381   0.315   2.940   7.382  0.1240 -0.4249  0.4039
  133OSM    H9S14382   0.369   3.034   7.356 -0.6811  0.2261  1.0480
  133OSM    H9T14383   0.371   2.847   7.359  2.2867  1.0444 -0.4689
  133OSM   C10S14384   0.301   2.940   7.529  0.3971  0.2312  1.0084
  133OSM   H10S14385   0.403   2.920   7.568  0.2861 -0.2929  1.0368
  133OSM   H10T14386   0.244   2.850   7.560 -1.7360  0.9841 -0.5877
  133OSM   C11S14387   0.248   3.071   7.584  0.6597 -0.1389  0.3741
  133OSM   H11S14388   0.149   3.092   7.538  0.6423 -0.4555  0.2706
  133OSM   H11T14389   0.319   3.155   7.562 -0.6164  0.9710  0.4076
  133OSM   C12S14390   0.220   3.051   7.734  0.0323 -0.5015 -0.8053
  133OSM   H12S14391   0.151   2.965   7.751  1.5469 -1.5757 -0.0095
  133OSM   H12T14392   0.157   3.137   7.765  0.5613 -1.2779  2.5888
  133OSM   C13S14393   0.344   3.039   7.828  0.3236  1.0025 -0.1487
  133OSM   H13S14394   0.416   3.117   7.796 -0.5241  1.7739 -0.2275
  133OSM   H13T14395   0.402   2.945   7.817  1.6335  1.4174  2.7855
  133OSM   C14S14396   0.312   3.052   7.979  0.2495  1.0754  0.3752
  133OSM   H14S14397   0.243   3.137   8.000 -0.5050  0.8834 -1.2568
  133OSM   H14T14398   0.404   3.053   8.042  0.8429 -2.9663 -0.2615
  133OSM   C15S14399   0.227   2.927   8.028 -0.3249 -0.1346  0.1077
  133OSM   H15S14400   0.299   2.844   8.013 -1.4285 -2.3073  5.5061
  133OSM   H15T14401   0.138   2.924   7.961  0.8862 -2.5860 -1.4420
  133OSM   C16S14402   0.193   2.926   8.178 -0.0782  0.2127 -0.9760
  133OSM   H16S14403   0.287   2.915   8.237 -0.8301 -1.3355 -0.0044
  133OSM   H16T14404   0.135   2.832   8.190  1.2032 -0.6040 -1.0766
  133OSM   C17S14405   0.114   3.050   8.238  0.0597 -0.4570  0.3609
  133OSM   H17S14406   0.019   3.077   8.188  0.1670 -0.6964  0.0299
  133OSM   H17T14407   0.175   3.142   8.224  0.3299 -0.3101  2.2817
  133OSM   C18S14408   0.092   3.036   8.389  0.1021  0.2694 -0.6882
  133OSM   H18S14409   0.176   2.996   8.450 -1.3416 -0.8395  0.6191
  133OSM   H18T14410   0.015   2.956   8.400  0.5241 -0.1246 -0.5835
  133OSM   H18U14411   0.050   3.121   8.447  1.2541  0.1631  0.3408
  133OSM    C1F14412  -0.133   2.589   6.650 -0.7744 -0.5392 -0.3860
  133OSM     OF14413  -0.076   2.490   6.600  0.2598  0.5022  0.3986
  133OSM    C2F14414  -0.278   2.597   6.698 -0.0776  0.6769  0.2859
  133OSM    H2F14415  -0.341   2.660   6.632  1.5863 -0.9191 -2.9665
  133OSM    H2G14416  -0.282   2.635   6.802  0.8954 -0.3340  0.6961
  133OSM    C3F14417  -0.343   2.459   6.688 -0.4359  0.1379  0.0713
  133OSM    H3F14418  -0.272   2.381   6.724  0.6312  1.8076  1.6952
  133OSM    H3G14419  -0.346   2.432   6.580  0.8457  0.1548  0.0259
  133OSM    C4F14420  -0.481   2.439   6.753 -1.0533  0.2612 -0.1123
  133OSM    H4F14421  -0.512   2.338   6.721  0.0471 -0.8586  2.2357
  133OSM    H4G14422  -0.562   2.506   6.717  0.9206  1.6679 -2.0916
  133OSM    C5F14423  -0.482   2.432   6.907  0.4707 -0.2461  0.3042
  133OSM    H5F14424  -0.581   2.451   6.954  0.3908  1.9065 -0.6608
  133OSM    H5G14425  -0.409   2.505   6.946  1.0892 -0.0830 -1.1272
  133OSM    C6F14426  -0.436   2.287   6.947 -0.1087  0.1800  0.4903
  133OSM    H6F14427  -0.329   2.274   6.919  0.0445  1.3834  0.5035
  133OSM    H6G14428  -0.498   2.218   6.886  1.7137 -0.0228 -1.1780
  133OSM    C7F14429  -0.444   2.245   7.091  0.1454  0.1919  0.2560
  133OSM    H7F14430  -0.437   2.327   7.166 -0.3342 -0.2778  0.8231
  133OSM    H7G14431  -0.356   2.177   7.092 -0.8848 -1.1686 -0.6902
  133OSM    C8F14432  -0.560   2.151   7.132 -0.7817  0.5773  0.2732
  133OSM    H8F14433  -0.528   2.074   7.205 -0.6754  0.2123 -0.1512
  133OSM    H8G14434  -0.599   2.098   7.043  0.2079  0.1042  0.1088
  133OSM    C9F14435  -0.670   2.229   7.193 -0.4569 -0.4361  0.3552
  133OSM    H9F14436  -0.685   2.329   7.149 -3.3506 -0.2539  1.6291
  133OSM   C10F14437  -0.752   2.195   7.291  1.1369  0.2152 -0.3190
  133OSM   H10F14438  -0.822   2.276   7.317 -0.4369 -2.0337  2.7570
  133OSM   C11F14439  -0.750   2.062   7.373  1.2504  0.3225 -0.2782
  133OSM   H11F14440  -0.654   2.006   7.370  2.3752  2.2206 -0.6185
  133OSM   H11G14441  -0.826   1.993   7.330  1.5927 -0.1873 -0.0578
  133OSM   C12F14442  -0.785   2.100   7.517 -0.2247  0.1614 -0.6342
  133OSM   H12F14443  -0.803   2.012   7.582 -2.1528  1.6606  0.9331
  133OSM   H12G14444  -0.881   2.156   7.520  0.8035  2.0420 -1.8473
  133OSM   C13F14445  -0.665   2.158   7.589  0.0296 -0.4245  1.0489
  133OSM   H13F14446  -0.618   2.239   7.529 -0.9444  1.1745  2.3883
  133OSM   H13G14447  -0.587   2.081   7.608 -1.2578 -1.6516  1.4055
  133OSM   C14F14448  -0.700   2.205   7.732 -0.7071  0.1612  0.6243
  133OSM   H14F14449  -0.751   2.121   7.784 -0.4855 -0.8753 -0.7975
  133OSM   H14G14450  -0.762   2.297   7.726 -1.9441 -0.6958  0.0384
  133OSM   C15F14451  -0.573   2.250   7.810  0.3295  0.0645  0.0651
  133OSM   H15F14452  -0.539   2.353   7.787  1.1176  0.4760  2.8824
  133OSM   H15G14453  -0.497   2.173   7.783 -0.7881 -1.6272  1.6356
  133OSM   C16F14454  -0.587   2.239   7.963  0.7480 -0.0454 -0.5443
  133OSM   H16F14455  -0.659   2.155   7.973  1.7702 -0.9139 -0.3468
  133OSM   H16G14456  -0.629   2.328   8.015  0.5477 -1.5862  1.9808
  133OSM   C17F14457  -0.454   2.215   8.027 -0.2105 -0.0207 -0.3752
  133OSM   H17F14458  -0.417   2.121   7.980 -0.1374  0.4323 -1.2377
  133OSM   H17G14459  -0.473   2.199   8.135 -0.0078 -2.3289 -0.6500
  133OSM   C18F14460  -0.345   2.315   7.997  0.4055 -0.7430 -0.1674
  133OSM   H18F14461  -0.360   2.418   8.036  1.4629  0.0089 -1.7017
  133OSM   H18G14462  -0.317   2.318   7.890 -2.2420 -2.5008 -0.9776
  133OSM   H18H14463  -0.258   2.282   8.058 -0.5447 -2.5841  0.2430
  134OSM      N14464   1.227   6.593   6.310 -0.1971 -0.0035 -0.2896
  134OSM    C1514465   1.239   6.707   6.399 -0.7979  0.0824 -0.5858
  134OSM   H15A14466   1.327   6.759   6.365  0.0918 -1.5433 -0.8415
  134OSM   H15B14467   1.265   6.674   6.499 -1.4317  2.2126  0.2981
  134OSM   H15C14468   1.150   6.768   6.400  0.2845  1.7233  2.0008
  134OSM    C1414469   1.224   6.635   6.169 -0.4687  0.0073  0.3872
  134OSM   H14A14470   1.221   6.545   6.109 -0.2613  1.0831 -1.2819
  134OSM   H14B14471   1.316   6.689   6.152 -1.1750  0.7604 -1.1711
  134OSM   H14C14472   1.143   6.704   6.154 -0.1998  0.2473  0.0253
  134OSM    C1314473   1.351   6.508   6.314 -0.8822 -1.1066 -0.0718
  134OSM   H13A14474   1.335   6.423   6.250  1.3926 -1.2466 -0.4905
  134OSM   H13B14475   1.364   6.485   6.419 -2.6877  2.0569  0.9203
  134OSM   H13C14476   1.440   6.562   6.285  0.4483 -2.1737  1.9266
  134OSM    C1214477   1.105   6.511   6.348 -0.0983  0.2694  0.1410
  134OSM   H12A14478   1.095   6.425   6.284 -0.2044  0.8246 -0.5903
  134OSM   H12B14479   1.016   6.569   6.335 -1.5607 -1.1612  3.1740
  134OSM    C1114480   1.114   6.460   6.493 -0.7521 -0.4422 -0.2438
  134OSM   H11A14481   1.013   6.425   6.524 -0.6959 -0.8029 -0.4717
  134OSM   H11B14482   1.120   6.544   6.566 -0.3432 -0.0747 -0.6906
  134OSM      P14483   1.193   6.219   6.466  0.3347 -0.1108 -0.2686
  134OSM    O1314484   1.165   6.221   6.316 -0.2733 -0.2669  0.4158
  134OSM    O1414485   1.314   6.131   6.505  1.0390 -0.7692 -0.1068
  134OSM    O1114486   1.069   6.179   6.554 -0.0079  0.0083  0.2566
  134OSM    O1214487   1.221   6.366   6.517 -0.1730 -0.4526  0.0166
  134OSM    C1S14488   1.059   6.189   6.698  0.7779  0.5956  0.2619
  134OSM    H1S14489   0.998   6.277   6.730  0.2609  0.6950 -0.9717
  134OSM    H1T14490   1.157   6.173   6.748  0.6915 -1.7752 -0.2735
  134OSM     NF14491   0.991   6.069   6.909 -0.5236 -0.0796  0.7190
  134OSM    HNF14492   1.067   6.012   6.940  0.8473  1.5424  0.4212
  134OSM    C2S14493   0.969   6.074   6.759  0.4112  1.1011 -0.5382
  134OSM    H2S14494   0.863   6.099   6.739 -0.5098 -0.5037  2.1669
  134OSM    C3S14495   0.999   5.942   6.676  0.1801  0.4624  0.1954
  134OSM    H3S14496   1.108   5.923   6.684 -0.2444 -1.7777  0.8292
  134OSM     O314497   0.957   5.950   6.535 -0.3649  0.0664 -0.0332
  134OSM    HO314498   0.959   6.046   6.536  1.1546  0.0929 -1.7772
  134OSM    C4S14499   0.911   5.833   6.728 -0.3200 -0.4515  0.8458
  134OSM    H4S14500   0.802   5.846   6.718 -0.1175 -0.5505 -1.7994
  134OSM    C5S14501   0.951   5.722   6.794  0.0001  0.5000 -0.1029
  134OSM    H5S14502   1.050   5.715   6.840  0.4254  1.6268 -0.8076
  134OSM    C6S14503   0.864   5.612   6.850 -0.2051  1.0683 -0.4165
  134OSM    H6S14504   0.877   5.519   6.792  1.1609  1.0875 -0.1630
  134OSM    H6T14505   0.757   5.639   6.840 -0.5620  0.3944  1.3383
  134OSM    C7S14506   0.913   5.584   6.996  0.0099 -0.4028 -0.0875
  134OSM    H7S14507   1.013   5.537   6.982  0.3006 -0.2125  1.2710
  134OSM    H7T14508   0.837   5.515   7.038 -1.0209  1.4706  1.1697
  134OSM    C8S14509   0.903   5.694   7.101 -0.6584 -0.0611 -0.2121
  134OSM    H8S14510   0.801   5.737   7.111 -0.8652 -1.2791  3.6655
  134OSM    H8T14511   0.968   5.778   7.068 -1.6851  0.4017 -1.1208
  134OSM    C9S14512   0.943   5.640   7.234  0.1523  0.1074 -0.4153
  134OSM    H9S14513   1.050   5.613   7.247 -0.1034 -0.2490  1.0699
  134OSM    H9T14514   0.885   5.547   7.247  1.2679 -0.3280  1.7241
  134OSM   C10S14515   0.890   5.715   7.356 -0.1105 -0.1577  0.0380
  134OSM   H10S14516   0.779   5.729   7.354 -0.6677 -3.8187  1.0994
  134OSM   H10T14517   0.938   5.815   7.355 -2.8334  1.2043  0.4874
  134OSM   C11S14518   0.916   5.652   7.498 -0.0350  0.3897 -0.1144
  134OSM   H11S14519   1.025   5.642   7.514 -0.4345 -0.7800  1.9841
  134OSM   H11T14520   0.875   5.549   7.494  0.1734  0.3221 -0.5141
  134OSM   C12S14521   0.843   5.740   7.603 -0.0186  0.3518  0.5308
  134OSM   H12S14522   0.739   5.702   7.605 -0.4453  1.5479  1.4221
  134OSM   H12T14523   0.836   5.846   7.571  1.2244 -0.2615 -1.9289
  134OSM   C13S14524   0.915   5.734   7.740 -0.3221  0.3506 -0.1496
  134OSM   H13S14525   0.858   5.787   7.819  1.0364  1.1612  0.3226
  134OSM   H13T14526   1.007   5.797   7.739 -1.0212  1.3732 -1.7382
  134OSM   C14S14527   0.936   5.599   7.809 -0.5482 -0.6697 -0.6476
  134OSM   H14S14528   0.992   5.543   7.731  0.7587  0.0496 -0.2420
  134OSM   H14T14529   0.834   5.555   7.819  0.0628 -1.6827  1.4948
  134OSM   C15S14530   1.017   5.604   7.942 -0.4097 -0.4320 -0.4650
  134OSM   H15S14531   1.098   5.680   7.934 -1.8620  1.0326 -1.5985
  134OSM   H15T14532   1.064   5.506   7.964  0.8299  0.7989  2.5540
  134OSM   C16S14533   0.946   5.647   8.072  0.2435 -0.0071 -0.8622
  134OSM   H16S14534   0.885   5.560   8.105 -0.3598  0.2876 -1.1978
  134OSM   H16T14535   0.882   5.735   8.049  1.0441  0.4530 -1.3486
  134OSM   C17S14536   1.055   5.674   8.177  0.3058  0.3545 -0.2256
  134OSM   H17S14537   1.112   5.767   8.156 -1.2186  1.3537 -0.0673
  134OSM   H17T14538   1.127   5.590   8.173 -0.7645 -0.5687 -0.4210
  134OSM   C18S14539   1.002   5.682   8.315  0.1565 -0.3257  0.2742
  134OSM   H18S14540   0.915   5.750   8.321  0.1380 -0.2382 -0.9890
  134OSM   H18T14541   1.082   5.720   8.382  0.3582 -3.9843  2.2795
  134OSM   H18U14542   0.964   5.584   8.352 -0.3545 -0.2762 -0.1170
  134OSM    C1F14543   0.937   6.169   6.987 -0.3639  0.5513 -0.5174
  134OSM     OF14544   0.846   6.237   6.944  0.7112  0.3148 -0.5830
  134OSM    C2F14545   0.982   6.180   7.138 -0.2908 -0.1919 -0.3087
  134OSM    H2F14546   1.065   6.250   7.164  1.7198 -2.9473  0.9545
  134OSM    H2G14547   1.025   6.082   7.168  0.6510  0.0581 -0.7937
  134OSM    C3F14548   0.860   6.215   7.226  0.4794 -0.0695  0.7030
  134OSM    H3F14549   0.764   6.168   7.199  1.2298 -0.6662 -0.9545
  134OSM    H3G14550   0.847   6.324   7.210  0.8276 -0.1527 -0.1387
  134OSM    C4F14551   0.864   6.185   7.379  0.9513  0.3656 -0.7452
  134OSM    H4F14552   0.914   6.086   7.394 -0.4491 -0.2338  0.0589
  134OSM    H4G14553   0.762   6.181   7.423  0.9040  1.6123 -0.7254
  134OSM    C5F14554   0.941   6.302   7.451 -0.0909  0.7746 -0.2209
  134OSM    H5F14555   0.875   6.391   7.442  1.3627  1.9072  0.2157
  134OSM    H5G14556   1.039   6.313   7.401  0.3733  3.8197  1.2870
  134OSM    C6F14557   0.964   6.268   7.594  0.0018 -0.4540 -0.8951
  134OSM    H6F14558   1.047   6.333   7.630 -0.3505 -0.7024  0.3877
  134OSM    H6G14559   1.007   6.168   7.615  0.0335 -0.1032  0.7287
  134OSM    C7F14560   0.842   6.278   7.690  0.1611  0.4419 -0.1407
  134OSM    H7F14561   0.756   6.216   7.656  0.2744  0.4152 -0.3792
  134OSM    H7G14562   0.801   6.376   7.658 -0.2364  0.9122  1.8059
  134OSM    C8F14563   0.881   6.252   7.837  0.2093  0.5333  0.1083
  134OSM    H8F14564   0.788   6.278   7.892  0.3305  2.1739 -0.4480
  134OSM    H8G14565   0.956   6.322   7.877  1.9958 -0.7928 -0.8441
  134OSM    C9F14566   0.926   6.104   7.861  0.9061  0.7045 -0.6558
  134OSM    H9F14567   0.892   6.039   7.780  0.8718 -1.2570  0.9105
  134OSM   C10F14568   0.990   6.053   7.971  0.4372 -0.3791 -0.0752
  134OSM   H10F14569   1.036   5.953   7.965  2.0294  0.4094 -1.3057
  134OSM   C11F14570   1.036   6.118   8.099 -0.4147 -0.4018 -0.8433
  134OSM   H11F14571   1.059   6.226   8.094 -1.1512 -0.2708 -1.3762
  134OSM   H11G14572   1.136   6.073   8.121 -1.7489 -2.4692  1.3447
  134OSM   C12F14573   0.943   6.075   8.214  0.0608 -0.6177  0.0250
  134OSM   H12F14574   0.952   5.965   8.225  0.3286 -0.6859 -0.8305
  134OSM   H12G14575   0.836   6.103   8.203  0.2070 -0.4997 -1.2150
  134OSM   C13F14576   0.992   6.144   8.346  0.2860  0.1617  0.1764
  134OSM   H13F14577   1.093   6.127   8.390  0.9759  0.5447 -1.2221
  134OSM   H13G14578   0.921   6.101   8.420 -1.3495  0.8725 -0.9367
  134OSM   C14F14579   0.969   6.292   8.342 -0.0845  0.2524 -0.3039
  134OSM   H14F14580   0.865   6.310   8.309  0.1708  1.3585 -0.5246
  134OSM   H14G14581   1.032   6.346   8.268  1.7357 -0.8171  0.4169
  134OSM   C15F14582   0.987   6.348   8.481  0.8737 -0.4609  0.0903
  134OSM   H15F14583   0.995   6.458   8.467  2.5953 -0.7801 -1.5750
  134OSM   H15G14584   1.087   6.325   8.523  2.1866 -3.1029 -4.1438
  134OSM   C16F14585   0.871   6.325   8.570 -0.1280  0.1206 -0.0815
  134OSM   H16F14586   0.889   6.232   8.628 -0.1149  0.6522  0.7691
  134OSM   H16G14587   0.776   6.300   8.517 -0.1772  1.1914 -0.5257
  134OSM   C17F14588   0.845   6.439   8.672  0.8730 -0.2513  0.3173
  134OSM   H17F14589   0.804   6.527   8.617  2.1924 -1.1400 -2.1621
  134OSM   H17G14590   0.938   6.469   8.725  0.8008 -0.7824  0.7491
  134OSM   C18F14591   0.735   6.412   8.771  0.0990  0.1883 -0.1142
  134OSM   H18F14592   0.774   6.332   8.837  0.6377  0.8126  0.3366
  134OSM   H18G14593   0.646   6.386   8.710 -0.8796  6.4810 -1.7135
  134OSM   H18H14594   0.705   6.493   8.841 -0.6594 -1.4309  1.4939
  135OSM      N14595   0.845   6.101   6.073  0.4495  0.0071 -0.6666
  135OSM    C1514596   0.792   6.007   5.971 -0.0768  0.1719 -0.0103
  135OSM   H15A14597   0.763   5.918   6.024  1.4568  0.0768  0.7177
  135OSM   H15B14598   0.868   5.983   5.898  1.7080 -0.2264  1.9026
  135OSM   H15C14599   0.700   6.048   5.935  0.1835  1.2990  0.5706
  135OSM    C1414600   0.971   6.058   6.131 -0.1792 -0.8546 -0.5422
  135OSM   H14A14601   0.960   5.965   6.185 -1.0378 -0.3536  0.1487
  135OSM   H14B14602   1.009   6.121   6.210 -1.2213 -0.4772 -0.3362
  135OSM   H14C14603   1.052   6.047   6.060  0.1909  0.5035 -0.3555
  135OSM    C1314604   0.875   6.231   6.007 -0.3266 -0.5129 -0.1414
  135OSM   H13A14605   0.931   6.280   6.085 -2.2971 -1.6054  2.0458
  135OSM   H13B14606   0.784   6.288   5.992 -0.4465  0.5376  3.9640
  135OSM   H13C14607   0.935   6.221   5.918  2.7796  3.1681  1.4302
  135OSM    C1214608   0.745   6.117   6.182  0.2665  0.2920 -1.2012
  135OSM   H12A14609   0.734   6.017   6.219 -1.1566  0.4324 -1.1835
  135OSM   H12B14610   0.650   6.152   6.142 -0.6095  0.0338  0.6032
  135OSM    C1114611   0.787   6.200   6.305 -0.7655  0.4572  0.0344
  135OSM   H11A14612   0.876   6.166   6.362 -1.1617 -1.0396 -0.2246
  135OSM   H11B14613   0.693   6.187   6.364 -0.1136 -4.2563  0.1949
  135OSM      P14614   0.689   6.431   6.271 -0.0115 -0.2099  0.0313
  135OSM    O1314615   0.742   6.566   6.228  0.2681  0.1370  0.3566
  135OSM    O1414616   0.576   6.372   6.196  0.3581 -0.1883  0.0310
  135OSM    O1114617   0.645   6.437   6.421 -0.3347  0.5848  0.0017
  135OSM    O1214618   0.809   6.336   6.274  0.0104  0.1144  0.2144
  135OSM    C1S14619   0.745   6.432   6.523 -0.1141  0.5703 -0.1481
  135OSM    H1S14620   0.823   6.510   6.515  0.8119  0.0110  2.7859
  135OSM    H1T14621   0.808   6.341   6.525 -1.8102 -0.5950  2.1779
  135OSM     NF14622   0.784   6.464   6.756 -0.2486  0.4460 -0.4886
  135OSM    HNF14623   0.808   6.386   6.814 -0.3159  1.5994  1.1464
  135OSM    C2S14624   0.683   6.446   6.665  0.3161  0.4086  0.2172
  135OSM    H2S14625   0.622   6.540   6.661 -0.3426  0.0698  1.8146
  135OSM    C3S14626   0.596   6.330   6.709  0.1791  0.4781  0.5768
  135OSM    H3S14627   0.668   6.256   6.749  0.2358  0.1934 -0.0545
  135OSM     O314628   0.511   6.268   6.606  0.1239 -0.4744  0.1441
  135OSM    HO314629   0.528   6.318   6.527  1.6587 -0.3300  0.5510
  135OSM    C4S14630   0.504   6.380   6.817 -0.1820 -1.0230  0.6737
  135OSM    H4S14631   0.430   6.460   6.800  2.0663  1.3681  1.7321
  135OSM    C5S14632   0.518   6.329   6.944 -0.5555 -0.2271 -0.4656
  135OSM    H5S14633   0.596   6.256   6.972  0.8179  0.9742 -1.1004
  135OSM    C6S14634   0.420   6.374   7.055 -0.2382  0.1348 -0.2503
  135OSM    H6S14635   0.331   6.308   7.055 -1.8474  2.2287  2.1284
  135OSM    H6T14636   0.382   6.477   7.038 -0.2109  0.3138  0.7304
  135OSM    C7S14637   0.490   6.368   7.192  0.3281 -0.6516 -0.3595
  135OSM    H7S14638   0.585   6.425   7.198  0.4652 -1.0227  1.5327
  135OSM    H7T14639   0.524   6.263   7.203  1.0679 -0.5718 -1.8136
  135OSM    C8S14640   0.396   6.406   7.303  0.1344  0.2597 -0.0139
  135OSM    H8S14641   0.314   6.331   7.301 -1.3510  1.8928 -0.9908
  135OSM    H8T14642   0.349   6.505   7.289  0.2206  0.3750  0.5194
  135OSM    C9S14643   0.462   6.400   7.445  0.1451  0.3274  0.0732
  135OSM    H9S14644   0.562   6.449   7.438  0.4796 -0.2880  0.4542
  135OSM    H9T14645   0.488   6.294   7.464 -4.2747 -0.4379  2.5569
  135OSM   C10S14646   0.358   6.454   7.540 -0.6222 -0.6126  0.1249
  135OSM   H10S14647   0.299   6.362   7.558 -0.5899 -0.7695 -0.5634
  135OSM   H10T14648   0.295   6.530   7.490 -1.7462 -2.5960 -1.5174
  135OSM   C11S14649   0.418   6.522   7.663 -0.3986  0.2912 -0.8188
  135OSM   H11S14650   0.343   6.590   7.709 -0.3628  0.9094 -1.6687
  135OSM   H11T14651   0.502   6.589   7.636 -1.1830  0.8578 -1.8965
  135OSM   C12S14652   0.453   6.420   7.774  0.4313  0.3299 -0.2788
  135OSM   H12S14653   0.525   6.342   7.743 -0.2067 -0.9968  1.4816
  135OSM   H12T14654   0.359   6.362   7.787  2.3813 -2.6541  1.1455
  135OSM   C13S14655   0.490   6.472   7.914  0.4445 -0.1972  0.1501
  135OSM   H13S14656   0.592   6.518   7.917  0.2197  0.2083  2.0726
  135OSM   H13T14657   0.491   6.380   7.976 -1.6676 -0.9746 -0.9240
  135OSM   C14S14658   0.391   6.578   7.966  0.1420  0.2213  0.1838
  135OSM   H14S14659   0.293   6.528   7.953 -0.4346  0.6442  2.6073
  135OSM   H14T14660   0.406   6.676   7.915  2.9672 -0.4463 -0.3705
  135OSM   C15S14661   0.426   6.611   8.111  0.2091  0.0829 -0.2003
  135OSM   H15S14662   0.424   6.721   8.128 -1.1670  0.2145 -1.1239
  135OSM   H15T14663   0.522   6.568   8.146  0.7448 -0.0586 -1.8235
  135OSM   C16S14664   0.316   6.556   8.209 -0.3312  0.4943 -0.3769
  135OSM   H16S14665   0.320   6.445   8.202  0.2341  0.5654 -1.2333
  135OSM   H16T14666   0.223   6.592   8.161 -1.4655 -1.1344  0.5736
  135OSM   C17S14667   0.319   6.617   8.349 -0.0863 -0.4849  0.4709
  135OSM   H17S14668   0.320   6.727   8.364  0.4015 -0.3507 -0.4822
  135OSM   H17T14669   0.421   6.590   8.384 -0.3937 -1.3778  0.6832
  135OSM   C18S14670   0.222   6.558   8.451  0.3616  0.0584 -0.5755
  135OSM   H18S14671   0.267   6.463   8.486 -0.3920 -0.7126 -1.6512
  135OSM   H18T14672   0.123   6.544   8.402  0.4784  0.7528 -1.0174
  135OSM   H18U14673   0.221   6.625   8.540  0.6897  2.0352 -2.0259
  135OSM    C1F14674   0.846   6.580   6.764  0.2532  0.0237 -0.8457
  135OSM     OF14675   0.811   6.674   6.699 -0.3730  0.0566  0.2507
  135OSM    C2F14676   0.972   6.582   6.857  0.9393  0.5626 -0.0616
  135OSM    H2F14677   1.038   6.666   6.825 -0.3072  0.7798 -2.1193
  135OSM    H2G14678   1.027   6.492   6.820 -0.8182 -0.3109 -0.5877
  135OSM    C3F14679   0.948   6.581   7.009  0.0629 -0.1562  0.5631
  135OSM    H3F14680   0.893   6.486   7.029  0.9163 -0.3961  1.8979
  135OSM    H3G14681   0.886   6.666   7.044  1.1902  0.4753  1.0629
  135OSM    C4F14682   1.086   6.599   7.082  0.2966 -0.4042  0.3562
  135OSM    H4F14683   1.153   6.678   7.042  0.5746  0.0232  1.6340
  135OSM    H4G14684   1.132   6.499   7.070 -1.7660 -0.9773 -3.3073
  135OSM    C5F14685   1.063   6.640   7.226  0.0180 -0.0297  0.2356
  135OSM    H5F14686   1.007   6.552   7.266  1.2878 -0.8078  0.3228
  135OSM    H5G14687   1.007   6.733   7.246  2.0190  1.2584 -0.0326
  135OSM    C6F14688   1.196   6.654   7.303  0.1559  0.3605 -0.0072
  135OSM    H6F14689   1.216   6.762   7.290  0.5603  0.2708 -0.1441
  135OSM    H6G14690   1.283   6.596   7.264 -0.8213 -0.4773 -0.9842
  135OSM    C7F14691   1.173   6.623   7.449  0.3952 -0.1067 -0.8518
  135OSM    H7F14692   1.270   6.635   7.502 -0.8573  0.1317  1.4568
  135OSM    H7G14693   1.140   6.517   7.461  0.5965  0.1223  2.1988
  135OSM    C8F14694   1.072   6.712   7.531 -0.0550  0.0205  0.7488
  135OSM    H8F14695   1.003   6.771   7.466  1.1490 -0.7103 -1.2604
  135OSM    H8G14696   1.129   6.794   7.579 -2.3511  2.1030  0.0109
  135OSM    C9F14697   1.001   6.630   7.634  0.2778  1.0845 -0.1179
  135OSM    H9F14698   0.950   6.536   7.609  0.1405  1.1231  0.0112
  135OSM   C10F14699   1.006   6.651   7.768 -0.1504 -0.5329 -0.6253
  135OSM   H10F14700   0.944   6.590   7.835  0.6032  2.2999  2.8271
  135OSM   C11F14701   1.085   6.755   7.843  0.4045  0.1283  0.3761
  135OSM   H11F14702   1.063   6.855   7.801  2.4973  0.2095 -0.6221
  135OSM   H11G14703   1.194   6.757   7.819  0.1211  1.0422 -0.8995
  135OSM   C12F14704   1.082   6.752   7.995 -0.2105 -0.5309  0.7904
  135OSM   H12F14705   1.165   6.819   8.026  0.6728 -2.4330  2.6545
  135OSM   H12G14706   1.098   6.656   8.048 -0.9655 -0.7803  0.5796
  135OSM   C13F14707   0.958   6.818   8.059  0.8561  0.6778 -0.2071
  135OSM   H13F14708   0.870   6.765   8.017 -0.0005  2.1035 -0.2545
  135OSM   H13G14709   0.953   6.925   8.028 -0.1934 -0.1708 -3.1314
  135OSM   C14F14710   0.958   6.807   8.211 -0.4492 -0.3571  0.5391
  135OSM   H14F14711   0.944   6.699   8.236  0.6670 -0.5354  0.3958
  135OSM   H14G14712   0.872   6.860   8.257 -0.7861 -0.2310 -0.2234
  135OSM   C15F14713   1.079   6.843   8.292  0.0355 -0.3154 -0.2070
  135OSM   H15F14714   1.111   6.950   8.298  0.4002 -0.4401  0.0923
  135OSM   H15G14715   1.166   6.794   8.244  2.2109  2.1871  1.0398
  135OSM   C16F14716   1.065   6.786   8.430  0.1750 -0.2015  0.4865
  135OSM   H16F14717   1.043   6.679   8.412 -0.5105 -0.0492  0.3800
  135OSM   H16G14718   0.983   6.839   8.485 -0.0932 -1.5322  1.4046
  135OSM   C17F14719   1.180   6.796   8.532  0.3320  0.6161  0.4509
  135OSM   H17F14720   1.219   6.899   8.519 -2.9954  1.7556 -0.8063
  135OSM   H17G14721   1.260   6.726   8.501 -0.4509 -0.5088  0.9444
  135OSM   C18F14722   1.149   6.759   8.678 -0.1351 -0.0299  0.4274
  135OSM   H18F14723   1.058   6.815   8.709 -1.8012 -1.7686 -1.2288
  135OSM   H18G14724   1.242   6.771   8.738  0.2026 -2.7312  0.4870
  135OSM   H18H14725   1.136   6.649   8.672 -0.0592 -0.1176  1.6455
  136OSM      N14726   5.950   0.116   5.998  0.4361 -0.1142  0.4215
  136OSM    C1514727   6.073   0.203   5.988 -0.0791 -0.7280  0.3250
  136OSM   H15A14728   6.091   0.237   6.089 -1.4888 -1.6138  0.9099
  136OSM   H15B14729   6.056   0.269   5.904  0.9194  0.7614  1.2835
  136OSM   H15C14730   6.160   0.143   5.968  0.1958  0.0335 -0.7772
  136OSM    C1414731   5.928   0.061   5.858 -0.5282 -0.7725  0.2476
  136OSM   H14A14732   5.846  -0.008   5.868 -0.4337 -0.9620 -0.2912
  136OSM   H14B14733   6.014   0.015   5.813  0.7541  1.3443  0.4409
  136OSM   H14C14734   5.894   0.135   5.787 -0.1219 -0.8739 -0.0556
  136OSM    C1314735   5.972  -0.002   6.083 -0.3080  0.3763 -0.9205
  136OSM   H13A14736   5.894  -0.076   6.080 -0.1873  0.2753 -1.7356
  136OSM   H13B14737   5.990   0.019   6.187 -2.2480 -1.2125 -0.2417
  136OSM   H13C14738   6.061  -0.055   6.052 -0.2724  0.1575 -0.4500
  136OSM    C1214739   5.819   0.192   6.042 -1.1080  0.0462  0.3324
  136OSM   H12A14740   5.741   0.120   6.022 -1.9963  1.4116 -1.1702
  136OSM   H12B14741   5.810   0.282   5.985 -2.2217  0.1379  0.6493
  136OSM    C1114742   5.817   0.234   6.190  0.2640 -0.2550 -1.5098
  136OSM   H11A14743   5.825   0.148   6.260 -0.1287  1.2758  0.4431
  136OSM   H11B14744   5.713   0.271   6.202  1.7216  3.0280  2.0662
  136OSM      P14745   5.874   0.476   6.175 -0.1071 -0.2684  0.3468
  136OSM    O1314746   5.994   0.551   6.208 -0.0863  0.1020  0.0605
  136OSM    O1414747   5.828   0.472   6.033 -0.3247  0.3918 -0.0706
  136OSM    O1114748   5.760   0.517   6.276  0.5512 -0.2345  0.0548
  136OSM    O1214749   5.917   0.326   6.221  0.5995  0.5320  0.0240
  136OSM    C1S14750   5.751   0.472   6.411 -0.2740  1.1606  0.3924
  136OSM    H1S14751   5.753   0.361   6.417 -1.9205  1.0477 -0.7880
  136OSM    H1T14752   5.648   0.488   6.449 -0.8094  0.9167 -0.9203
  136OSM     NF14753   5.815   0.491   6.649 -0.3633 -0.1206 -0.0427
  136OSM    HNF14754   5.724   0.519   6.677 -1.8474 -2.5585 -2.2333
  136OSM    C2S14755   5.849   0.533   6.512  0.3501 -0.2044  0.3572
  136OSM    H2S14756   5.950   0.496   6.484 -0.0880 -0.3036 -1.1083
  136OSM    C3S14757   5.861   0.686   6.507  0.3711  0.5675 -0.7764
  136OSM    H3S14758   5.763   0.733   6.530  1.0126  2.4813 -1.8065
  136OSM     O314759   5.903   0.740   6.382 -0.4749 -0.7868 -0.0490
  136OSM    HO314760   5.923   0.652   6.348  1.2915 -0.1264 -0.7370
  136OSM    C4S14761   5.960   0.737   6.606 -0.4875 -0.1927  0.4319
  136OSM    H4S14762   6.061   0.702   6.580 -0.4865 -1.3291  1.8303
  136OSM    C5S14763   5.945   0.827   6.710  0.5172 -0.8716  0.4113
  136OSM    H5S14764   5.848   0.876   6.726  0.6349 -0.0299 -1.3537
  136OSM    C6S14765   6.063   0.869   6.792  0.3210  0.2184  0.3582
  136OSM    H6S14766   6.082   0.977   6.772  0.1148  0.3790  1.0042
  136OSM    H6T14767   6.159   0.818   6.770  0.4737  0.7083 -0.1035
  136OSM    C7S14768   6.042   0.856   6.941  0.5437  0.1378 -0.7981
  136OSM    H7S14769   5.953   0.914   6.974  0.7377  1.4440 -2.4672
  136OSM    H7T14770   6.131   0.905   6.985 -1.2157  0.4890  2.5447
  136OSM    C8S14771   6.049   0.702   6.990 -0.2590 -0.7815  0.0884
  136OSM    H8S14772   6.153   0.681   6.957  0.0660 -0.3109  0.8042
  136OSM    H8T14773   5.966   0.650   6.937  1.8216 -2.0428 -1.9740
  136OSM    C9S14774   6.043   0.681   7.143 -0.1815  0.5891  0.0039
  136OSM    H9S14775   6.053   0.573   7.169 -0.3729  0.5501 -0.0860
  136OSM    H9T14776   5.941   0.702   7.182 -0.0046 -0.4581  1.0799
  136OSM   C10S14777   6.157   0.750   7.219 -0.2717  0.3388  0.2302
  136OSM   H10S14778   6.144   0.860   7.209  0.2181  0.6341  2.6790
  136OSM   H10T14779   6.254   0.721   7.172 -0.3968 -1.0024  0.7779
  136OSM   C11S14780   6.160   0.698   7.360  0.3380  0.2359 -0.5234
  136OSM   H11S14781   6.141   0.589   7.356  1.8065 -0.1751  2.1136
  136OSM   H11T14782   6.076   0.739   7.420  1.5383  1.6146  0.2475
  136OSM   C12S14783   6.278   0.735   7.442 -0.8636 -0.1835  0.3574
  136OSM   H12S14784   6.301   0.841   7.418 -0.0075 -0.5262 -0.3856
  136OSM   H12T14785   6.363   0.674   7.404 -1.7462 -0.4081 -1.2802
  136OSM   C13S14786   6.246   0.703   7.586  0.5102 -0.7566  0.0178
  136OSM   H13S14787   6.237   0.592   7.592  2.0902 -1.0084 -1.7772
  136OSM   H13T14788   6.166   0.753   7.644  0.3463  0.4580 -1.2494
  136OSM   C14S14789   6.368   0.735   7.679 -0.4721 -0.1764  0.9613
  136OSM   H14S14790   6.395   0.842   7.663 -0.5022 -0.4806 -1.4156
  136OSM   H14T14791   6.451   0.671   7.641 -1.7048 -0.6702 -0.9876
  136OSM   C15S14792   6.360   0.717   7.833  0.6334 -0.0920 -0.2413
  136OSM   H15S14793   6.313   0.622   7.866 -0.4908  0.4117 -0.3616
  136OSM   H15T14794   6.289   0.795   7.869 -0.7123 -1.2156 -0.4466
  136OSM   C16S14795   6.495   0.735   7.906  0.3092  0.3724 -0.7636
  136OSM   H16S14796   6.575   0.789   7.852  2.6394 -0.6054  1.6330
  136OSM   H16T14797   6.533   0.632   7.925  2.0416  0.7175 -2.3358
  136OSM   C17S14798   6.475   0.787   8.046 -0.0907  0.1425  0.0969
  136OSM   H17S14799   6.386   0.736   8.088  1.2961 -3.2637 -0.9877
  136OSM   H17T14800   6.454   0.896   8.042 -0.8931  0.0018  0.5167
  136OSM   C18S14801   6.592   0.761   8.136  0.1374 -0.3684  0.5880
  136OSM   H18S14802   6.673   0.835   8.125 -2.4191  2.1052 -2.4018
  136OSM   H18T14803   6.632   0.659   8.120  0.7978 -0.2263  1.2981
  136OSM   H18U14804   6.558   0.760   8.243 -0.9989  0.4820  0.2475
  136OSM    C1F14805   5.877   0.377   6.693  0.5526 -0.4083 -0.1182
  136OSM     OF14806   5.977   0.333   6.641 -0.7128 -0.1030  0.4994
  136OSM    C2F14807   5.806   0.297   6.802 -0.0486  0.0276  0.5946
  136OSM    H2F14808   5.761   0.208   6.753  0.7069 -1.2225  2.1345
  136OSM    H2G14809   5.728   0.349   6.862 -0.6340 -0.8354  0.5796
  136OSM    C3F14810   5.890   0.251   6.925 -1.1972 -0.0332  0.5787
  136OSM    H3F14811   5.922   0.341   6.982  1.0149  0.0309 -0.7149
  136OSM    H3G14812   5.981   0.197   6.893 -1.2224  0.9360 -1.2087
  136OSM    C4F14813   5.795   0.166   7.015  0.8040  0.3483 -0.1782
  136OSM    H4F14814   5.790   0.064   6.971 -0.6627  1.0376 -1.6874
  136OSM    H4G14815   5.692   0.208   7.024  0.5432 -0.2191 -0.4769
  136OSM    C5F14816   5.854   0.166   7.156  0.1686 -0.7099 -1.0336
  136OSM    H5F14817   5.860   0.273   7.186 -2.8718 -0.7453 -0.1188
  136OSM    H5G14818   5.958   0.126   7.163 -0.5249 -2.3784 -0.2389
  136OSM    C6F14819   5.773   0.091   7.250  0.5310  0.1737 -0.4512
  136OSM    H6F14820   5.738  -0.001   7.198  0.0110  0.3721 -0.4590
  136OSM    H6G14821   5.677   0.136   7.282 -0.7222 -2.1322 -0.8273
  136OSM    C7F14822   5.840   0.060   7.384  0.1564 -0.1873  0.7561
  136OSM    H7F14823   5.872   0.152   7.436  1.5955 -1.3681  2.0384
  136OSM    H7G14824   5.936   0.009   7.360 -0.8262 -1.9873  0.5087
  136OSM    C8F14825   5.748  -0.015   7.484 -0.2222 -0.5626 -0.3938
  136OSM    H8F14826   5.696  -0.102   7.441 -1.6891  0.4497 -0.6876
  136OSM    H8G14827   5.672   0.063   7.506  1.1480  0.6507  0.2072
  136OSM    C9F14828   5.827  -0.042   7.606 -0.5647  0.4461 -0.2512
  136OSM    H9F14829   5.919  -0.100   7.590  0.8675  2.2145  1.1931
  136OSM   C10F14830   5.799  -0.016   7.735 -0.2177  0.5425  0.1500
  136OSM   H10F14831   5.879  -0.032   7.809  0.6209  2.2041 -0.3824
  136OSM   C11F14832   5.668   0.054   7.781 -0.0510  0.0211  0.3408
  136OSM   H11F14833   5.595   0.051   7.698  1.5596 -0.1993 -1.1015
  136OSM   H11G14834   5.688   0.162   7.796 -1.6103  0.5832 -1.4996
  136OSM   C12F14835   5.587   0.002   7.903  0.2017  0.2593 -0.1355
  136OSM   H12F14836   5.653  -0.016   7.991 -0.6239 -0.5700  0.3180
  136OSM   H12G14837   5.528  -0.086   7.869 -1.1389  0.8263  0.6828
  136OSM   C13F14838   5.468   0.101   7.942  0.5328 -0.3162 -0.9296
  136OSM   H13F14839   5.408   0.032   8.004  2.2824 -2.1978 -1.2958
  136OSM   H13G14840   5.414   0.136   7.851 -2.1722  0.2837  0.8596
  136OSM   C14F14841   5.509   0.223   8.024 -0.4025 -0.4721 -0.7401
  136OSM   H14F14842   5.546   0.305   7.960  0.2338  0.7179  1.1175
  136OSM   H14G14843   5.584   0.196   8.102 -3.4759  0.2840  2.6016
  136OSM   C15F14844   5.388   0.277   8.107  0.1896 -0.8708  0.0944
  136OSM   H15F14845   5.343   0.192   8.163  1.2140 -2.4800 -1.4989
  136OSM   H15G14846   5.311   0.317   8.038  1.0875  1.5552  0.4600
  136OSM   C16F14847   5.426   0.395   8.201 -0.8979 -0.1146 -0.8181
  136OSM   H16F14848   5.447   0.491   8.150  0.0378  1.0561  1.7151
  136OSM   H16G14849   5.518   0.374   8.259 -1.3781  0.3934  0.1442
  136OSM   C17F14850   5.325   0.423   8.310 -0.3039  0.2718 -0.0388
  136OSM   H17F14851   5.309   0.338   8.379 -0.7928 -0.4603 -1.0499
  136OSM   H17G14852   5.225   0.454   8.273 -0.0391  0.0907 -0.9266
  136OSM   C18F14853   5.372   0.547   8.386  0.0369 -0.5445 -0.3787
  136OSM   H18F14854   5.463   0.520   8.444 -1.7367 -0.3156  2.6223
  136OSM   H18G14855   5.298   0.579   8.463 -0.4332 -1.5921 -0.3914
  136OSM   H18H14856   5.389   0.642   8.332 -2.3571 -0.3034 -0.7675
  137OSM      N14857   2.316   4.906   6.430 -0.5351 -0.6152  0.2704
  137OSM    C1514858   2.424   4.861   6.526 -0.9212  0.6370  0.5847
  137OSM   H15A14859   2.438   4.934   6.605 -0.2366  1.1476  0.0033
  137OSM   H15B14860   2.519   4.857   6.474  0.1582  1.7223  2.3990
  137OSM   H15C14861   2.402   4.770   6.580 -2.4624 -0.9050 -2.5015
  137OSM    C1414862   2.367   5.015   6.346  0.3315  0.2870  0.1587
  137OSM   H14A14863   2.373   5.096   6.417  0.0755 -0.4316  1.0109
  137OSM   H14B14864   2.295   5.034   6.268  1.5653  0.1459 -1.0314
  137OSM   H14C14865   2.462   4.999   6.297 -0.2478 -2.2320 -0.2244
  137OSM    C1314866   2.277   4.793   6.340  0.6311 -0.3073  0.1252
  137OSM   H13A14867   2.236   4.717   6.405  1.5157 -0.8087  0.1081
  137OSM   H13B14868   2.355   4.762   6.272 -1.5967 -1.0450 -2.1487
  137OSM   H13C14869   2.194   4.830   6.282  0.8209  1.5167  0.9841
  137OSM    C1214870   2.190   4.955   6.503 -0.4737  0.4060 -0.0084
  137OSM   H12A14871   2.139   4.881   6.562 -1.5052  0.4854 -0.7959
  137OSM   H12B14872   2.129   4.986   6.419  0.9484  1.2036 -0.7666
  137OSM    C1114873   2.210   5.072   6.605  0.5073 -0.4782  0.9333
  137OSM   H11A14874   2.277   5.033   6.685 -0.9362 -1.4936  1.6629
  137OSM   H11B14875   2.105   5.083   6.642 -0.4037 -1.1299 -1.3899
  137OSM      P14876   2.199   5.323   6.567  0.0449  0.3461 -0.0431
  137OSM    O1314877   2.303   5.427   6.549 -0.4555  0.2075  0.7783
  137OSM    O1414878   2.075   5.333   6.489  0.5493  0.1486 -0.0537
  137OSM    O1114879   2.145   5.319   6.720  0.1767  0.4714  0.0442
  137OSM    O1214880   2.264   5.188   6.540  0.2402 -0.2457  0.2943
  137OSM    C1S14881   2.230   5.373   6.826 -0.0369  0.1928  0.1542
  137OSM    H1S14882   2.296   5.458   6.799 -0.9501  0.8766  0.0728
  137OSM    H1T14883   2.295   5.289   6.860 -1.0569 -1.1791 -1.2035
  137OSM     NF14884   2.235   5.450   7.051 -0.7750 -0.2804 -0.3516
  137OSM    HNF14885   2.249   5.386   7.126  2.2171 -0.9485 -1.4348
  137OSM    C2S14886   2.140   5.408   6.950  0.4657  0.5139  0.2893
  137OSM    H2S14887   2.072   5.495   6.941 -0.0473  0.1338  0.4537
  137OSM    C3S14888   2.046   5.286   6.993  0.3742  0.0732 -0.7993
  137OSM    H3S14889   2.113   5.198   6.999 -1.0762 -1.1866 -2.4089
  137OSM     O314890   1.951   5.239   6.898  0.3560 -0.1843  0.3758
  137OSM    HO314891   2.001   5.241   6.817  0.5583 -0.7032  0.4842
  137OSM    C4S14892   1.966   5.327   7.118  0.0808  0.5279  0.2302
  137OSM    H4S14893   1.888   5.402   7.098  1.5178  1.8556 -0.4362
  137OSM    C5S14894   1.977   5.275   7.240  0.0975  0.9801 -0.3092
  137OSM    H5S14895   2.056   5.199   7.250 -0.1886  0.5534 -1.2968
  137OSM    C6S14896   1.895   5.319   7.360  0.5121 -0.0735 -0.1410
  137OSM    H6S14897   1.854   5.232   7.417 -1.3134  0.6808 -0.2540
  137OSM    H6T14898   1.805   5.373   7.323  0.0758  0.3963  1.5718
  137OSM    C7S14899   1.967   5.412   7.462 -0.2399 -0.3306 -0.5190
  137OSM    H7S14900   2.005   5.499   7.404 -1.1620  0.4494  0.0391
  137OSM    H7T14901   2.049   5.354   7.510  1.9093  2.5344 -0.6383
  137OSM    C8S14902   1.869   5.454   7.574  0.2916  0.0289  0.4299
  137OSM    H8S14903   1.766   5.443   7.534  0.5133  2.2547 -0.8580
  137OSM    H8T14904   1.899   5.559   7.592  1.9039 -0.4392  0.5511
  137OSM    C9S14905   1.899   5.367   7.699  0.4286  0.6306 -0.3411
  137OSM    H9S14906   1.916   5.260   7.678 -1.7170  0.7282 -2.8639
  137OSM    H9T14907   1.806   5.359   7.759  2.7436  0.9154  3.4468
  137OSM   C10S14908   2.009   5.413   7.788 -0.8168  0.1631 -0.6373
  137OSM   H10S14909   2.031   5.522   7.791  0.9784 -0.2413  2.7990
  137OSM   H10T14910   2.105   5.376   7.745 -0.0549  0.5446  0.7108
  137OSM   C11S14911   1.999   5.355   7.928  0.8462 -0.6761  0.6840
  137OSM   H11S14912   2.100   5.345   7.974  0.9426  0.0971  0.6595
  137OSM   H11T14913   1.956   5.253   7.923 -1.5903  0.3836 -0.9049
  137OSM   C12S14914   1.905   5.442   8.018 -0.2458 -0.0284  0.1709
  137OSM   H12S14915   1.815   5.471   7.960 -0.1290 -0.4648 -0.2341
  137OSM   H12T14916   1.957   5.536   8.048 -0.0413 -0.2951  0.6603
  137OSM   C13S14917   1.866   5.375   8.152  0.1766 -0.1141  0.0102
  137OSM   H13S14918   1.962   5.331   8.187  1.5682  1.5433 -1.6400
  137OSM   H13T14919   1.795   5.290   8.149  0.6358 -0.5404  0.8818
  137OSM   C14S14920   1.805   5.475   8.255 -1.0604 -0.0936 -0.3951
  137OSM   H14S14921   1.868   5.565   8.268 -0.5689 -0.3000 -1.3146
  137OSM   H14T14922   1.797   5.416   8.349  1.2787 -2.3061 -1.5389
  137OSM   C15S14923   1.657   5.514   8.232  0.0631 -0.0448  0.1406
  137OSM   H15S14924   1.592   5.443   8.176 -0.5416  0.3029  0.3996
  137OSM   H15T14925   1.659   5.607   8.171  0.2434  1.6606  2.7066
  137OSM   C16S14926   1.587   5.548   8.371 -0.6429  0.0901  0.1152
  137OSM   H16S14927   1.645   5.630   8.418 -1.1754 -0.2463  1.3723
  137OSM   H16T14928   1.599   5.465   8.444 -1.8889 -1.2307 -1.1509
  137OSM   C17S14929   1.445   5.596   8.359  0.4582 -0.0104  0.1112
  137OSM   H17S14930   1.371   5.517   8.335 -1.1138  1.6736 -0.7543
  137OSM   H17T14931   1.447   5.664   8.271  2.2801  0.2025  0.2780
  137OSM   C18S14932   1.387   5.673   8.472 -0.5722  0.4679 -0.1245
  137OSM   H18S14933   1.299   5.731   8.437 -1.3714 -2.5030 -3.3026
  137OSM   H18T14934   1.470   5.738   8.510  2.0862 -2.1537 -1.2306
  137OSM   H18U14935   1.364   5.604   8.555 -1.5222  0.4263 -0.4219
  137OSM    C1F14936   2.303   5.566   7.040 -0.6284 -0.0916  0.2909
  137OSM     OF14937   2.271   5.639   6.950  0.2860 -0.5471  0.1568
  137OSM    C2F14938   2.413   5.604   7.139  0.8132 -0.2307  0.2292
  137OSM    H2F14939   2.496   5.655   7.087  0.2135  0.4989 -0.0301
  137OSM    H2G14940   2.446   5.515   7.196 -0.7657 -0.5583  0.6786
  137OSM    C3F14941   2.346   5.708   7.239  0.4392  0.3871 -0.1156
  137OSM    H3F14942   2.333   5.804   7.184 -1.3275 -0.4727 -1.2200
  137OSM    H3G14943   2.415   5.736   7.322 -0.8528  1.9839  0.4512
  137OSM    C4F14944   2.211   5.662   7.303  0.1774 -0.5030  0.0638
  137OSM    H4F14945   2.248   5.575   7.361  1.0410 -0.8113 -0.9396
  137OSM    H4G14946   2.135   5.630   7.229  0.4174  3.3800 -1.9822
  137OSM    C5F14947   2.156   5.771   7.397  0.1847  0.3529  0.6481
  137OSM    H5F14948   2.053   5.742   7.427  0.2420 -2.5954 -1.8705
  137OSM    H5G14949   2.144   5.865   7.339 -1.2121  0.2247  0.6999
  137OSM    C6F14950   2.229   5.810   7.524  0.2929 -0.1978 -0.0091
  137OSM    H6F14951   2.208   5.915   7.556  1.3859  0.2276 -0.6381
  137OSM    H6G14952   2.339   5.811   7.505  0.2228 -0.8479 -0.4277
  137OSM    C7F14953   2.214   5.713   7.647  0.1043 -0.2332  0.2217
  137OSM    H7F14954   2.224   5.610   7.607 -1.2946  0.3303 -1.7179
  137OSM    H7G14955   2.112   5.730   7.689 -0.1959  0.6406 -0.8250
  137OSM    C8F14956   2.326   5.733   7.750 -0.1936 -0.3027 -0.8012
  137OSM    H8F14957   2.319   5.842   7.771  1.4014 -0.5590  1.2164
  137OSM    H8G14958   2.425   5.714   7.701 -0.2961 -0.8135 -0.8059
  137OSM    C9F14959   2.307   5.647   7.872 -0.4607 -0.1517 -0.1708
  137OSM    H9F14960   2.349   5.546   7.860  0.1288  0.0547  0.1571
  137OSM   C10F14961   2.230   5.675   7.979  0.7684  0.2347 -0.1763
  137OSM   H10F14962   2.235   5.602   8.061  0.3262  0.8749  0.4298
  137OSM   C11F14963   2.147   5.796   8.009  0.3041  0.1716 -0.3189
  137OSM   H11F14964   2.039   5.770   8.004 -0.3144  2.1229  1.8554
  137OSM   H11G14965   2.169   5.886   7.949  1.0693  0.7326  0.7721
  137OSM   C12F14966   2.165   5.856   8.151 -0.4619 -0.2409  0.2055
  137OSM   H12F14967   2.134   5.962   8.161  2.6097  0.6409  1.0261
  137OSM   H12G14968   2.274   5.864   8.172 -0.3726  1.4754 -0.8543
  137OSM   C13F14969   2.093   5.763   8.253 -0.2231 -0.6649  0.5118
  137OSM   H13F14970   2.146   5.665   8.252 -1.1121 -1.1471  0.8373
  137OSM   H13G14971   1.987   5.758   8.222  0.1197 -1.9561 -0.4971
  137OSM   C14F14972   2.093   5.823   8.397 -0.0088  0.4555  0.1441
  137OSM   H14F14973   2.040   5.761   8.472  0.1387  0.6007  0.3709
  137OSM   H14G14974   2.040   5.921   8.398  0.3585  0.6535  0.8747
  137OSM   C15F14975   2.232   5.873   8.440 -0.0111 -0.0136 -0.0020
  137OSM   H15F14976   2.246   5.972   8.392  1.3909 -0.4462 -0.4909
  137OSM   H15G14977   2.302   5.798   8.397 -1.0395 -0.8738 -0.2213
  137OSM   C16F14978   2.249   5.897   8.589 -0.7311  0.8636  0.1933
  137OSM   H16F14979   2.188   5.824   8.647 -1.1614 -0.5145 -1.9291
  137OSM   H16G14980   2.203   5.996   8.610 -2.0496  0.5665 -1.2717
  137OSM   C17F14981   2.393   5.894   8.643 -0.4446 -0.0211 -0.2840
  137OSM   H17F14982   2.435   5.988   8.602 -1.9150  0.2670 -1.1809
  137OSM   H17G14983   2.445   5.818   8.582 -3.7626 -2.1186 -0.6704
  137OSM   C18F14984   2.416   5.862   8.793  0.2990 -0.5994  0.9100
  137OSM   H18F14985   2.412   5.753   8.812 -0.8168 -0.3829  1.9422
  137OSM   H18G14986   2.343   5.911   8.861 -0.6363  0.3642 -0.7519
  137OSM   H18H14987   2.516   5.902   8.822  0.9569 -1.2262 -0.4607
  138OSM      N14988   2.740   0.500   6.024 -0.1883  0.0386  0.1502
  138OSM    C1514989   2.599   0.502   6.055  0.3679  0.3621 -0.3278
  138OSM   H15A14990   2.566   0.410   6.101  0.6261  1.3793  1.9875
  138OSM   H15B14991   2.534   0.510   5.969 -0.5754  2.9434  0.5904
  138OSM   H15C14992   2.577   0.578   6.128  0.9137  1.3099 -1.1460
  138OSM    C1414993   2.770   0.368   5.968  0.4687 -0.0461  0.1394
  138OSM   H14A14994   2.720   0.342   5.876  0.3433  1.7047 -0.2918
  138OSM   H14B14995   2.756   0.283   6.034 -0.9437 -0.7768 -1.0868
  138OSM   H14C14996   2.874   0.362   5.938  0.3621 -2.3848  0.1743
  138OSM    C1314997   2.763   0.601   5.918 -0.1460 -0.0991  0.3061
  138OSM   H13A14998   2.696   0.580   5.837 -1.3111  1.2435  0.8935
  138OSM   H13B14999   2.866   0.598   5.886 -0.1413 -1.9021  0.4589
  138OSM   H13C15000   2.745   0.701   5.955  1.9582 -0.1478  1.5643
  138OSM    C1215001   2.808   0.524   6.158  0.2402  0.5724 -0.2030
  138OSM   H12A15002   2.908   0.484   6.160  0.3401  0.7099 -1.6851
  138OSM   H12B15003   2.764   0.461   6.234 -2.9677  4.3823  1.2550
  138OSM    C1115004   2.817   0.668   6.203 -0.3597 -0.1723 -0.1054
  138OSM   H11A15005   2.882   0.725   6.134 -0.8698  2.9866  1.9279
  138OSM   H11B15006   2.863   0.673   6.304  0.3858 -2.0151 -0.3315
  138OSM      P15007   2.656   0.875   6.213 -0.1216  0.2702  0.6818
  138OSM    O1315008   2.774   0.943   6.149  0.4792 -0.0405 -0.1246
  138OSM    O1415009   2.530   0.879   6.141 -0.0014 -0.6243 -0.4437
  138OSM    O1115010   2.639   0.920   6.359 -1.2370 -0.1030  0.1616
  138OSM    O1215011   2.688   0.723   6.228  0.4451 -0.5838 -0.3102
  138OSM    C1S15012   2.639   0.824   6.467  0.5139  0.2129  0.4420
  138OSM    H1S15013   2.709   0.739   6.455  0.3191  0.0390  0.5322
  138OSM    H1T15014   2.538   0.776   6.471  0.0133  1.0356 -1.4103
  138OSM     NF15015   2.662   0.779   6.706 -0.1764 -0.2283  0.0942
  138OSM    HNF15016   2.576   0.771   6.756 -2.1739  0.8406 -3.0147
  138OSM    C2S15017   2.663   0.887   6.605 -0.3282 -0.2296  0.4309
  138OSM    H2S15018   2.766   0.929   6.599 -0.5764  0.0864 -2.3688
  138OSM    C3S15019   2.560   1.000   6.639 -0.0792  0.1366 -0.0732
  138OSM    H3S15020   2.460   0.964   6.671 -0.3439  1.7727  1.0345
  138OSM     O315021   2.528   1.086   6.534 -0.0964 -1.1966  0.7212
  138OSM    HO315022   2.542   1.038   6.452 -0.7881  0.2823 -0.2893
  138OSM    C4S15023   2.610   1.077   6.755  0.7357  0.4970  0.7540
  138OSM    H4S15024   2.582   1.026   6.848  1.2284 -0.9534  0.1176
  138OSM    C5S15025   2.678   1.193   6.759 -0.4363  0.0421 -0.3054
  138OSM    H5S15026   2.705   1.235   6.661 -0.0377 -0.8590 -0.5925
  138OSM    C6S15027   2.728   1.253   6.888 -0.3426 -0.1071  0.1157
  138OSM    H6S15028   2.703   1.359   6.912 -1.7409 -0.5656  0.7001
  138OSM    H6T15029   2.838   1.236   6.887 -0.0545  1.3037  2.4795
  138OSM    C7S15030   2.703   1.164   7.012 -0.2291 -0.0785 -1.4530
  138OSM    H7S15031   2.740   1.060   6.997  1.0126  0.0392  0.6076
  138OSM    H7T15032   2.598   1.164   7.048 -0.4647  1.3977 -2.0980
  138OSM    C8S15033   2.786   1.240   7.129  0.8206  0.5587  0.4229
  138OSM    H8S15034   2.771   1.350   7.126 -0.8275  0.3815  1.5248
  138OSM    H8T15035   2.892   1.220   7.102 -0.0383 -0.8731 -2.0391
  138OSM    C9S15036   2.761   1.182   7.269 -0.3047  0.2541  0.3648
  138OSM    H9S15037   2.785   1.073   7.269  0.5611  0.4377 -0.7672
  138OSM    H9T15038   2.650   1.187   7.282 -0.2460 -0.7155  1.3356
  138OSM   C10S15039   2.808   1.255   7.391 -0.2979 -0.3273  0.1843
  138OSM   H10S15040   2.764   1.357   7.389 -2.0535 -1.0742 -0.2939
  138OSM   H10T15041   2.916   1.268   7.371 -0.2539 -3.2807 -1.7358
  138OSM   C11S15042   2.769   1.183   7.521 -0.1456 -0.3538 -0.2298
  138OSM   H11S15043   2.805   1.079   7.537  1.2853  0.4840  2.4091
  138OSM   H11T15044   2.658   1.172   7.520 -0.2993  1.1272 -1.2875
  138OSM   C12S15045   2.795   1.260   7.645 -0.0838  0.7004 -0.2457
  138OSM   H12S15046   2.741   1.210   7.728  0.1775  0.4306 -0.2387
  138OSM   H12T15047   2.752   1.362   7.635 -2.4350 -0.4084 -1.5313
  138OSM   C13S15048   2.942   1.260   7.679  0.1100 -0.3417  0.1093
  138OSM   H13S15049   3.003   1.316   7.606  0.5102  0.6390  1.1812
  138OSM   H13T15050   2.991   1.160   7.671 -0.8136 -0.6611 -1.8145
  138OSM   C14S15051   2.974   1.336   7.807 -0.7679  0.5082 -0.1225
  138OSM   H14S15052   2.915   1.293   7.891  3.8843 -1.8056  2.1536
  138OSM   H14T15053   2.947   1.444   7.800  1.3542  1.1257  0.5867
  138OSM   C15S15054   3.113   1.324   7.853  0.0662  0.3024  0.5885
  138OSM   H15S15055   3.175   1.390   7.789 -1.9353 -0.3452 -2.1447
  138OSM   H15T15056   3.146   1.218   7.850 -1.9870 -0.3426  0.1679
  138OSM   C16S15057   3.136   1.381   7.998 -0.0486  0.4724  0.3206
  138OSM   H16S15058   3.095   1.485   7.999 -0.5468  0.3089 -1.0956
  138OSM   H16T15059   3.245   1.392   8.013 -0.3941  2.1393  1.8494
  138OSM   C17S15060   3.061   1.322   8.111  0.1878 -0.2172  0.4369
  138OSM   H17S15061   2.955   1.347   8.088  1.0159  1.2007 -2.1103
  138OSM   H17T15062   3.088   1.382   8.200  0.9220  1.1128 -0.6606
  138OSM   C18S15063   3.087   1.174   8.143  0.4496  0.2107 -0.5348
  138OSM   H18S15064   3.080   1.117   8.048 -2.2531 -0.1905 -0.1437
  138OSM   H18T15065   3.033   1.135   8.231  0.5886 -1.1077 -1.0254
  138OSM   H18U15066   3.194   1.167   8.173 -0.2957 -3.0615  1.6058
  138OSM    C1F15067   2.757   0.684   6.715  0.0177  0.4917 -0.8795
  138OSM     OF15068   2.868   0.687   6.660 -0.6762  0.0933  0.0303
  138OSM    C2F15069   2.715   0.559   6.780  0.0682 -0.6023 -0.1818
  138OSM    H2F15070   2.646   0.502   6.714  1.3993 -1.3295 -0.9756
  138OSM    H2G15071   2.653   0.585   6.868 -0.6102  1.2432 -1.1592
  138OSM    C3F15072   2.831   0.463   6.816 -1.0704 -0.2091  0.4148
  138OSM    H3F15073   2.889   0.502   6.902 -0.7005 -1.2826  0.6509
  138OSM    H3G15074   2.900   0.458   6.729 -3.1931  1.0833 -1.3872
  138OSM    C4F15075   2.793   0.313   6.852 -0.3398  0.5256  0.1987
  138OSM    H4F15076   2.880   0.244   6.855  1.6334  2.9229 -0.4212
  138OSM    H4G15077   2.726   0.269   6.776  1.9574 -1.3684 -0.7830
  138OSM    C5F15078   2.702   0.312   6.982 -0.4445 -0.2253  0.2393
  138OSM    H5F15079   2.652   0.213   6.981 -3.7926  1.3277  2.8629
  138OSM    H5G15080   2.617   0.385   6.986  1.3965  1.9789  0.4113
  138OSM    C6F15081   2.778   0.304   7.110  0.1339  0.1383 -0.3604
  138OSM    H6F15082   2.799   0.407   7.147  1.2577  0.1922 -1.1199
  138OSM    H6G15083   2.875   0.252   7.099 -0.8291 -1.5114 -1.1724
  138OSM    C7F15084   2.687   0.242   7.217  0.3564  0.7691 -0.1717
  138OSM    H7F15085   2.640   0.142   7.203 -0.0891  0.8555  0.6929
  138OSM    H7G15086   2.605   0.316   7.230 -0.1350 -0.0451  1.5186
  138OSM    C8F15087   2.784   0.217   7.339  0.3500 -0.2566  0.1169
  138OSM    H8F15088   2.838   0.305   7.380  1.2070 -1.7132  2.2318
  138OSM    H8G15089   2.855   0.140   7.302 -1.3739 -1.0168 -1.6411
  138OSM    C9F15090   2.703   0.150   7.451 -0.3099 -0.3486  0.4324
  138OSM    H9F15091   2.666   0.048   7.432 -2.1731 -0.0544  2.2359
  138OSM   C10F15092   2.665   0.208   7.565  0.6021  0.1639  0.0746
  138OSM   H10F15093   2.596   0.156   7.633  0.1744  0.1713 -0.3459
  138OSM   C11F15094   2.689   0.344   7.620 -0.7368 -0.5001 -0.8436
  138OSM   H11F15095   2.592   0.392   7.647  0.4845  2.2965 -1.2881
  138OSM   H11G15096   2.735   0.405   7.539  0.6052 -0.7743 -0.2899
  138OSM   C12F15097   2.782   0.353   7.744  0.3736  0.5560 -0.2201
  138OSM   H12F15098   2.763   0.452   7.790  0.5442  1.3110 -1.7408
  138OSM   H12G15099   2.886   0.352   7.705  0.3438 -1.0914 -0.3016
  138OSM   C13F15100   2.761   0.240   7.852 -0.5821 -0.0470 -0.1191
  138OSM   H13F15101   2.779   0.140   7.806 -2.0429  0.0600 -0.9482
  138OSM   H13G15102   2.653   0.247   7.877 -0.9025  2.5249 -2.0287
  138OSM   C14F15103   2.857   0.263   7.967 -0.3296  0.3526 -0.3823
  138OSM   H14F15104   2.827   0.354   8.024 -1.0073  1.0278 -1.7762
  138OSM   H14G15105   2.957   0.282   7.924 -0.3416  1.2282 -0.0264
  138OSM   C15F15106   2.874   0.138   8.055  0.1271 -0.0965  0.0728
  138OSM   H15F15107   2.887   0.050   7.988  2.0837 -0.5049  0.9590
  138OSM   H15G15108   2.786   0.110   8.117  1.0676 -0.2094  1.3740
  138OSM   C16F15109   3.001   0.142   8.138 -0.2819  0.2287  0.2480
  138OSM   H16F15110   3.097   0.154   8.084 -0.6527  1.3425 -0.1756
  138OSM   H16G15111   3.009   0.053   8.204  0.5756  1.2568  1.5671
  138OSM   C17F15112   2.990   0.263   8.228 -0.3741  0.0162  0.6179
  138OSM   H17F15113   2.893   0.276   8.282 -1.8631 -1.4833 -1.5682
  138OSM   H17G15114   3.001   0.352   8.162 -0.7517 -1.4339 -1.4663
  138OSM   C18F15115   3.099   0.260   8.335  1.2625  0.6346 -0.4828
  138OSM   H18F15116   3.063   0.318   8.423 -0.0282 -0.1241 -0.4954
  138OSM   H18G15117   3.197   0.302   8.305  2.5808 -1.6895  0.3941
  138OSM   H18H15118   3.124   0.157   8.371  1.3250  0.0747 -2.0767
  139OSM      N15119   1.836   1.144   6.006  0.5015  0.3822 -0.1532
  139OSM    C1515120   1.781   1.237   5.899  0.1984  0.3469 -0.0002
  139OSM   H15A15121   1.674   1.224   5.888  0.5567 -2.3014 -0.7944
  139OSM   H15B15122   1.826   1.211   5.804 -0.6001 -0.6071 -0.1294
  139OSM   H15C15123   1.797   1.342   5.920  1.3317 -0.0501  1.1405
  139OSM    C1415124   1.819   1.007   5.970 -0.2674  0.5481 -0.1849
  139OSM   H14A15125   1.714   0.983   5.973  0.3989 -2.6269  0.1484
  139OSM   H14B15126   1.871   0.941   6.038  0.0186  0.3444 -0.5956
  139OSM   H14C15127   1.852   0.985   5.869 -0.0635 -0.3162  0.0650
  139OSM    C1315128   1.983   1.185   6.019  0.5254  0.3970  0.5760
  139OSM   H13A15129   2.028   1.185   5.921 -0.2188 -0.2449  0.2301
  139OSM   H13B15130   2.042   1.112   6.072  1.4802  0.8310  0.1213
  139OSM   H13C15131   1.987   1.283   6.064 -0.7899  1.4378 -1.5328
  139OSM    C1215132   1.762   1.169   6.134 -0.1845  0.5164 -0.4501
  139OSM   H12A15133   1.732   1.072   6.172  1.5237  0.4222  0.7699
  139OSM   H12B15134   1.678   1.235   6.121  0.5675  1.0236 -3.0811
  139OSM    C1115135   1.838   1.230   6.256  0.2059 -0.2563  0.4125
  139OSM   H11A15136   1.921   1.159   6.275 -0.5327 -1.3404 -0.2837
  139OSM   H11B15137   1.769   1.233   6.343  1.6819 -1.1325  1.6276
  139OSM      P15138   1.793   1.492   6.216 -0.2636  0.0912 -0.4388
  139OSM    O1315139   1.875   1.605   6.162 -0.3980  0.6447  0.0467
  139OSM    O1415140   1.670   1.462   6.135 -0.2381  0.3807 -0.1756
  139OSM    O1115141   1.748   1.526   6.372  0.2098 -0.1769  0.5333
  139OSM    O1215142   1.887   1.361   6.227 -0.1798 -0.1512 -0.3004
  139OSM    C1S15143   1.866   1.522   6.460 -0.1543  0.0155 -0.0237
  139OSM    H1S15144   1.921   1.617   6.444 -0.1995  0.2151  1.0093
  139OSM    H1T15145   1.941   1.440   6.453  0.0329  0.1217  0.7079
  139OSM     NF15146   1.931   1.562   6.711 -0.2439 -0.1480  0.4958
  139OSM    HNF15147   1.998   1.492   6.735 -0.2687 -0.7741 -1.1589
  139OSM    C2S15148   1.825   1.524   6.612  0.3031  0.7028  0.7742
  139OSM    H2S15149   1.742   1.596   6.628  0.0613  0.5429  0.2338
  139OSM    C3S15150   1.764   1.387   6.652  0.8350 -0.1431  0.8133
  139OSM    H3S15151   1.850   1.320   6.671  0.8253  0.3192  2.6025
  139OSM     O315152   1.673   1.337   6.557  0.0086 -0.0711 -0.3095
  139OSM    HO315153   1.695   1.388   6.479 -0.3109  0.3298 -0.1406
  139OSM    C4S15154   1.693   1.399   6.784 -0.2866 -0.0567 -0.2251
  139OSM    H4S15155   1.757   1.361   6.865  1.1951 -0.3828 -1.5263
  139OSM    C5S15156   1.573   1.447   6.820  0.9345  0.3425  0.0668
  139OSM    H5S15157   1.510   1.485   6.739  1.3978  1.8681  0.4127
  139OSM    C6S15158   1.516   1.437   6.955 -0.0206  0.3999 -0.0215
  139OSM    H6S15159   1.478   1.535   6.990  0.5967  0.3128  0.9087
  139OSM    H6T15160   1.605   1.412   7.017  1.9195  1.5581 -2.2357
  139OSM    C7S15161   1.410   1.327   6.966 -0.0790 -0.5212  0.6740
  139OSM    H7S15162   1.467   1.232   6.956  1.2118  0.3671 -0.6413
  139OSM    H7T15163   1.340   1.331   6.881  0.5471  1.1710  0.2176
  139OSM    C8S15164   1.323   1.323   7.093  0.3068 -0.2772 -0.3745
  139OSM    H8S15165   1.258   1.234   7.080  2.0440 -1.4238 -1.5406
  139OSM    H8T15166   1.265   1.417   7.102  1.6874  0.5271  0.2810
  139OSM    C9S15167   1.398   1.331   7.227  0.1612 -0.1291  0.5363
  139OSM    H9S15168   1.461   1.421   7.238  1.7950 -1.4680  2.6860
  139OSM    H9T15169   1.476   1.252   7.238 -0.9269 -1.5158 -1.2755
  139OSM   C10S15170   1.298   1.346   7.347  0.4119 -0.4834 -0.3205
  139OSM   H10S15171   1.225   1.262   7.338 -0.1466 -0.0008 -0.3306
  139OSM   H10T15172   1.251   1.443   7.323  1.8053  0.4123  0.4773
  139OSM   C11S15173   1.365   1.357   7.482  0.1153  0.3085  0.7305
  139OSM   H11S15174   1.435   1.443   7.488  0.7546 -0.2073  0.7375
  139OSM   H11T15175   1.417   1.263   7.510  0.6515  0.2508 -0.4078
  139OSM   C12S15176   1.278   1.406   7.586 -0.2094 -0.1177 -0.0906
  139OSM   H12S15177   1.202   1.330   7.615 -0.6112  0.1936 -0.3227
  139OSM   H12T15178   1.223   1.496   7.553  0.4237  0.2533 -0.1340
  139OSM   C13S15179   1.358   1.429   7.715  0.6339 -0.4746 -0.0652
  139OSM   H13S15180   1.448   1.492   7.693 -0.1737 -0.2247 -2.8988
  139OSM   H13T15181   1.401   1.330   7.738 -0.4208 -1.0497 -0.5266
  139OSM   C14S15182   1.287   1.480   7.840  0.0053  0.7613  0.1238
  139OSM   H14S15183   1.201   1.413   7.862  0.3500  0.5380  0.7983
  139OSM   H14T15184   1.253   1.583   7.816 -0.3368  0.6095 -0.0428
  139OSM   C15S15185   1.377   1.490   7.967  0.0687 -0.8298  0.0040
  139OSM   H15S15186   1.459   1.563   7.957 -3.4279  3.7470  2.5399
  139OSM   H15T15187   1.411   1.385   7.972  0.6030 -0.6139  0.9910
  139OSM   C16S15188   1.289   1.518   8.093 -0.1736 -0.3872  0.9193
  139OSM   H16S15189   1.210   1.442   8.108 -0.9485 -0.2429 -2.1030
  139OSM   H16T15190   1.243   1.618   8.075  0.0031 -0.8181 -2.1698
  139OSM   C17S15191   1.363   1.529   8.222 -0.0543 -0.1631  0.5466
  139OSM   H17S15192   1.386   1.425   8.256 -0.1113 -1.3183 -2.7526
  139OSM   H17T15193   1.298   1.566   8.304 -2.3825  0.3904 -1.5026
  139OSM   C18S15194   1.486   1.615   8.207 -0.5571  0.0955 -0.0760
  139OSM   H18S15195   1.569   1.573   8.146 -0.1904 -0.9115  1.1070
  139OSM   H18T15196   1.535   1.628   8.306 -0.5604  3.3090 -0.4509
  139OSM   H18U15197   1.465   1.712   8.157 -3.4410 -0.8570 -0.7636
  139OSM    C1F15198   1.968   1.686   6.711 -0.0661  0.7100  0.0600
  139OSM     OF15199   1.897   1.771   6.657  0.0007  0.1231 -0.3335
  139OSM    C2F15200   2.098   1.713   6.775 -1.0148 -0.3869 -0.4347
  139OSM    H2F15201   2.190   1.682   6.720 -1.1328 -0.2541 -0.7100
  139OSM    H2G15202   2.094   1.654   6.869 -0.8953 -1.9635 -1.4013
  139OSM    C3F15203   2.113   1.862   6.817  0.1449  0.3448  0.2147
  139OSM    H3F15204   2.032   1.896   6.886 -0.6112  2.6649 -1.7576
  139OSM    H3G15205   2.092   1.927   6.729  1.5168  1.7943  0.9301
  139OSM    C4F15206   2.250   1.916   6.866 -0.1268 -0.0954 -0.2565
  139OSM    H4F15207   2.245   2.026   6.880 -2.7705 -0.1385 -0.4644
  139OSM    H4G15208   2.327   1.910   6.787  0.6416  0.6333  0.4334
  139OSM    C5F15209   2.298   1.856   6.996 -0.3623  0.0140  0.5662
  139OSM    H5F15210   2.350   1.758   6.981 -0.8637 -0.4751  1.9369
  139OSM    H5G15211   2.206   1.831   7.053 -0.1629 -0.9312  0.4959
  139OSM    C6F15212   2.384   1.955   7.073 -0.2808  0.7414  0.3586
  139OSM    H6F15213   2.326   2.049   7.078 -0.7982  0.3358  2.7892
  139OSM    H6G15214   2.480   1.968   7.019 -0.3897  0.9268  0.2085
  139OSM    C7F15215   2.411   1.894   7.214  0.2217  0.2136 -0.2319
  139OSM    H7F15216   2.430   1.785   7.224 -1.4017  0.1357  2.3058
  139OSM    H7G15217   2.321   1.912   7.276  0.3575  0.1735 -0.0246
  139OSM    C8F15218   2.527   1.968   7.282 -0.1688  0.2299 -0.5713
  139OSM    H8F15219   2.600   1.979   7.198  2.2584  0.1771  1.4894
  139OSM    H8G15220   2.568   1.902   7.362  0.7814 -1.1012 -2.1111
  139OSM    C9F15221   2.516   2.110   7.332 -0.0255  0.2472  0.4903
  139OSM    H9F15222   2.493   2.185   7.254  0.8420 -0.7871 -0.7896
  139OSM   C10F15223   2.516   2.154   7.458 -0.8161 -0.6498  0.1149
  139OSM   H10F15224   2.509   2.262   7.476 -1.1886 -0.3980 -1.4956
  139OSM   C11F15225   2.544   2.075   7.584  0.2545 -0.4197 -0.3441
  139OSM   H11F15226   2.615   2.135   7.644  0.9691  0.7711 -2.3294
  139OSM   H11G15227   2.591   1.980   7.551  0.8295  0.2129 -1.3794
  139OSM   C12F15228   2.419   2.051   7.664  0.6386  0.2078 -0.1232
  139OSM   H12F15229   2.337   2.123   7.647 -0.0183 -0.1682  1.3863
  139OSM   H12G15230   2.444   2.037   7.771 -1.5140 -2.0893  0.1198
  139OSM   C13F15231   2.364   1.910   7.651  0.7213 -0.1781  0.1079
  139OSM   H13F15232   2.450   1.840   7.649 -0.8117 -2.1571  0.8881
  139OSM   H13G15233   2.306   1.895   7.557 -1.8463 -1.9086  1.8835
  139OSM   C14F15234   2.262   1.873   7.764 -0.6096  0.2408 -0.5304
  139OSM   H14F15235   2.257   1.946   7.848  0.6808 -1.0143  0.6539
  139OSM   H14G15236   2.288   1.771   7.799 -0.5073  0.7853  1.0493
  139OSM   C15F15237   2.120   1.871   7.715  1.0335 -0.6683 -0.0277
  139OSM   H15F15238   2.108   1.789   7.641 -0.5739  0.8476 -1.5078
  139OSM   H15G15239   2.084   1.970   7.678  1.4013  0.1210  1.6476
  139OSM   C16F15240   2.033   1.849   7.839 -0.0706  0.4935 -0.2523
  139OSM   H16F15241   2.045   1.932   7.912 -0.7250 -0.0269  0.4571
  139OSM   H16G15242   2.069   1.757   7.889  0.0166 -0.2715 -1.6757
  139OSM   C17F15243   1.881   1.840   7.812 -0.9706 -0.0909  0.4116
  139OSM   H17F15244   1.846   1.769   7.734  0.6816  0.0639 -0.4989
  139OSM   H17G15245   1.837   1.938   7.784 -1.9064  0.1121  2.5291
  139OSM   C18F15246   1.814   1.808   7.940  0.2223 -0.2001  0.0723
  139OSM   H18F15247   1.803   1.898   8.005  0.0702  0.4849 -0.9014
  139OSM   H18G15248   1.880   1.749   8.007  0.0169  1.5205  1.8557
  139OSM   H18H15249   1.718   1.753   7.925 -0.0989  0.8663 -1.9739
  140OSM      N15250   2.045   3.066   6.186  0.3339 -0.4885 -0.4349
  140OSM    C1515251   1.934   3.000   6.109  0.5201 -0.0624 -0.1541
  140OSM   H15A15252   1.927   2.897   6.140  0.9475  0.0427  0.3011
  140OSM   H15B15253   1.949   3.003   6.002 -0.3840 -0.2356 -0.2811
  140OSM   H15C15254   1.843   3.056   6.119 -0.8499 -1.8676 -1.9732
  140OSM    C1415255   2.157   2.965   6.182 -0.3445  0.2915  0.0125
  140OSM   H14A15256   2.118   2.868   6.209 -0.5093  0.6195  0.9946
  140OSM   H14B15257   2.240   2.982   6.249 -0.5824  2.2737 -0.1838
  140OSM   H14C15258   2.202   2.952   6.085  2.0465 -0.7864  1.2280
  140OSM    C1315259   2.095   3.195   6.116 -0.1291 -0.1678 -0.2090
  140OSM   H13A15260   2.180   3.233   6.170 -0.5036 -3.7617  3.1050
  140OSM   H13B15261   2.019   3.272   6.119  0.1599  0.1058  0.1700
  140OSM   H13C15262   2.105   3.172   6.011 -0.1081 -0.0740 -0.2278
  140OSM    C1215263   1.996   3.086   6.333  0.3255  0.3450  0.3060
  140OSM   H12A15264   1.951   2.996   6.372  0.5584 -0.6184 -1.5634
  140OSM   H12B15265   1.929   3.171   6.332  0.2381  0.3488  3.3820
  140OSM    C1115266   2.099   3.141   6.434 -0.2340  0.1133  0.0366
  140OSM   H11A15267   2.169   3.066   6.475  1.0410 -0.2565 -2.6965
  140OSM   H11B15268   2.033   3.164   6.520  0.3656 -1.6619  0.9888
  140OSM      P15269   2.111   3.407   6.409  0.3244  0.3321 -0.2058
  140OSM    O1315270   2.206   3.508   6.348  0.3103  1.0066 -0.2026
  140OSM    O1415271   1.977   3.417   6.367  0.5480 -0.1261 -0.1307
  140OSM    O1115272   2.103   3.420   6.570  0.7104 -0.2645 -0.3691
  140OSM    O1215273   2.167   3.260   6.387  0.1630 -0.2485  0.1371
  140OSM    C1S15274   2.202   3.360   6.649 -0.7349 -0.1528 -0.2243
  140OSM    H1S15275   2.298   3.416   6.647 -0.9568  0.2510  0.1672
  140OSM    H1T15276   2.220   3.253   6.630  1.2562  0.0098  0.5904
  140OSM     NF15277   2.278   3.334   6.882  0.5133 -0.0540  0.5721
  140OSM    HNF15278   2.292   3.235   6.892 -1.4907 -0.5736 -1.3973
  140OSM    C2S15279   2.162   3.365   6.800 -0.1528  0.4822 -0.6801
  140OSM    H2S15280   2.142   3.473   6.815  0.9724  0.3286  2.2482
  140OSM    C3S15281   2.037   3.279   6.838 -0.2008 -0.3025  0.5947
  140OSM    H3S15282   2.070   3.173   6.827 -0.1085 -0.2576  0.4491
  140OSM     O315283   1.920   3.292   6.754  0.3767 -0.0130  0.3285
  140OSM    HO315284   1.953   3.331   6.673 -0.5354  2.4423  1.1193
  140OSM    C4S15285   2.001   3.297   6.989  0.3611  0.1645  0.6184
  140OSM    H4S15286   1.929   3.379   7.003 -0.0624 -0.2699  1.0255
  140OSM    C5S15287   2.023   3.210   7.088  0.2503 -0.1657 -0.5319
  140OSM    H5S15288   2.067   3.111   7.071 -1.1002 -0.7332 -0.7096
  140OSM    C6S15289   1.970   3.228   7.224 -0.2935 -0.3219  0.0781
  140OSM    H6S15290   1.930   3.129   7.256 -0.3727 -0.1211  0.5973
  140OSM    H6T15291   1.883   3.295   7.235 -1.4823 -2.2005  2.3942
  140OSM    C7S15292   2.077   3.265   7.320 -0.1133  0.3147  0.0419
  140OSM    H7S15293   2.149   3.345   7.294  1.6720 -1.7001 -1.4357
  140OSM    H7T15294   2.131   3.172   7.346  0.2910  0.3268 -0.7512
  140OSM    C8S15295   2.019   3.307   7.453 -0.0183 -0.3344  0.2459
  140OSM    H8S15296   1.955   3.226   7.494  1.7424 -1.2474  1.2740
  140OSM    H8T15297   1.946   3.389   7.440  0.2344  0.2914  2.4937
  140OSM    C9S15298   2.127   3.346   7.551 -0.7764 -0.0514 -0.5235
  140OSM    H9S15299   2.192   3.417   7.496 -1.5906  0.5847 -0.6839
  140OSM    H9T15300   2.199   3.265   7.573  0.1115  0.3043 -2.0604
  140OSM   C10S15301   2.087   3.414   7.683  0.3916  0.3368  0.2308
  140OSM   H10S15302   2.042   3.511   7.653 -1.2417 -0.3413  0.4376
  140OSM   H10T15303   2.175   3.430   7.749 -1.0708 -1.4142  2.6606
  140OSM   C11S15304   1.972   3.347   7.761 -0.7190  0.0591 -0.4613
  140OSM   H11S15305   1.989   3.241   7.787  2.0099  0.3239 -1.0736
  140OSM   H11T15306   1.885   3.340   7.692 -0.8324 -0.2424 -0.2886
  140OSM   C12S15307   1.932   3.418   7.889 -0.0746  0.4024 -0.1726
  140OSM   H12S15308   1.887   3.512   7.849 -3.2678 -1.5147 -1.2646
  140OSM   H12T15309   2.021   3.438   7.952 -0.6132  1.7627  0.1789
  140OSM   C13S15310   1.826   3.338   7.970 -0.0231  0.4002  0.2355
  140OSM   H13S15311   1.755   3.302   7.893  0.3512 -1.2716  0.6574
  140OSM   H13T15312   1.767   3.402   8.040 -0.3758  0.4021 -0.0649
  140OSM   C14S15313   1.890   3.223   8.049  0.7569 -0.3132 -0.5175
  140OSM   H14S15314   1.948   3.274   8.129 -1.7934  0.3556  0.9698
  140OSM   H14T15315   1.958   3.161   7.987  1.0508 -1.4215  0.8809
  140OSM   C15S15316   1.789   3.124   8.109 -0.0640 -0.1190  0.3668
  140OSM   H15S15317   1.830   3.022   8.125 -0.0862  0.0107  1.3110
  140OSM   H15T15318   1.701   3.124   8.041  0.9154 -0.5836 -0.9203
  140OSM   C16S15319   1.741   3.159   8.248 -0.2368 -0.1394 -0.1895
  140OSM   H16S15320   1.724   3.268   8.260  0.1229 -0.1433  0.3646
  140OSM   H16T15321   1.822   3.135   8.321 -0.8374  1.7200  1.1346
  140OSM   C17S15322   1.610   3.087   8.285 -0.0100  0.5977 -0.1930
  140OSM   H17S15323   1.630   2.980   8.308  0.3186  0.6400 -0.2831
  140OSM   H17T15324   1.553   3.096   8.190 -2.1448 -0.2417  0.9821
  140OSM   C18S15325   1.528   3.144   8.395  0.4976 -0.2140  0.0294
  140OSM   H18S15326   1.436   3.085   8.413 -0.1770  0.5334 -0.8892
  140OSM   H18T15327   1.495   3.244   8.357 -0.3154 -0.8576 -1.0159
  140OSM   H18U15328   1.594   3.157   8.483  0.0653  0.2891  0.2856
  140OSM    C1F15329   2.386   3.405   6.895 -0.1239 -0.0263  0.5134
  140OSM     OF15330   2.388   3.521   6.874  0.0728 -0.0618  0.1520
  140OSM    C2F15331   2.506   3.336   6.929 -0.0183 -0.7437  0.2172
  140OSM    H2F15332   2.591   3.391   6.883 -0.7951  1.2728  1.1397
  140OSM    H2G15333   2.509   3.233   6.887  0.2687 -0.6289 -0.0461
  140OSM    C3F15334   2.518   3.338   7.080 -0.6652  0.6742 -0.0642
  140OSM    H3F15335   2.506   3.437   7.128  0.4457  1.5447 -1.5352
  140OSM    H3G15336   2.620   3.305   7.110 -0.6845  0.0846 -0.6349
  140OSM    C4F15337   2.421   3.236   7.148 -0.8014  0.0452  0.5073
  140OSM    H4F15338   2.447   3.130   7.130 -0.3606 -0.0315  1.5434
  140OSM    H4G15339   2.314   3.242   7.121 -0.4044 -2.8973 -1.9302
  140OSM    C5F15340   2.403   3.241   7.301  0.1286 -0.3582 -0.8381
  140OSM    H5F15341   2.317   3.183   7.340 -0.9143  1.1990 -0.7830
  140OSM    H5G15342   2.383   3.345   7.334 -2.7428 -0.3379 -2.4582
  140OSM    C6F15343   2.520   3.182   7.374  0.2651  0.1984 -0.1667
  140OSM    H6F15344   2.618   3.216   7.332 -0.1477  2.6152  0.7700
  140OSM    H6G15345   2.514   3.071   7.370 -1.5653  0.3087 -1.0290
  140OSM    C7F15346   2.516   3.208   7.530 -0.1966  0.0735 -0.0460
  140OSM    H7F15347   2.409   3.205   7.562 -0.1685 -0.1547  0.0249
  140OSM    H7G15348   2.525   3.318   7.546 -2.0108  0.0705  1.1539
  140OSM    C8F15349   2.625   3.126   7.600  0.0808  0.3152 -0.1331
  140OSM    H8F15350   2.723   3.170   7.574  1.4746 -1.6010  1.6501
  140OSM    H8G15351   2.627   3.025   7.553 -0.2377  0.8505 -1.3138
  140OSM    C9F15352   2.609   3.108   7.751  0.3964 -0.0106  0.2060
  140OSM    H9F15353   2.658   3.019   7.793 -0.3449 -0.3996  0.2569
  140OSM   C10F15354   2.542   3.190   7.837 -0.4270  0.6437 -0.6210
  140OSM   H10F15355   2.531   3.148   7.939  2.0378 -1.0457 -1.0185
  140OSM   C11F15356   2.469   3.320   7.821 -1.0523 -0.0671  0.0694
  140OSM   H11F15357   2.392   3.303   7.742 -1.8776 -1.6568  1.1872
  140OSM   H11G15358   2.540   3.402   7.798  0.3486 -0.5693  2.4840
  140OSM   C12F15359   2.388   3.364   7.941  0.5964 -0.9930 -0.4237
  140OSM   H12F15360   2.314   3.284   7.961  1.3437 -1.6105 -0.1324
  140OSM   H12G15361   2.316   3.447   7.925 -0.8519 -2.0103  0.7406
  140OSM   C13F15362   2.465   3.399   8.072 -0.0429 -0.4605  0.5042
  140OSM   H13F15363   2.536   3.481   8.048  2.4076 -2.0009  2.2507
  140OSM   H13G15364   2.529   3.317   8.111  0.5078  0.7641  2.2562
  140OSM   C14F15365   2.364   3.441   8.178 -0.1123 -0.3075 -0.4678
  140OSM   H14F15366   2.305   3.530   8.144  1.5072  1.0082  0.1266
  140OSM   H14G15367   2.411   3.481   8.270 -0.2478  2.2274 -1.4581
  140OSM   C15F15368   2.282   3.316   8.217  0.0145  0.2013 -0.0053
  140OSM   H15F15369   2.355   3.241   8.254  1.7771  2.2529  0.8061
  140OSM   H15G15370   2.213   3.284   8.136  0.4177 -1.4203  0.2707
  140OSM   C16F15371   2.185   3.340   8.334  0.3576  0.7309 -0.3829
  140OSM   H16F15372   2.091   3.395   8.311 -1.1197 -0.6179  2.2193
  140OSM   H16G15373   2.225   3.412   8.408  3.3274 -0.8101 -0.3851
  140OSM   C17F15374   2.151   3.214   8.405 -0.6361 -0.1388  0.7503
  140OSM   H17F15375   2.247   3.176   8.445 -0.8956 -0.7798  0.7643
  140OSM   H17G15376   2.111   3.141   8.332 -0.3169 -0.1330  0.5688
  140OSM   C18F15377   2.049   3.236   8.513 -0.5853 -0.6820  0.9441
  140OSM   H18F15378   2.050   3.158   8.593  0.5868 -0.5350  1.0874
  140OSM   H18G15379   1.955   3.267   8.463  1.4558  0.8350 -2.1159
  140OSM   H18H15380   2.087   3.322   8.572  1.7623 -0.5065 -0.7216
  141OSM      N15381   1.372   5.868   6.313  0.3805 -0.1325 -0.1131
  141OSM    C1515382   1.425   5.759   6.226 -0.4290 -0.4808  0.5478
  141OSM   H15A15383   1.522   5.780   6.183 -0.0175 -2.2860  0.5496
  141OSM   H15B15384   1.361   5.762   6.139 -0.0048  0.5825  0.2605
  141OSM   H15C15385   1.420   5.667   6.282  1.1304  0.0271  1.5442
  141OSM    C1415386   1.483   5.906   6.401 -0.0719  0.4225  0.4623
  141OSM   H14A15387   1.488   5.835   6.481 -1.3549 -1.3040 -0.9370
  141OSM   H14B15388   1.461   6.005   6.439 -1.8143 -0.6458  2.3560
  141OSM   H14C15389   1.580   5.899   6.355  0.4668  0.9124  1.5193
  141OSM    C1315390   1.345   5.987   6.219 -0.0820  0.7612 -0.0710
  141OSM   H13A15391   1.270   5.956   6.147 -1.6260  2.4000  0.8035
  141OSM   H13B15392   1.436   6.019   6.170  1.3037 -0.2147  1.7692
  141OSM   H13C15393   1.305   6.076   6.263 -2.4818  0.0003 -0.6457
  141OSM    C1215394   1.246   5.842   6.393  0.4322 -0.2584  0.6461
  141OSM   H12A15395   1.161   5.830   6.328  0.4931  0.3352  0.4599
  141OSM   H12B15396   1.219   5.934   6.443 -0.5761 -0.4763  0.5195
  141OSM    C1115397   1.245   5.725   6.487 -0.5656  0.1528 -0.0028
  141OSM   H11A15398   1.150   5.716   6.544  0.4070  1.2288  1.8543
  141OSM   H11B15399   1.326   5.742   6.562  0.9870 -0.2132 -1.5653
  141OSM      P15400   1.168   5.496   6.369  0.4196  0.2299  0.0966
  141OSM    O1315401   1.034   5.553   6.351 -0.6164  0.1534  0.1281
  141OSM    O1415402   1.227   5.429   6.248 -0.4393 -0.4204  0.2678
  141OSM    O1115403   1.150   5.382   6.476 -0.5092 -0.0547  0.2230
  141OSM    O1215404   1.276   5.596   6.427 -0.3915  0.6753 -0.3020
  141OSM    C1S15405   1.250   5.341   6.575 -0.7662 -0.4051 -0.0272
  141OSM    H1S15406   1.336   5.410   6.585  0.0751 -1.4693  0.0689
  141OSM    H1T15407   1.300   5.243   6.566  0.2147  0.0625  0.2202
  141OSM     NF15408   1.269   5.327   6.822 -0.1219  0.0528 -0.5491
  141OSM    HNF15409   1.297   5.234   6.845  1.3136  0.7865  0.8013
  141OSM    C2S15410   1.176   5.339   6.711  0.3710  0.7732 -0.2713
  141OSM    H2S15411   1.124   5.434   6.734  1.2182  0.9886  0.7441
  141OSM    C3S15412   1.064   5.226   6.703  0.1653 -0.5378  0.5235
  141OSM    H3S15413   1.111   5.129   6.676  1.6345  0.6919 -1.4839
  141OSM     O315414   0.963   5.258   6.605  0.6200 -0.0496  0.3256
  141OSM    HO315415   0.999   5.326   6.547  0.6692  1.6404  2.3001
  141OSM    C4S15416   1.004   5.228   6.835 -0.4072 -1.0762 -0.4725
  141OSM    H4S15417   0.954   5.324   6.858  1.2942 -0.4172  0.5980
  141OSM    C5S15418   0.999   5.122   6.927 -0.3476 -0.5887 -0.3237
  141OSM    H5S15419   1.031   5.024   6.890  1.0831  0.4677 -1.9254
  141OSM    C6S15420   0.952   5.122   7.068  0.2869 -0.1972 -0.4080
  141OSM    H6S15421   1.030   5.070   7.129 -0.4464  0.9404  1.5514
  141OSM    H6T15422   0.858   5.065   7.078  1.6737 -2.1196  2.2835
  141OSM    C7S15423   0.948   5.251   7.154 -0.0879 -0.0465 -0.8403
  141OSM    H7S15424   0.843   5.285   7.139  0.3863  1.4060 -0.9522
  141OSM    H7T15425   1.005   5.331   7.101  1.0557 -0.2637  0.0364
  141OSM    C8S15426   0.977   5.238   7.306  0.4179  0.3810  1.0051
  141OSM    H8S15427   0.968   5.338   7.352 -0.4067  1.1471 -0.7379
  141OSM    H8T15428   1.080   5.199   7.312  0.5983  0.3189 -1.5704
  141OSM    C9S15429   0.891   5.130   7.370 -0.3177 -0.2701  0.0748
  141OSM    H9S15430   0.907   5.040   7.306  1.6793 -0.7174  1.1472
  141OSM    H9T15431   0.785   5.161   7.374  0.2805  1.7551  0.8238
  141OSM   C10S15432   0.944   5.101   7.508 -0.0827  0.0674  0.1564
  141OSM   H10S15433   1.053   5.082   7.518 -0.2796 -0.2011  1.9506
  141OSM   H10T15434   0.888   5.014   7.549  0.7271  0.6494  2.6047
  141OSM   C11S15435   0.908   5.211   7.607  0.6535 -0.1080 -0.0455
  141OSM   H11S15436   0.804   5.250   7.610  1.7209  2.9385 -0.6942
  141OSM   H11T15437   0.976   5.299   7.599  0.7873 -0.1313  0.8022
  141OSM   C12S15438   0.923   5.140   7.741 -0.4106  0.3892  0.0826
  141OSM   H12S15439   1.016   5.080   7.746 -0.3206  0.5965  0.8882
  141OSM   H12T15440   0.839   5.071   7.764 -1.4665  1.7781  0.4887
  141OSM   C13S15441   0.949   5.241   7.856 -0.3105 -0.6698  0.4126
  141OSM   H13S15442   0.855   5.300   7.854  0.4074  0.4608 -3.0326
  141OSM   H13T15443   1.033   5.313   7.844 -0.6748 -0.7119 -2.6034
  141OSM   C14S15444   0.960   5.168   7.988 -0.4976  0.0746  0.0339
  141OSM   H14S15445   1.043   5.095   7.969  0.1747  0.8369  0.0050
  141OSM   H14T15446   0.868   5.108   8.002  0.2163 -1.1567 -0.4028
  141OSM   C15S15447   0.987   5.257   8.110 -0.0378 -0.2022 -0.8077
  141OSM   H15S15448   0.893   5.314   8.123  1.3631  2.0206 -0.2134
  141OSM   H15T15449   1.071   5.326   8.086 -0.2960  0.1625 -0.6547
  141OSM   C16S15450   1.016   5.185   8.241 -0.4466 -0.8622  0.7372
  141OSM   H16S15451   1.096   5.112   8.216 -0.6988 -1.4199  1.5533
  141OSM   H16T15452   0.922   5.141   8.281 -2.2856 -1.0223 -3.4314
  141OSM   C17S15453   1.052   5.289   8.349  0.5957  0.7078  0.6303
  141OSM   H17S15454   0.968   5.360   8.369 -0.3192  0.8192 -3.3448
  141OSM   H17T15455   1.134   5.349   8.306  1.1490  0.5794  1.4844
  141OSM   C18S15456   1.098   5.224   8.474 -0.6693  0.2699 -0.1813
  141OSM   H18S15457   1.094   5.307   8.549  0.0516  0.3361 -0.2146
  141OSM   H18T15458   1.204   5.192   8.464 -0.7531 -0.8169  2.0721
  141OSM   H18U15459   1.023   5.157   8.520 -1.2843  2.9696  2.9743
  141OSM    C1F15460   1.355   5.431   6.850  0.4703  0.2157 -0.0766
  141OSM     OF15461   1.338   5.539   6.794  0.3244  0.0368 -0.4256
  141OSM    C2F15462   1.462   5.396   6.947  0.2123  0.0756 -0.0783
  141OSM    H2F15463   1.562   5.429   6.914 -0.0061  0.9433  0.1138
  141OSM    H2G15464   1.474   5.287   6.964 -1.9262 -0.3306 -1.0505
  141OSM    C3F15465   1.441   5.462   7.093 -0.0509  0.1867 -0.5639
  141OSM    H3F15466   1.410   5.566   7.071  2.0062  1.0815  0.6823
  141OSM    H3G15467   1.542   5.472   7.138 -1.0813 -0.7430  2.0150
  141OSM    C4F15468   1.346   5.372   7.181  0.4396  0.2676 -0.2379
  141OSM    H4F15469   1.379   5.268   7.201  1.1475  0.5944  0.3287
  141OSM    H4G15470   1.246   5.375   7.132  1.3498  2.5837 -2.0463
  141OSM    C5F15471   1.311   5.444   7.312  0.8100 -0.8739  0.5467
  141OSM    H5F15472   1.202   5.465   7.322  1.0716  1.2931 -0.7116
  141OSM    H5G15473   1.356   5.546   7.309 -1.7207  0.2400 -1.3336
  141OSM    C6F15474   1.375   5.370   7.430  0.2471 -0.1918 -0.9883
  141OSM    H6F15475   1.482   5.401   7.430 -0.7037  3.3805 -1.2175
  141OSM    H6G15476   1.362   5.260   7.424  0.0122 -0.2463  0.3693
  141OSM    C7F15477   1.309   5.424   7.560  0.9029  0.9689 -0.2787
  141OSM    H7F15478   1.201   5.400   7.561  1.2117 -0.4231  0.6469
  141OSM    H7G15479   1.308   5.534   7.548 -0.1030  0.8660 -1.2323
  141OSM    C8F15480   1.362   5.375   7.698  0.3249 -0.3807  0.2861
  141OSM    H8F15481   1.359   5.264   7.695  3.1090 -0.4647 -0.6457
  141OSM    H8G15482   1.285   5.415   7.767 -0.9889 -1.7286 -0.3755
  141OSM    C9F15483   1.500   5.414   7.721  0.6654  0.0527 -0.0823
  141OSM    H9F15484   1.571   5.385   7.642 -0.0213 -1.2637 -0.2151
  141OSM   C10F15485   1.544   5.500   7.809 -0.3236  0.5289  0.4078
  141OSM   H10F15486   1.653   5.514   7.800 -0.0388 -1.2501  0.9250
  141OSM   C11F15487   1.460   5.581   7.917 -0.1193 -0.3776 -0.1178
  141OSM   H11F15488   1.524   5.594   8.007  0.9123  1.2469 -1.0618
  141OSM   H11G15489   1.371   5.522   7.950 -0.4472 -0.0454 -0.4105
  141OSM   C12F15490   1.414   5.725   7.894 -0.1927  0.2299  0.1877
  141OSM   H12F15491   1.504   5.788   7.883 -1.4269  1.6705 -2.1765
  141OSM   H12G15492   1.358   5.762   7.982  0.1751 -0.1421  0.5780
  141OSM   C13F15493   1.327   5.750   7.766 -0.2686  0.8365 -0.1282
  141OSM   H13F15494   1.230   5.695   7.761  0.0052  0.3080  0.3194
  141OSM   H13G15495   1.385   5.701   7.685 -1.4408  0.6298 -0.8462
  141OSM   C14F15496   1.320   5.902   7.737  0.6938  0.0687  0.0533
  141OSM   H14F15497   1.425   5.938   7.735  0.5063  0.5819 -0.6084
  141OSM   H14G15498   1.269   5.945   7.826 -0.4662 -0.6624 -0.2399
  141OSM   C15F15499   1.246   5.936   7.605 -0.4651  1.1593  0.0054
  141OSM   H15F15500   1.228   6.045   7.601 -2.3644  0.8862  0.4494
  141OSM   H15G15501   1.139   5.911   7.621  0.1366 -1.1155  0.6579
  141OSM   C16F15502   1.309   5.881   7.478 -0.1348  0.1717 -0.3883
  141OSM   H16F15503   1.288   5.773   7.490 -2.5365  0.7713  1.2032
  141OSM   H16G15504   1.417   5.907   7.483 -0.5749  2.0930 -0.2737
  141OSM   C17F15505   1.258   5.928   7.337  0.1930  0.4504 -0.6070
  141OSM   H17F15506   1.268   6.038   7.349 -0.7032  0.4842 -0.1177
  141OSM   H17G15507   1.150   5.904   7.323  0.4709 -0.8220 -0.6103
  141OSM   C18F15508   1.340   5.872   7.226  0.1311  0.7084 -0.0633
  141OSM   H18F15509   1.439   5.919   7.241 -1.3417  4.1207 -0.6117
  141OSM   H18G15510   1.302   5.907   7.128 -2.0628 -0.6504  0.2743
  141OSM   H18H15511   1.347   5.762   7.241 -0.2186  0.3369 -2.4419
  142OSM      N15512   1.840   6.609   6.005 -0.3857 -0.0674  0.5572
  142OSM    C1515513   1.962   6.528   6.046  0.3588  0.2630  0.2108
  142OSM   H15A15514   1.946   6.425   6.019 -0.2549  0.4684 -0.2366
  142OSM   H15B15515   1.991   6.528   6.149 -0.5363 -1.7169  0.4837
  142OSM   H15C15516   2.042   6.562   5.982 -2.4660 -0.3511 -3.8616
  142OSM    C1415517   1.860   6.756   6.022  0.3759 -0.2093  0.8793
  142OSM   H14A15518   1.770   6.807   5.992  1.1939  0.8139  0.1270
  142OSM   H14B15519   1.941   6.797   5.964  0.6642 -1.6554  0.2290
  142OSM   H14C15520   1.888   6.786   6.122  0.3751 -0.0534  0.8336
  142OSM    C1315521   1.804   6.587   5.859 -0.1967  0.3793  0.1963
  142OSM   H13A15522   1.766   6.487   5.841  0.1578  0.5815 -1.8216
  142OSM   H13B15523   1.889   6.579   5.792 -0.9818 -1.3242 -0.6386
  142OSM   H13C15524   1.740   6.665   5.820 -1.1264  0.9157  2.7439
  142OSM    C1215525   1.723   6.553   6.085 -0.3126 -0.3146  0.4055
  142OSM   H12A15526   1.716   6.448   6.058 -1.5867 -0.9875  3.1081
  142OSM   H12B15527   1.625   6.596   6.068  0.1272  1.0056  1.1721
  142OSM    C1115528   1.727   6.563   6.241 -0.0932 -0.1424  0.5196
  142OSM   H11A15529   1.812   6.500   6.276  0.7395  0.2691 -0.7590
  142OSM   H11B15530   1.634   6.512   6.276  0.5189 -0.6729  1.4120
  142OSM      P15531   1.613   6.794   6.293  0.0330 -0.3302  0.0818
  142OSM    O1315532   1.672   6.929   6.295 -0.8724  0.0899  0.9407
  142OSM    O1415533   1.509   6.766   6.194  0.4132 -0.5151 -0.6886
  142OSM    O1115534   1.569   6.768   6.438  0.3452 -0.3013  0.3927
  142OSM    O1215535   1.736   6.699   6.280  0.0383 -0.1579 -0.3413
  142OSM    C1S15536   1.671   6.741   6.539  0.5572 -0.1133 -0.0899
  142OSM    H1S15537   1.773   6.774   6.511  0.5764  0.8625  1.0908
  142OSM    H1T15538   1.677   6.632   6.558 -0.8186  0.2198  2.5036
  142OSM     NF15539   1.763   6.815   6.748  0.3389  1.3536 -0.1784
  142OSM    HNF15540   1.793   6.736   6.801 -0.6924  0.0819 -1.4497
  142OSM    C2S15541   1.639   6.803   6.677  0.3798 -0.2475 -0.1926
  142OSM    H2S15542   1.613   6.910   6.660  0.5099 -0.3175 -0.8386
  142OSM    C3S15543   1.543   6.719   6.755  0.2944  0.0669 -0.1291
  142OSM    H3S15544   1.588   6.625   6.794 -0.7526 -0.7749 -0.9409
  142OSM     O315545   1.440   6.663   6.677 -0.3975  0.0583  0.6120
  142OSM    HO315546   1.472   6.702   6.595  1.0791  1.6526  1.9125
  142OSM    C4S15547   1.486   6.791   6.877  0.2773  0.0940  0.3963
  142OSM    H4S15548   1.550   6.774   6.964 -0.7075 -0.3842  1.0333
  142OSM    C5S15549   1.384   6.877   6.878  0.1025  0.4739  0.3343
  142OSM    H5S15550   1.320   6.899   6.791 -1.0956  2.6993  1.7081
  142OSM    C6S15551   1.351   6.959   7.000  0.0136 -0.2444 -0.4018
  142OSM    H6S15552   1.241   6.956   7.017 -0.2301  0.2758 -1.8102
  142OSM    H6T15553   1.356   7.068   6.983 -1.3126  0.4069  3.0149
  142OSM    C7S15554   1.436   6.926   7.125  0.3057 -0.0117  0.4873
  142OSM    H7S15555   1.543   6.946   7.101 -0.5734  0.6357 -3.2957
  142OSM    H7T15556   1.422   6.817   7.141 -0.3351  0.2321  1.6266
  142OSM    C8S15557   1.415   7.014   7.247 -0.2008 -0.4143 -0.0144
  142OSM    H8S15558   1.311   7.000   7.285 -0.7055  0.8944 -0.8580
  142OSM    H8T15559   1.426   7.122   7.221  1.6258  0.0919  2.6538
  142OSM    C9S15560   1.516   6.990   7.362 -0.4534 -0.2567 -0.2993
  142OSM    H9S15561   1.510   6.887   7.404 -1.3358  0.1401  0.5657
  142OSM    H9T15562   1.480   7.050   7.448  2.5617  1.7500 -0.3803
  142OSM   C10S15563   1.658   7.020   7.321 -0.2824  0.0340 -0.2596
  142OSM   H10S15564   1.669   7.116   7.266 -0.8474 -0.4409 -1.2137
  142OSM   H10T15565   1.705   6.942   7.256 -0.3158 -1.0815  1.0441
  142OSM   C11S15566   1.758   7.022   7.444  0.3816  0.0158  0.2658
  142OSM   H11S15567   1.860   7.011   7.402  0.5002 -0.8012  0.7511
  142OSM   H11T15568   1.741   6.933   7.508  1.1685 -0.6922 -0.4938
  142OSM   C12S15569   1.742   7.147   7.532 -0.1281  0.6605  0.2572
  142OSM   H12S15570   1.635   7.165   7.559 -0.0087  0.2559  1.0016
  142OSM   H12T15571   1.777   7.234   7.473 -1.5245  0.9369 -0.2002
  142OSM   C13S15572   1.832   7.155   7.652  0.1727 -0.7410 -0.1526
  142OSM   H13S15573   1.849   7.257   7.691  0.2891 -0.8650  0.1220
  142OSM   H13T15574   1.936   7.138   7.616 -0.2909 -1.7900 -1.0168
  142OSM   C14S15575   1.782   7.078   7.772 -0.3571  0.0053 -0.6274
  142OSM   H14S15576   1.789   6.969   7.752  1.0860  0.1610 -1.0036
  142OSM   H14T15577   1.673   7.099   7.775 -0.0711  1.2647  2.1383
  142OSM   C15S15578   1.856   7.109   7.896  0.1616 -0.2998  0.1547
  142OSM   H15S15579   1.800   7.058   7.977  0.6384  0.6585  1.0945
  142OSM   H15T15580   1.852   7.220   7.902  1.6266 -0.3088  1.8985
  142OSM   C16S15581   2.001   7.071   7.905  0.0731 -0.4770  0.1360
  142OSM   H16S15582   2.061   7.160   7.874  2.6720 -0.8096  3.8623
  142OSM   H16T15583   2.017   6.985   7.836 -2.5107  0.7997 -2.1295
  142OSM   C17S15584   2.046   7.037   8.046 -0.3422  0.0127 -0.4010
  142OSM   H17S15585   2.154   7.011   8.048 -0.4110 -0.2024  0.7204
  142OSM   H17T15586   1.991   6.945   8.076 -1.0866  0.0754 -1.5208
  142OSM   C18S15587   2.027   7.144   8.155  0.5136 -0.4026 -0.4184
  142OSM   H18S15588   1.923   7.133   8.193  0.0845  1.2333 -1.0493
  142OSM   H18T15589   2.050   7.251   8.133 -1.9022  0.7564  2.3988
  142OSM   H18U15590   2.099   7.119   8.236 -1.2884  0.3603  1.4643
  142OSM    C1F15591   1.857   6.906   6.737  0.2822  0.3293  0.3870
  142OSM     OF15592   1.858   6.980   6.639 -0.6429 -0.0115  0.5027
  142OSM    C2F15593   1.959   6.915   6.841  0.3759  0.0018 -0.0492
  142OSM    H2F15594   2.054   6.863   6.814  0.0810 -0.8903  0.5964
  142OSM    H2G15595   1.920   6.845   6.919 -3.2610 -0.0933 -1.8407
  142OSM    C3F15596   1.994   7.052   6.905  0.0920 -0.2966 -0.1712
  142OSM    H3F15597   1.907   7.121   6.904 -0.8670 -1.4842  1.0803
  142OSM    H3G15598   2.070   7.108   6.846 -2.2062  0.7236 -2.2627
  142OSM    C4F15599   2.044   7.034   7.048 -0.0361  0.3538 -0.8547
  142OSM    H4F15600   2.154   7.026   7.050  0.0603  1.7550  0.5330
  142OSM    H4G15601   1.996   6.952   7.106  1.5583 -1.1430 -1.6282
  142OSM    C5F15602   2.029   7.162   7.136 -0.6419  0.3698  0.5750
  142OSM    H5F15603   1.920   7.181   7.144 -0.7907 -0.5522  0.8306
  142OSM    H5G15604   2.068   7.243   7.071 -0.6990  0.2869  0.4394
  142OSM    C6F15605   2.114   7.155   7.262 -0.6297 -0.2144  0.5174
  142OSM    H6F15606   2.222   7.143   7.238 -0.7972  4.1811 -3.0710
  142OSM    H6G15607   2.097   7.056   7.310  2.7132 -1.4148 -0.6331
  142OSM    C7F15608   2.093   7.267   7.369 -0.0958 -0.4987  0.9561
  142OSM    H7F15609   1.986   7.281   7.394 -0.8379 -1.4392 -1.5208
  142OSM    H7G15610   2.115   7.368   7.329  0.6863 -0.7286  0.7875
  142OSM    C8F15611   2.183   7.249   7.488  1.1061  0.3355  0.1292
  142OSM    H8F15612   2.175   7.142   7.520  0.8204 -0.1618 -1.5587
  142OSM    H8G15613   2.133   7.301   7.573 -1.6754 -1.2041 -0.5020
  142OSM    C9F15614   2.327   7.291   7.464  0.4178  1.0681 -0.8776
  142OSM    H9F15615   2.391   7.204   7.443  2.5716  2.5234 -0.3914
  142OSM   C10F15616   2.383   7.403   7.496  0.2173  0.5967 -0.4356
  142OSM   H10F15617   2.492   7.400   7.510  0.1807 -2.1406 -0.4905
  142OSM   C11F15618   2.323   7.527   7.554 -0.6934 -0.1214  0.2506
  142OSM   H11F15619   2.216   7.521   7.583 -0.9347  2.1215 -0.0414
  142OSM   H11G15620   2.324   7.618   7.489 -1.4349 -0.6200 -0.4751
  142OSM   C12F15621   2.408   7.588   7.673  0.2111 -0.6442  0.3916
  142OSM   H12F15622   2.351   7.679   7.701 -0.4320 -0.2892 -1.9613
  142OSM   H12G15623   2.508   7.623   7.642  0.2671  0.3142  1.5982
  142OSM   C13F15624   2.427   7.495   7.793  0.7022  0.4582 -0.0427
  142OSM   H13F15625   2.475   7.554   7.875  0.0805 -1.2859  1.6165
  142OSM   H13G15626   2.500   7.417   7.763 -0.4375 -0.9103  0.6640
  142OSM   C14F15627   2.305   7.428   7.857 -0.5717 -0.0728  0.0723
  142OSM   H14F15628   2.263   7.355   7.785  2.5328 -1.8511  0.0025
  142OSM   H14G15629   2.220   7.494   7.884  0.8845  1.4791  0.9347
  142OSM   C15F15630   2.350   7.351   7.984 -0.0616  0.5521 -0.3335
  142OSM   H15F15631   2.265   7.304   8.037  2.7855 -1.4579  2.6160
  142OSM   H15G15632   2.381   7.430   8.056  0.5816 -2.6891  3.1222
  142OSM   C16F15633   2.445   7.234   7.972 -0.2504  0.5954  0.4657
  142OSM   H16F15634   2.528   7.251   7.901  0.7048 -4.1566  0.2653
  142OSM   H16G15635   2.389   7.160   7.911 -0.8678  0.5593  1.0650
  142OSM   C17F15636   2.495   7.171   8.103 -0.5994 -0.0817 -0.9206
  142OSM   H17F15637   2.550   7.251   8.158  1.3286 -2.0898  0.1205
  142OSM   H17G15638   2.568   7.092   8.078  2.5561  2.3441  0.1749
  142OSM   C18F15639   2.403   7.114   8.211  0.3981 -0.0632 -0.0549
  142OSM   H18F15640   2.312   7.176   8.229  0.4086 -0.0058 -0.1953
  142OSM   H18G15641   2.453   7.098   8.309  1.1493 -0.4450 -0.4998
  142OSM   H18H15642   2.354   7.018   8.185 -1.2895  0.0162  2.5896
  143OSM      N15643   4.316   3.048   6.254 -0.3284 -0.4275 -0.2188
  143OSM    C1515644   4.410   3.074   6.143  0.0913 -0.2796  0.3446
  143OSM   H15A15645   4.424   3.178   6.117  3.7273  0.2330  3.8140
  143OSM   H15B15646   4.380   3.015   6.057 -0.4812  2.4111 -1.3582
  143OSM   H15C15647   4.508   3.035   6.167  0.0115 -0.4503  0.3983
  143OSM    C1415648   4.340   3.131   6.375 -0.1592 -0.4361 -1.1184
  143OSM   H14A15649   4.296   3.085   6.462 -0.9473  0.8063 -0.8435
  143OSM   H14B15650   4.298   3.230   6.367  0.4301 -0.1454 -0.6272
  143OSM   H14C15651   4.446   3.139   6.393 -0.0162  0.6839 -2.3550
  143OSM    C1315652   4.186   3.092   6.211  0.0120  0.3447  0.2337
  143OSM   H13A15653   4.148   3.019   6.141 -2.3202  0.6842  1.0763
  143OSM   H13B15654   4.200   3.189   6.166  0.4120  0.2320  0.1175
  143OSM   H13C15655   4.125   3.086   6.300 -0.3896 -2.1982 -0.1720
  143OSM    C1215656   4.307   2.896   6.277 -0.0599  0.3474 -0.5267
  143OSM   H12A15657   4.233   2.871   6.352  1.0270 -0.6377  0.2311
  143OSM   H12B15658   4.401   2.857   6.314 -0.0994  0.1032 -0.6807
  143OSM    C1115659   4.275   2.796   6.160  0.3946  0.1798 -0.1972
  143OSM   H11A15660   4.267   2.701   6.217  0.3582 -1.3219 -2.5855
  143OSM   H11B15661   4.365   2.791   6.094  1.8241 -1.6155  1.8477
  143OSM      P15662   4.014   2.782   6.125  0.3302 -0.3264  0.3343
  143OSM    O1315663   3.921   2.888   6.075  0.2562  0.5986 -0.3184
  143OSM    O1415664   3.987   2.643   6.079 -0.6032 -0.6010 -0.3456
  143OSM    O1115665   4.025   2.794   6.284  0.1366  0.1280 -0.4339
  143OSM    O1215666   4.156   2.829   6.080 -0.1854 -0.2486 -0.2476
  143OSM    C1S15667   3.909   2.821   6.362  0.6267  0.2696 -0.1913
  143OSM    H1S15668   3.813   2.795   6.314  1.7365  0.0706 -2.3760
  143OSM    H1T15669   3.911   2.930   6.385 -0.1017  0.5452 -1.4598
  143OSM     NF15670   3.784   2.773   6.561  0.4265 -0.4065  0.7276
  143OSM    HNF15671   3.771   2.854   6.616 -2.8134  0.4518 -1.1720
  143OSM    C2S15672   3.914   2.746   6.495 -0.2470  0.0501 -0.4922
  143OSM    H2S15673   3.918   2.639   6.462  0.2032 -0.2078  0.3995
  143OSM    C3S15674   4.026   2.782   6.590 -0.1462 -0.1199  0.2234
  143OSM    H3S15675   4.015   2.890   6.614 -3.4532 -0.6324  1.2453
  143OSM     O315676   4.147   2.753   6.518 -0.4970  0.1171 -0.2453
  143OSM    HO315677   4.111   2.746   6.430 -0.7638  1.6839 -0.2750
  143OSM    C4S15678   4.038   2.694   6.711  0.0984  0.7440  0.2832
  143OSM    H4S15679   4.079   2.593   6.693 -0.8125  0.5705 -0.8364
  143OSM    C5S15680   3.986   2.732   6.833  0.0723  0.6657  1.0343
  143OSM    H5S15681   3.915   2.817   6.834  0.4712  1.0254 -0.2881
  143OSM    C6S15682   3.982   2.648   6.959 -0.2934 -0.4573 -0.1881
  143OSM    H6S15683   3.955   2.709   7.048  3.4856  1.3455 -0.1918
  143OSM    H6T15684   4.086   2.615   6.978 -0.1435  0.6830  1.0193
  143OSM    C7S15685   3.908   2.518   6.947 -0.8476  0.3207 -0.1845
  143OSM    H7S15686   3.919   2.467   6.849  0.0952 -1.1478  0.6644
  143OSM    H7T15687   3.802   2.549   6.955 -1.0504 -0.3008 -0.4934
  143OSM    C8S15688   3.935   2.418   7.064 -0.6884  0.6421 -0.2271
  143OSM    H8S15689   4.043   2.426   7.087 -0.5556 -1.2643 -0.1087
  143OSM    H8T15690   3.920   2.316   7.022 -1.9420  1.5224 -2.0146
  143OSM    C9S15691   3.853   2.450   7.185 -0.0034 -0.6057 -0.6399
  143OSM    H9S15692   3.747   2.437   7.155 -0.0630 -2.0872  0.1527
  143OSM    H9T15693   3.872   2.558   7.204  1.2050 -0.8782 -0.2171
  143OSM   C10S15694   3.890   2.358   7.302 -0.1701  1.0513  0.0823
  143OSM   H10S15695   3.996   2.326   7.314 -0.5184  0.3005  1.3171
  143OSM   H10T15696   3.839   2.261   7.283 -2.9748  2.6800 -0.9738
  143OSM   C11S15697   3.833   2.407   7.438  0.1334 -0.0074 -0.2472
  143OSM   H11S15698   3.725   2.379   7.443  0.2925 -0.2449  3.2144
  143OSM   H11T15699   3.848   2.517   7.448  0.7409 -0.2102  1.1700
  143OSM   C12S15700   3.902   2.351   7.555  0.5166 -0.8434  0.8290
  143OSM   H12S15701   4.005   2.394   7.555 -0.7207  2.2601  0.7394
  143OSM   H12T15702   3.892   2.241   7.539  1.2864 -0.7745 -0.1737
  143OSM   C13S15703   3.836   2.392   7.681 -0.2213 -0.1425 -0.5333
  143OSM   H13S15704   3.730   2.359   7.670  0.0443 -0.9035 -0.8647
  143OSM   H13T15705   3.833   2.503   7.682  0.0497 -0.1481  0.9489
  143OSM   C14S15706   3.894   2.326   7.805  0.5752  0.1795 -0.6997
  143OSM   H14S15707   4.004   2.334   7.818  0.5678  0.6677 -0.9446
  143OSM   H14T15708   3.876   2.218   7.786  4.2286 -0.6099 -0.1543
  143OSM   C15S15709   3.814   2.372   7.931  0.1799  0.8953 -0.4895
  143OSM   H15S15710   3.837   2.295   8.009  2.1957  1.6610 -0.3113
  143OSM   H15T15711   3.705   2.361   7.912  0.6021 -0.8360 -2.0097
  143OSM   C16S15712   3.862   2.499   7.994  0.6793 -0.2783  0.2340
  143OSM   H16S15713   3.866   2.578   7.916 -1.3472 -0.4273 -0.0412
  143OSM   H16T15714   3.964   2.485   8.036  0.8930  0.3934 -0.0555
  143OSM   C17S15715   3.772   2.533   8.108  0.3764  0.0652 -0.6716
  143OSM   H17S15716   3.784   2.443   8.172  0.6869  0.0749 -0.7153
  143OSM   H17T15717   3.668   2.538   8.070 -0.1286 -1.6151  0.4193
  143OSM   C18S15718   3.814   2.656   8.187  0.2824  0.8979 -0.6406
  143OSM   H18S15719   3.923   2.660   8.209  0.1251  0.0747  0.3695
  143OSM   H18T15720   3.764   2.654   8.287  0.7764 -2.9036 -0.4031
  143OSM   H18U15721   3.788   2.743   8.123  0.6035  0.0992 -1.8617
  143OSM    C1F15722   3.674   2.712   6.528 -0.1890 -1.1644 -0.3007
  143OSM     OF15723   3.682   2.612   6.452 -0.0871 -0.1088  0.1000
  143OSM    C2F15724   3.543   2.762   6.569  0.0764  0.1565 -0.3485
  143OSM    H2F15725   3.510   2.847   6.505 -0.6257  1.1914  1.3468
  143OSM    H2G15726   3.548   2.799   6.673  1.2526  1.0980 -0.7169
  143OSM    C3F15727   3.430   2.659   6.563  0.3415 -0.2161  0.2120
  143OSM    H3F15728   3.416   2.627   6.458 -0.7335  0.5405  0.1231
  143OSM    H3G15729   3.334   2.705   6.596  0.8916  1.4506 -0.5112
  143OSM    C4F15730   3.458   2.542   6.656 -0.2504  0.1778  0.5699
  143OSM    H4F15731   3.555   2.496   6.626 -0.3356  0.4427 -0.1332
  143OSM    H4G15732   3.372   2.475   6.636  0.1281  0.3592 -1.8357
  143OSM    C5F15733   3.472   2.575   6.812  0.3308 -0.1055 -0.1112
  143OSM    H5F15734   3.395   2.645   6.852  2.7937  1.5828  1.8923
  143OSM    H5G15735   3.569   2.627   6.829  0.3982  0.6258 -2.5990
  143OSM    C6F15736   3.479   2.451   6.895  0.7490  0.1884  0.8236
  143OSM    H6F15737   3.562   2.390   6.855 -1.0764 -1.7692 -0.0493
  143OSM    H6G15738   3.391   2.384   6.891 -1.3776  2.8783  1.3257
  143OSM    C7F15739   3.494   2.480   7.045  0.0515  0.1734 -0.2041
  143OSM    H7F15740   3.538   2.581   7.058 -4.1587  1.8346  2.0578
  143OSM    H7G15741   3.558   2.400   7.087 -1.4262 -1.8638 -1.7403
  143OSM    C8F15742   3.361   2.477   7.138  0.3890 -0.1487  0.2011
  143OSM    H8F15743   3.391   2.459   7.243 -0.3892  0.1842  0.4776
  143OSM    H8G15744   3.303   2.389   7.103  0.7968 -0.4006  0.1553
  143OSM    C9F15745   3.272   2.596   7.122  0.4282 -0.1338  0.1797
  143OSM    H9F15746   3.290   2.653   7.030 -0.0432 -1.1628 -0.5689
  143OSM   C10F15747   3.184   2.652   7.208 -1.0871  0.2299  0.8329
  143OSM   H10F15748   3.133   2.747   7.186 -1.7385 -0.0693  1.0653
  143OSM   C11F15749   3.140   2.600   7.342  0.0241  0.2057 -0.2801
  143OSM   H11F15750   3.162   2.491   7.344 -3.4130 -0.5783 -0.5940
  143OSM   H11G15751   3.031   2.618   7.356 -0.4191 -0.3726 -2.6552
  143OSM   C12F15752   3.223   2.662   7.464 -0.7093 -0.3806  0.2057
  143OSM   H12F15753   3.169   2.655   7.561  0.7995 -4.0829  0.8420
  143OSM   H12G15754   3.223   2.773   7.459 -0.7627 -0.3334  1.2872
  143OSM   C13F15755   3.372   2.623   7.478  0.5311  0.1452 -0.1580
  143OSM   H13F15756   3.408   2.665   7.382 -0.9925 -1.1366 -1.3280
  143OSM   H13G15757   3.379   2.512   7.478 -2.0307 -0.1075  3.6247
  143OSM   C14F15758   3.450   2.686   7.592 -0.1056 -0.1479 -0.4393
  143OSM   H14F15759   3.431   2.795   7.594  0.3336 -0.0863  3.0531
  143OSM   H14G15760   3.554   2.666   7.558 -1.3772 -3.9254 -2.3535
  143OSM   C15F15761   3.413   2.620   7.724  0.1129  0.6090 -0.2812
  143OSM   H15F15762   3.438   2.512   7.717 -0.4889  0.3696  1.1416
  143OSM   H15G15763   3.307   2.638   7.753  0.1808 -1.0377  1.0485
  143OSM   C16F15764   3.495   2.673   7.848 -0.1229  0.3333 -0.0941
  143OSM   H16F15765   3.604   2.661   7.832  0.1877  0.4999  1.7410
  143OSM   H16G15766   3.486   2.611   7.940 -0.0697  0.0482 -0.2859
  143OSM   C17F15767   3.456   2.819   7.893  0.7095  0.2418  0.1353
  143OSM   H17F15768   3.348   2.809   7.917  0.7649 -1.0551 -0.1410
  143OSM   H17G15769   3.480   2.892   7.813 -0.5273 -0.1685 -0.6353
  143OSM   C18F15770   3.528   2.868   8.020 -0.4164  0.1230  0.4721
  143OSM   H18F15771   3.485   2.967   8.047  2.3022  1.1898  1.0924
  143OSM   H18G15772   3.634   2.895   8.001 -0.4175 -0.3139 -0.1680
  143OSM   H18H15773   3.515   2.798   8.105 -1.1544 -1.8373 -1.2305
  144OSM      N15774   1.994   1.978   6.335  0.0969  1.0229 -0.2041
  144OSM    C1515775   1.942   2.005   6.477  0.3424  0.0854  0.2053
  144OSM   H15A15776   1.836   2.018   6.467  0.3094 -1.9204 -2.8500
  144OSM   H15B15777   1.990   2.087   6.528  1.4140  0.2184 -0.9803
  144OSM   H15C15778   1.958   1.912   6.530  1.0374  0.5856  0.8870
  144OSM    C1415779   1.884   1.924   6.249  0.4498 -0.0191  0.4051
  144OSM   H14A15780   1.836   1.850   6.311  0.2875 -1.7613 -1.7058
  144OSM   H14B15781   1.918   1.882   6.155 -1.9853  0.5961 -0.8159
  144OSM   H14C15782   1.822   2.010   6.228 -0.9158 -1.1657 -0.4054
  144OSM    C1315783   2.033   2.103   6.266  0.2470 -0.3187 -0.0209
  144OSM   H13A15784   2.118   2.140   6.321  1.4463 -1.6366 -0.9457
  144OSM   H13B15785   1.956   2.177   6.281 -1.1154 -1.5534 -0.7468
  144OSM   H13C15786   2.070   2.085   6.167  4.1372 -2.1965  1.6550
  144OSM    C1215787   2.111   1.884   6.340  0.4365 -0.2103 -0.0739
  144OSM   H12A15788   2.159   1.882   6.244 -1.7420  0.7927 -1.2082
  144OSM   H12B15789   2.082   1.780   6.354 -0.2228 -0.1414 -0.8690
  144OSM    C1115790   2.238   1.921   6.435 -0.3523  0.3788 -0.0858
  144OSM   H11A15791   2.321   1.848   6.424 -1.1725 -0.6677  0.5748
  144OSM   H11B15792   2.200   1.911   6.538  1.3476 -2.6464  0.2994
  144OSM      P15793   2.375   2.074   6.265 -0.0215  0.1121  0.0592
  144OSM    O1315794   2.360   1.963   6.171  0.0896  0.6183 -0.0582
  144OSM    O1415795   2.345   2.206   6.209 -0.1861  0.4780 -0.3728
  144OSM    O1115796   2.520   2.088   6.329 -1.1084  0.0771 -0.1429
  144OSM    O1215797   2.283   2.055   6.393 -0.5960  0.4567 -0.1376
  144OSM    C1S15798   2.539   2.163   6.445 -0.0677  0.8107  0.0873
  144OSM    H1S15799   2.453   2.225   6.479 -0.5512 -0.6240  1.5428
  144OSM    H1T15800   2.634   2.220   6.432  0.5210 -0.4513 -1.2844
  144OSM     NF15801   2.588   2.142   6.695  0.4675  0.3824 -0.1983
  144OSM    HNF15802   2.677   2.125   6.736  0.1196 -1.7837 -0.3072
  144OSM    C2S15803   2.558   2.063   6.571 -0.1898  0.4399  0.0348
  144OSM    H2S15804   2.463   2.008   6.587 -0.4501  1.3134  1.6155
  144OSM    C3S15805   2.665   1.956   6.544 -0.6380  0.1583 -0.2253
  144OSM    H3S15806   2.761   2.007   6.523 -0.9635  1.0315  0.3812
  144OSM     O315807   2.632   1.868   6.439  0.3931 -0.0421  0.5165
  144OSM    HO315808   2.544   1.889   6.407  1.1013 -1.1162 -2.2431
  144OSM    C4S15809   2.686   1.867   6.668  0.3105  0.4908 -0.1278
  144OSM    H4S15810   2.769   1.910   6.726  1.2820  0.3213 -1.3765
  144OSM    C5S15811   2.626   1.757   6.701 -0.1989  0.3604 -0.2543
  144OSM    H5S15812   2.536   1.727   6.645 -1.7885  0.2948  2.2202
  144OSM    C6S15813   2.649   1.681   6.836  0.3684 -0.2604 -0.0684
  144OSM    H6S15814   2.701   1.583   6.824 -1.4174 -1.0389 -1.6789
  144OSM    H6T15815   2.548   1.657   6.876  1.0042 -1.2460  0.9891
  144OSM    C7S15816   2.737   1.754   6.940  0.2596 -0.0397  0.7098
  144OSM    H7S15817   2.695   1.853   6.963 -0.3059 -0.1040 -0.0289
  144OSM    H7T15818   2.839   1.753   6.895  0.0849 -0.1963  0.3158
  144OSM    C8S15819   2.734   1.675   7.071  0.3271 -0.2502  0.2830
  144OSM    H8S15820   2.767   1.570   7.060  1.6711  0.0238  1.5506
  144OSM    H8T15821   2.629   1.653   7.099  0.9869 -0.3076  2.8506
  144OSM    C9S15822   2.810   1.741   7.180 -0.6956  0.0135 -0.0448
  144OSM    H9S15823   2.761   1.838   7.204 -2.7082 -0.9175 -0.2419
  144OSM    H9T15824   2.917   1.760   7.160 -0.0555  0.0003  3.1359
  144OSM   C10S15825   2.783   1.662   7.316  0.3926 -0.0565  0.5178
  144OSM   H10S15826   2.846   1.571   7.312  1.2837  0.5235  1.1176
  144OSM   H10T15827   2.678   1.632   7.335  1.2668 -2.3914  1.8498
  144OSM   C11S15828   2.836   1.742   7.436 -0.2132  1.1784  0.2722
  144OSM   H11S15829   2.795   1.844   7.450 -1.1818  0.4814  2.8900
  144OSM   H11T15830   2.943   1.761   7.410  0.5961 -0.9382  1.8994
  144OSM   C12S15831   2.827   1.665   7.569 -0.0975 -0.5783 -0.2132
  144OSM   H12S15832   2.860   1.559   7.567  1.0477 -0.2508  0.8705
  144OSM   H12T15833   2.720   1.663   7.596 -0.3375  0.5667 -1.0608
  144OSM   C13S15834   2.891   1.741   7.686 -0.2972  0.2525  0.2715
  144OSM   H13S15835   2.887   1.850   7.666  0.0487  0.2020 -0.0733
  144OSM   H13T15836   3.000   1.717   7.688 -0.4525 -1.0751 -3.4672
  144OSM   C14S15837   2.816   1.719   7.818 -0.2446 -0.0248  0.2721
  144OSM   H14S15838   2.837   1.618   7.859  0.1930 -0.3054 -0.6412
  144OSM   H14T15839   2.706   1.735   7.808 -0.0182  0.8691 -0.8279
  144OSM   C15S15840   2.856   1.814   7.933 -0.5093 -0.5991  0.0926
  144OSM   H15S15841   2.800   1.793   8.026  0.1400 -3.2035 -0.0737
  144OSM   H15T15842   2.827   1.918   7.906  1.5949  0.1799  0.6821
  144OSM   C16S15843   3.010   1.805   7.966 -0.1087  1.0509 -0.0702
  144OSM   H16S15844   3.069   1.840   7.878  0.2490  0.2727 -0.1388
  144OSM   H16T15845   3.043   1.707   8.006  1.2406  0.7713 -1.7849
  144OSM   C17S15846   3.047   1.901   8.078 -0.1048  0.1094 -0.5781
  144OSM   H17S15847   2.986   1.872   8.167 -1.0614  0.7167 -1.0295
  144OSM   H17T15848   3.006   1.998   8.041  0.4481  0.0591 -1.3373
  144OSM   C18S15849   3.196   1.911   8.122  0.3184 -0.1168 -0.3144
  144OSM   H18S15850   3.270   1.935   8.042  0.4532  1.5038  0.2797
  144OSM   H18T15851   3.226   1.813   8.165 -1.0027  0.2270  1.4164
  144OSM   H18U15852   3.216   1.992   8.195 -1.1821 -0.1372  0.1269
  144OSM    C1F15853   2.513   2.225   6.760  0.4164  0.4647  0.6946
  144OSM     OF15854   2.398   2.239   6.730 -0.2617  0.1220  0.7195
  144OSM    C2F15855   2.582   2.289   6.875  0.1687  0.6360  0.3531
  144OSM    H2F15856   2.664   2.353   6.835 -0.6608  0.9783 -0.8279
  144OSM    H2G15857   2.628   2.212   6.941 -1.2626 -0.0519  0.5491
  144OSM    C3F15858   2.495   2.369   6.963 -0.0221  0.4267 -0.4793
  144OSM    H3F15859   2.401   2.316   6.989  0.8620  0.0580  2.0641
  144OSM    H3G15860   2.465   2.462   6.909 -4.7812  0.9526  2.8172
  144OSM    C4F15861   2.581   2.430   7.079 -0.0980 -1.0294  0.0348
  144OSM    H4F15862   2.681   2.465   7.046 -0.7044  2.6149  1.8865
  144OSM    H4G15863   2.585   2.340   7.145 -2.9284 -0.7993  0.5712
  144OSM    C5F15864   2.499   2.537   7.141 -0.1070  0.5045 -0.3868
  144OSM    H5F15865   2.399   2.490   7.149  0.3004 -0.3034 -0.0638
  144OSM    H5G15866   2.500   2.638   7.093 -2.2663  1.1952  0.9777
  144OSM    C6F15867   2.531   2.573   7.281  0.0455  0.6517 -0.5204
  144OSM    H6F15868   2.514   2.480   7.339 -2.0187  1.4979  0.2905
  144OSM    H6G15869   2.462   2.650   7.322 -0.6975 -0.4031  0.2355
  144OSM    C7F15870   2.685   2.614   7.308  0.3854  0.4268  0.4845
  144OSM    H7F15871   2.721   2.696   7.243  1.3204 -0.1474  0.2789
  144OSM    H7G15872   2.755   2.538   7.270 -1.2321 -0.7199 -0.2605
  144OSM    C8F15873   2.702   2.632   7.455 -0.4089  0.4325 -0.6278
  144OSM    H8F15874   2.807   2.648   7.489 -0.8136  1.0282  0.3710
  144OSM    H8G15875   2.689   2.528   7.492  3.0219  0.2633  0.2931
  144OSM    C9F15876   2.609   2.734   7.528  0.4650 -0.1772 -0.1589
  144OSM    H9F15877   2.582   2.827   7.475  0.2908  1.2183  2.3108
  144OSM   C10F15878   2.534   2.705   7.637 -0.6251  0.0504 -0.6932
  144OSM   H10F15879   2.483   2.787   7.689  0.5955 -0.5314  1.4856
  144OSM   C11F15880   2.533   2.571   7.700 -0.6158  0.3549 -0.1283
  144OSM   H11F15881   2.548   2.489   7.626  3.0841  1.2037 -0.3878
  144OSM   H11G15882   2.439   2.557   7.758 -1.1664  1.0696 -0.8404
  144OSM   C12F15883   2.645   2.550   7.811 -0.5127  0.5518 -1.0757
  144OSM   H12F15884   2.743   2.590   7.776 -0.3664  1.1214 -0.0336
  144OSM   H12G15885   2.649   2.439   7.820  0.9297  0.5667 -1.3368
  144OSM   C13F15886   2.609   2.615   7.948 -0.1695  0.1395 -0.1417
  144OSM   H13F15887   2.498   2.621   7.955 -0.1698  0.8267 -0.7239
  144OSM   H13G15888   2.651   2.718   7.949  1.5424 -0.5068 -2.4491
  144OSM   C14F15889   2.650   2.531   8.067  0.5643  0.3602  0.1551
  144OSM   H14F15890   2.761   2.518   8.070  0.3592 -1.1279  1.8472
  144OSM   H14G15891   2.612   2.427   8.065  2.0891 -0.1878 -0.7261
  144OSM   C15F15892   2.615   2.605   8.197 -0.0476 -0.1530  0.4286
  144OSM   H15F15893   2.505   2.606   8.206  0.0100 -0.0909  1.1767
  144OSM   H15G15894   2.653   2.709   8.186  0.6534 -0.1987  2.1144
  144OSM   C16F15895   2.685   2.555   8.326 -0.5872 -0.0688  0.2939
  144OSM   H16F15896   2.680   2.641   8.396 -2.2408 -0.0095  0.1246
  144OSM   H16G15897   2.794   2.540   8.307 -0.5793 -0.9141  1.0159
  144OSM   C17F15898   2.620   2.434   8.385 -0.6505  0.8986 -0.4587
  144OSM   H17F15899   2.612   2.351   8.312  0.3623  0.2846  0.1143
  144OSM   H17G15900   2.517   2.451   8.422 -1.3314 -1.0507 -1.3791
  144OSM   C18F15901   2.703   2.394   8.503  0.3390  0.0957  0.0876
  144OSM   H18F15902   2.812   2.401   8.481  0.4962 -0.5483  0.6692
  144OSM   H18G15903   2.665   2.296   8.538 -0.8418  0.3560 -0.4238
  144OSM   H18H15904   2.687   2.458   8.592  3.1962  0.0205  0.6854
  145SAPE     N15905   0.226   2.938  10.839  0.2112  0.3017 -0.3289
  145SAPE   HN115906   0.207   2.879  10.755 -0.9230 -1.3096  1.0267
  145SAPE   HN215907   0.323   2.928  10.875  0.1638  2.2412  0.3982
  145SAPE   HN315908   0.155   2.915  10.911  2.5384 -0.7366  1.7254
  145SAPE   C1215909   0.209   3.084  10.797  1.0769 -0.0924 -0.1802
  145SAPE  H12A15910   0.257   3.137  10.883 -1.8545  0.0709  1.4147
  145SAPE  H12B15911   0.100   3.103  10.803  1.0575 -0.2018 -0.1852
  145SAPE   C1115912   0.268   3.119  10.659  0.0260 -1.1781 -0.2789
  145SAPE  H11A15913   0.244   3.227  10.651 -0.2024 -1.2257 -0.2207
  145SAPE  H11B15914   0.229   3.066  10.570 -1.4944 -0.4013 -0.0868
  145SAPE     P15915   0.495   2.992  10.607  0.2702  0.1148 -0.4775
  145SAPE   O1315916   0.629   2.994  10.668  0.4611 -0.2070 -0.0417
  145SAPE   O1415917   0.429   2.864  10.631  0.2651 -0.1272 -0.6455
  145SAPE   O1215918   0.410   3.119  10.665 -0.1117  0.3650 -0.3160
  145SAPE   O1115919   0.486   3.024  10.455 -0.4079  0.8786  0.5219
  145SAPE    C115920   0.597   3.057  10.384 -0.2399 -0.1957  0.3643
  145SAPE    HA15921   0.651   3.142  10.432 -0.9076 -0.8943  2.4181
  145SAPE    HB15922   0.677   2.981  10.378  0.4765  0.5320  0.5862
  145SAPE    C215923   0.555   3.116  10.248  0.0299 -0.3318 -0.2413
  145SAPE    HS15924   0.648   3.152  10.200 -0.4561 -0.5962 -1.3998
  145SAPE   O2115925   0.466   3.231  10.268  0.8279  0.4638  0.1677
  145SAPE   C2115926   0.531   3.345  10.288  0.0058  0.2468 -0.4713
  145SAPE   O2215927   0.649   3.364  10.298 -0.4004 -0.2424 -0.1172
  145SAPE   C2215928   0.426   3.459  10.281  0.9302  0.2818  0.2192
  145SAPE   H2R15929   0.432   3.507  10.181 -0.4957 -0.2828 -0.1619
  145SAPE   H2S15930   0.327   3.411  10.298  0.0801  1.6723 -0.6254
  145SAPE    C315931   0.487   3.008  10.162 -0.3822  0.0992  0.0570
  145SAPE    HX15932   0.446   3.068  10.078 -2.2328  0.5519  1.2656
  145SAPE    HY15933   0.398   2.965  10.213 -0.5503 -0.0646 -0.3634
  145SAPE   O3115934   0.584   2.911  10.113  0.1458 -0.8531 -0.8913
  145SAPE   C3115935   0.589   2.789  10.167  0.0642 -0.1753 -0.7263
  145SAPE   O3215936   0.526   2.752  10.264  0.2255 -0.1049  0.8780
  145SAPE   C3215937   0.653   2.684  10.068 -0.6182  0.3498 -0.1781
  145SAPE   H2X15938   0.758   2.720  10.072 -1.2253  2.4740 -1.9390
  145SAPE   H2Y15939   0.609   2.707   9.969 -1.1420  2.7478  0.5787
  145SAPE   C2315940   0.433   3.577  10.386  0.0476  0.6564  0.7302
  145SAPE   H3R15941   0.480   3.539  10.479 -0.6414  0.7201  1.1102
  145SAPE   H3S15942   0.332   3.610  10.419  0.0712  1.3859  0.1052
  145SAPE   C2415943   0.505   3.697  10.327 -1.0823  0.4032  0.1395
  145SAPE   H4R15944   0.501   3.788  10.391 -2.1460 -0.5726  1.4976
  145SAPE   H4S15945   0.468   3.719  10.225 -0.7226 -1.9869 -0.5170
  145SAPE   C2515946   0.656   3.674  10.322  0.7909  0.1811  0.3328
  145SAPE   H5R15947   0.696   3.643  10.420 -0.3378  0.2078  0.8153
  145SAPE   C2615948   0.743   3.703  10.220 -0.2939  0.4222  0.0238
  145SAPE   H6R15949   0.849   3.678  10.235 -0.5603  0.1576  1.4880
  145SAPE   C2715950   0.696   3.751  10.083 -0.6394 -0.5734 -0.0153
  145SAPE   H7R15951   0.754   3.841  10.054  0.6370 -1.8216 -1.4770
  145SAPE   H7S15952   0.594   3.794  10.073 -0.4008 -0.3498 -1.5287
  145SAPE   C2815953   0.717   3.654   9.968  0.4350  0.2475  0.2316
  145SAPE   H8R15954   0.751   3.553   9.996  2.1125 -0.0613 -2.7403
  145SAPE   C2915955   0.683   3.682   9.846  0.5720 -0.1495  0.4571
  145SAPE   H9R15956   0.700   3.601   9.774  2.3362 -0.0852  0.7715
  145SAPE  C21015957   0.626   3.811   9.785 -0.1139  0.0411 -0.2413
  145SAPE  H10R15958   0.590   3.870   9.872  0.0197 -1.3285  0.7502
  145SAPE  H10S15959   0.540   3.785   9.719  1.8615  0.0799 -2.8961
  145SAPE  C21115960   0.725   3.893   9.713  0.4518 -0.5915 -0.8348
  145SAPE  H11R15961   0.814   3.916   9.774 -1.0007 -0.0081  1.1517
  145SAPE  C21215962   0.717   3.939   9.585  1.1258  0.4968  0.3797
  145SAPE  H12R15963   0.796   4.003   9.542 -0.1782  0.5217 -2.0300
  145SAPE  C21315964   0.601   3.923   9.491  0.7740 -0.8116 -0.5468
  145SAPE  H13R15965   0.591   4.003   9.415  1.1086  0.8126  1.0824
  145SAPE  H13S15966   0.503   3.937   9.542  0.7995  1.1746 -1.0217
  145SAPE  C21415967   0.597   3.787   9.423  0.9145 -0.2642 -0.0521
  145SAPE  H14R15968   0.600   3.694   9.482 -0.1144 -0.7077 -0.6886
  145SAPE  C21515969   0.609   3.771   9.287 -0.0556  0.1805  1.1735
  145SAPE  H15R15970   0.597   3.670   9.243  1.9937  0.3644  0.1316
  145SAPE  C21615971   0.619   3.888   9.192 -0.2412 -0.3596 -0.8949
  145SAPE  H16R15972   0.663   3.847   9.099 -2.5078 -0.1060 -2.1233
  145SAPE  H16S15973   0.684   3.969   9.229 -0.3167 -0.0350 -1.4645
  145SAPE  C21715974   0.489   3.959   9.149  0.5752  0.0790  0.3198
  145SAPE  H17R15975   0.508   4.031   9.066  0.9009  0.3043  0.5844
  145SAPE  H17S15976   0.459   4.021   9.237 -3.1533  1.3132 -1.7428
  145SAPE  C21815977   0.383   3.860   9.113  0.3389 -0.1119  0.3763
  145SAPE  H18R15978   0.348   3.798   9.199  0.6646  0.6273  1.0472
  145SAPE  H18S15979   0.423   3.786   9.041  3.4434 -0.0093  1.9114
  145SAPE  C21915980   0.256   3.928   9.058  0.9386  0.6249 -0.6277
  145SAPE  H19R15981   0.282   3.949   8.952  1.0840  1.9506 -0.3401
  145SAPE  H19S15982   0.243   4.021   9.117  2.2196  0.9185 -0.7960
  145SAPE  C22015983   0.129   3.844   9.054 -0.0207 -0.0052  0.0256
  145SAPE  H20R15984   0.117   3.783   9.147 -0.8988  0.6321  0.3368
  145SAPE  H20S15985   0.142   3.780   8.965 -1.4972  0.2796 -0.4028
  145SAPE  H20T15986   0.031   3.895   9.042 -1.7149 -2.5657  2.3122
  145SAPE   C3315987   0.645   2.533  10.098  0.0648 -0.0793  0.6354
  145SAPE   H3X15988   0.540   2.499  10.089  0.0346  0.7307 -2.8854
  145SAPE   H3Y15989   0.678   2.515  10.203  0.2722 -2.2112  0.2271
  145SAPE   C3415990   0.736   2.458  10.003 -0.3744  0.3247 -0.3594
  145SAPE   H4X15991   0.715   2.350  10.020 -0.2911  0.2690 -0.6079
  145SAPE   H4Y15992   0.845   2.480  10.005  0.1045 -1.6861 -1.8803
  145SAPE   C3515993   0.685   2.470   9.857  0.3892  0.7278 -0.1248
  145SAPE   H5X15994   0.698   2.571   9.813 -2.4283  0.9762 -0.4651
  145SAPE   H5Y15995   0.574   2.468   9.856  0.4274 -2.2953 -2.0529
  145SAPE   C3615996   0.748   2.358   9.771  0.3642 -0.0740  0.6057
  145SAPE   H6X15997   0.695   2.267   9.806 -1.0755  0.2434 -0.6970
  145SAPE   H6Y15998   0.858   2.354   9.788  0.9200  3.5723 -1.5849
  145SAPE   C3715999   0.719   2.361   9.623  0.9476  0.2453  0.5552
  145SAPE   H7X16000   0.755   2.456   9.577 -0.8545  0.3449 -0.7190
  145SAPE   H7Y16001   0.612   2.357   9.593  0.4570 -0.8578  2.3945
  145SAPE   C3816002   0.793   2.259   9.544  0.4922  0.4334 -0.0768
  145SAPE   H8X16003   0.735   2.165   9.558 -0.1353  0.9574  0.8392
  145SAPE   H8Y16004   0.893   2.235   9.585 -0.1975 -0.1540  1.2992
  145SAPE   C3916005   0.794   2.286   9.393  0.1443 -0.1403 -0.6568
  145SAPE   H9X16006   0.854   2.378   9.375 -1.1479  0.9578  0.6676
  145SAPE   H9Y16007   0.695   2.320   9.357 -0.1258  0.0569  0.2776
  145SAPE  C31016008   0.842   2.172   9.298  0.1800  0.6063 -0.0799
  145SAPE  H10X16009   0.775   2.084   9.293 -0.7638  1.2276  1.2415
  145SAPE  H10Y16010   0.927   2.132   9.358 -1.2329  2.1974  3.1240
  145SAPE  C31116011   0.879   2.207   9.153 -0.3226  0.1604  0.1775
  145SAPE  H11X16012   0.931   2.118   9.110  0.8088  0.4444  0.9526
  145SAPE  H11Y16013   0.950   2.292   9.159 -1.8069  1.3801  0.7624
  145SAPE  C31216014   0.751   2.244   9.075  0.4499  0.2706  0.0201
  145SAPE  H12X16015   0.707   2.337   9.119 -3.6269 -1.4598 -0.1259
  145SAPE  H12Y16016   0.666   2.174   9.086 -0.2553  0.9873 -0.7774
  145SAPE  C31316017   0.773   2.261   8.926  0.8350 -0.2969 -0.0991
  145SAPE  H13X16018   0.681   2.301   8.877  0.6196  0.0624  0.5858
  145SAPE  H13Y16019   0.790   2.158   8.889  2.0315  0.8714 -2.9520
  145SAPE  C31416020   0.890   2.354   8.897 -0.0277 -0.2350 -0.4170
  145SAPE  H14X16021   0.986   2.315   8.936  2.1593  3.0555 -2.2849
  145SAPE  H14Y16022   0.870   2.446   8.956 -2.0141 -1.9536  1.6648
  145SAPE  C31516023   0.913   2.387   8.743 -0.3329  0.2876  0.0796
  145SAPE  H15X16024   0.929   2.295   8.682  0.7442  0.0026  0.7613
  145SAPE  H15Y16025   1.010   2.441   8.751  0.9189 -1.6639 -1.3249
  145SAPE  C31616026   0.823   2.493   8.686 -0.0201 -0.2237 -0.1982
  145SAPE  H16X16027   0.828   2.583   8.750 -0.9650 -0.1460 -0.2256
  145SAPE  H16Y16028   0.718   2.456   8.681 -0.5685  1.3930 -0.8943
  145SAPE  C31716029   0.867   2.542   8.553 -0.1873  1.2087  0.5565
  145SAPE  H17X16030   0.966   2.590   8.570  0.3579  0.6211 -0.8486
  145SAPE  H17Y16031   0.794   2.614   8.510 -0.7754 -0.1176 -0.7204
  145SAPE  C31816032   0.882   2.433   8.448 -0.3074  0.5371  0.0143
  145SAPE  H18X16033   0.872   2.478   8.347 -1.4710  0.0767 -0.0828
  145SAPE  H18Y16034   0.804   2.356   8.469 -1.4125  1.9366  1.1783
  145SAPE  H18Z16035   0.983   2.387   8.454 -0.4239  0.1116 -1.2638
  146SAPE     N16036   6.701   4.237  10.725  0.4571  0.1587 -0.6441
  146SAPE   HN116037   6.657   4.188  10.644 -0.6842  0.5594 -0.2766
  146SAPE   HN216038   6.797   4.275  10.710  1.2921 -1.2035  1.1783
  146SAPE   HN316039   6.698   4.166  10.801 -0.1367  0.9493  0.0914
  146SAPE   C1216040   6.619   4.343  10.785 -0.2080  0.1068  0.0496
  146SAPE  H12A16041   6.631   4.436  10.725  1.2798 -0.5170 -0.6358
  146SAPE  H12B16042   6.651   4.364  10.890  1.0323  3.3526 -0.9047
  146SAPE   C1116043   6.471   4.318  10.779  0.5326  0.5996  0.7501
  146SAPE  H11A16044   6.422   4.407  10.824 -1.8234 -1.6403  2.7495
  146SAPE  H11B16045   6.444   4.227  10.837 -2.0497  0.9402  0.1573
  146SAPE     P16046   6.268   4.235  10.637 -0.3014 -0.4231 -0.0118
  146SAPE   O1316047   6.277   4.103  10.570 -0.7492  0.1573  0.1892
  146SAPE   O1416048   6.207   4.216  10.772  0.1184  0.4170 -0.6449
  146SAPE   O1216049   6.414   4.301  10.643  0.3193 -0.1981  0.5709
  146SAPE   O1116050   6.184   4.348  10.549 -0.0397  0.2222  0.4779
  146SAPE    C116051   6.228   4.376  10.412  0.4557  0.4531 -0.0301
  146SAPE    HA16052   6.337   4.357  10.395 -0.2841 -1.3937 -3.1526
  146SAPE    HB16053   6.166   4.316  10.342  0.6723 -0.4497  0.5455
  146SAPE    C216054   6.208   4.526  10.364  0.4211 -0.0439  0.0414
  146SAPE    HS16055   6.242   4.582  10.454 -2.8213  0.3470  1.0976
  146SAPE   O2116056   6.068   4.546  10.350  0.2300 -0.5390 -0.1301
  146SAPE   C2116057   6.014   4.673  10.346 -0.6044  0.0004 -0.2028
  146SAPE   O2216058   6.074   4.773  10.376 -0.2604 -0.8023 -0.0049
  146SAPE   C2216059   5.879   4.661  10.299  0.6901  0.0513 -0.6576
  146SAPE   H2R16060   5.850   4.557  10.270 -0.2009  0.2713 -0.5806
  146SAPE   H2S16061   5.810   4.694  10.380 -0.3878 -0.8530 -1.1942
  146SAPE    C316062   6.276   4.577  10.236 -1.2761  0.4775 -0.4059
  146SAPE    HX16063   6.261   4.686  10.247 -0.6780  0.4684  0.6294
  146SAPE    HY16064   6.222   4.549  10.144  2.0904 -1.6326 -1.8529
  146SAPE   O3116065   6.414   4.530  10.226 -0.0032 -0.0148  0.3768
  146SAPE   C3116066   6.505   4.605  10.278 -0.2288 -0.3647 -0.1312
  146SAPE   O3216067   6.476   4.699  10.351  0.3030 -0.4520  0.0394
  146SAPE   C3216068   6.647   4.555  10.237  0.1260  0.0615 -0.8085
  146SAPE   H2X16069   6.709   4.646  10.257  0.5328 -0.3594 -0.1399
  146SAPE   H2Y16070   6.644   4.537  10.128  1.2267  1.3077 -1.0583
  146SAPE   C2316071   5.868   4.753  10.180 -0.1272 -0.3590 -0.3297
  146SAPE   H3R16072   5.940   4.740  10.096  1.2115 -0.2043  0.7838
  146SAPE   H3S16073   5.885   4.855  10.219 -1.0461 -0.7213  1.0710
  146SAPE   C2416074   5.725   4.772  10.124  0.3352 -0.4742 -0.3286
  146SAPE   H4R16075   5.724   4.870  10.072  0.4814  1.0876  2.5035
  146SAPE   H4S16076   5.667   4.794  10.216  2.6498  1.5493  0.7071
  146SAPE   C2516077   5.675   4.660  10.046  0.4141  0.1335 -0.0212
  146SAPE   H5R16078   5.666   4.571  10.110  0.5203 -0.0554 -0.2673
  146SAPE   C2616079   5.662   4.653   9.913  0.7037 -0.3532  0.0827
  146SAPE   H6R16080   5.656   4.548   9.880  1.1228 -0.9395  1.8217
  146SAPE   C2716081   5.685   4.757   9.808  0.6766 -0.6329 -0.1159
  146SAPE   H7R16082   5.693   4.858   9.853  1.8019 -0.4902 -0.6148
  146SAPE   H7S16083   5.593   4.763   9.746  1.5412  1.0477 -1.2759
  146SAPE   C2816084   5.811   4.743   9.731 -0.2261 -0.1546  0.1429
  146SAPE   H8R16085   5.902   4.743   9.792  0.4092 -0.9289 -0.7801
  146SAPE   C2916086   5.821   4.710   9.603 -0.1904  0.5607 -0.0834
  146SAPE   H9R16087   5.924   4.701   9.565  0.0166  2.2148  0.0377
  146SAPE  C21016088   5.708   4.679   9.506 -0.4790  0.3765 -0.4953
  146SAPE  H10R16089   5.620   4.637   9.559 -0.9467 -0.1463 -1.6739
  146SAPE  H10S16090   5.737   4.594   9.440  0.3891 -0.6279  1.1628
  146SAPE  C21116091   5.673   4.806   9.426  0.4159  0.4632 -0.0385
  146SAPE  H11R16092   5.694   4.903   9.474 -1.4836  1.9717 -2.1238
  146SAPE  C21216093   5.612   4.809   9.303  0.5739  0.5517 -0.7426
  146SAPE  H12R16094   5.599   4.906   9.253 -3.2802  0.1574 -0.6111
  146SAPE  C21316095   5.560   4.694   9.218 -0.1652  0.1838 -0.1558
  146SAPE  H13R16096   5.653   4.656   9.171 -0.6931  1.1385 -2.0014
  146SAPE  H13S16097   5.497   4.751   9.146 -0.8476  1.4516  1.4043
  146SAPE  C21416098   5.481   4.580   9.280 -0.0961  1.2100  0.1186
  146SAPE  H14R16099   5.449   4.579   9.386  0.4249 -0.7173  0.2657
  146SAPE  C21516100   5.457   4.468   9.217  0.3039 -0.0150  0.5851
  146SAPE  H15R16101   5.412   4.377   9.260 -0.3687  0.8835  1.8046
  146SAPE  C21616102   5.490   4.436   9.075  0.1856  0.1796 -0.0435
  146SAPE  H16R16103   5.556   4.347   9.070  0.2007  0.2301 -0.8232
  146SAPE  H16S16104   5.552   4.516   9.028 -1.0289  1.2705  0.1822
  146SAPE  C21716105   5.380   4.413   8.982  0.5595  0.5644 -0.2476
  146SAPE  H17R16106   5.421   4.434   8.881  1.7138  2.4034  0.5712
  146SAPE  H17S16107   5.294   4.482   8.996 -0.4204 -0.8727  0.9775
  146SAPE  C21816108   5.307   4.279   9.008  0.1507 -0.3215 -0.2119
  146SAPE  H18R16109   5.268   4.271   9.112  0.1784  3.4791  0.1497
  146SAPE  H18S16110   5.382   4.197   8.999 -0.2221 -0.5913 -0.8603
  146SAPE  C21916111   5.194   4.244   8.911 -0.5910 -0.7250 -0.0510
  146SAPE  H19R16112   5.120   4.327   8.908  0.5227  0.2185 -2.0528
  146SAPE  H19S16113   5.140   4.154   8.947 -2.4436  0.2836 -0.2017
  146SAPE  C22016114   5.232   4.227   8.763  0.1090  0.6847 -0.7341
  146SAPE  H20R16115   5.147   4.213   8.693 -2.3394 -1.2560  2.4754
  146SAPE  H20S16116   5.307   4.146   8.752 -0.0467  0.4195  0.0914
  146SAPE  H20T16117   5.294   4.313   8.729 -1.2423  2.4194  1.0685
  146SAPE   C3316118   6.690   4.443  10.321 -0.1994 -0.0923 -0.5579
  146SAPE   H3X16119   6.643   4.350  10.282 -0.9425  1.2051 -2.8341
  146SAPE   H3Y16120   6.656   4.456  10.426  3.3749 -1.9085  0.9157
  146SAPE   C3416121   6.836   4.427  10.324 -0.3337  0.2882  0.0356
  146SAPE   H4X16122   6.870   4.377  10.416  1.5412 -0.3602 -0.9876
  146SAPE   H4Y16123   6.884   4.527  10.318  2.9537 -1.3142 -1.3257
  146SAPE   C3516124   6.873   4.336  10.208 -0.5687 -0.7496 -0.0506
  146SAPE   H5X16125   6.794   4.359  10.133 -0.3135 -3.5128 -1.2526
  146SAPE   H5Y16126   6.857   4.228  10.230 -0.5719 -0.8004 -0.2973
  146SAPE   C3616127   7.008   4.362  10.142 -0.3797  0.2239 -0.8030
  146SAPE   H6X16128   7.087   4.311  10.202 -0.1355 -0.2996 -1.5692
  146SAPE   H6Y16129   7.008   4.473  10.149 -4.4256  0.3969 -2.6008
  146SAPE   C3716130   7.039   4.330   9.995 -0.8334  0.1820  0.3876
  146SAPE   H7X16131   6.970   4.388   9.930  0.0699 -0.5778 -1.3077
  146SAPE   H7Y16132   7.020   4.224   9.967  1.2278 -0.2002  0.3708
  146SAPE   C3816133   7.185   4.382   9.962  0.5011 -0.4467 -0.8832
  146SAPE   H8X16134   7.245   4.351  10.050  2.0877  1.7078 -1.1956
  146SAPE   H8Y16135   7.182   4.493   9.968  0.4681 -0.4273 -1.2411
  146SAPE   C3916136   7.231   4.332   9.825 -0.3877 -0.0416  0.2316
  146SAPE   H9X16137   7.168   4.382   9.749 -0.9681 -2.9341 -1.2686
  146SAPE   H9Y16138   7.220   4.221   9.817  0.1310  0.0181 -1.3292
  146SAPE  C31016139   7.377   4.371   9.790 -0.0116 -0.3038  0.6587
  146SAPE  H10X16140   7.442   4.355   9.878  0.3621 -0.5572  0.3357
  146SAPE  H10Y16141   7.386   4.479   9.765  0.2739 -0.2334  1.0673
  146SAPE  C31116142   7.426   4.300   9.660  0.1042  0.0752 -0.8809
  146SAPE  H11X16143   7.417   4.190   9.647 -1.0200  0.5029 -4.2382
  146SAPE  H11Y16144   7.533   4.326   9.641  0.3652  0.5375  1.1624
  146SAPE  C31216145   7.356   4.369   9.542  0.1543  0.0833  0.3254
  146SAPE  H12X16146   7.361   4.480   9.549 -2.2204  0.3674 -1.6442
  146SAPE  H12Y16147   7.245   4.358   9.547 -0.1507  2.7591  0.2470
  146SAPE  C31316148   7.417   4.322   9.411 -0.9119 -0.1576 -0.6611
  146SAPE  H13X16149   7.432   4.212   9.408 -1.4807 -0.2592  0.0371
  146SAPE  H13Y16150   7.522   4.359   9.409 -1.4063  1.2810 -0.5682
  146SAPE  C31416151   7.342   4.370   9.287 -0.2001  0.0332 -0.2590
  146SAPE  H14X16152   7.300   4.473   9.290  2.2340  1.0313  0.4382
  146SAPE  H14Y16153   7.265   4.297   9.253  0.6820  0.0195 -2.2674
  146SAPE  C31516154   7.445   4.371   9.166 -0.4008 -0.4099 -0.4148
  146SAPE  H15X16155   7.474   4.264   9.164  1.8843  0.1615  0.7465
  146SAPE  H15Y16156   7.535   4.431   9.193 -1.4202  0.7288  0.5725
  146SAPE  C31616157   7.383   4.421   9.030  0.0773  0.6528  0.3335
  146SAPE  H16X16158   7.362   4.530   9.032  2.4489  1.1830 -1.6149
  146SAPE  H16Y16159   7.287   4.369   9.010  0.7135  0.1768 -1.5149
  146SAPE  C31716160   7.488   4.401   8.916 -0.0127  0.1430 -0.2236
  146SAPE  H17X16161   7.494   4.293   8.894 -0.6096  0.3625 -1.5447
  146SAPE  H17Y16162   7.585   4.434   8.960 -0.6242  1.3432  0.2560
  146SAPE  C31816163   7.459   4.474   8.785  0.7675  0.7199  0.0514
  146SAPE  H18X16164   7.538   4.453   8.710  0.5645 -3.5772  0.8875
  146SAPE  H18Y16165   7.447   4.582   8.808  0.0930  0.8618 -0.9479
  146SAPE  H18Z16166   7.364   4.433   8.743  1.3549 -1.0027  0.3731
  147SAPE     N16167   0.849   0.452  11.229  0.2004  0.2920 -0.1602
  147SAPE   HN116168   0.792   0.437  11.143 -1.7356  1.0660  0.9613
  147SAPE   HN216169   0.773   0.446  11.299  0.3111 -2.1553 -0.2068
  147SAPE   HN316170   0.893   0.546  11.224  0.4179  0.1166 -2.1076
  147SAPE   C1216171   0.949   0.344  11.240  0.0928 -0.3045 -0.4686
  147SAPE  H12A16172   0.899   0.250  11.207 -0.5425  0.2204 -1.0170
  147SAPE  H12B16173   0.993   0.324  11.340  0.6386  0.6051 -0.5280
  147SAPE   C1116174   1.072   0.355  11.147  0.0916 -0.3232  0.3212
  147SAPE  H11A16175   1.123   0.256  11.151 -2.5732 -1.8213 -1.2830
  147SAPE  H11B16176   1.137   0.435  11.188  0.0706 -0.1195 -0.0480
  147SAPE     P16177   1.043   0.250  10.910 -0.3011  0.3157  0.1028
  147SAPE   O1316178   0.973   0.147  10.990 -0.1671  0.0382 -0.1570
  147SAPE   O1416179   0.992   0.292  10.781  0.3205 -0.3075  0.5019
  147SAPE   O1216180   1.043   0.386  11.006 -0.3127  0.2791  0.3193
  147SAPE   O1116181   1.190   0.188  10.889 -0.0808 -1.0996  0.2340
  147SAPE    C116182   1.295   0.254  10.813 -0.9840  0.2192 -0.5937
  147SAPE    HA16183   1.287   0.363  10.798  1.3710  0.5871  0.5295
  147SAPE    HB16184   1.385   0.245  10.877  0.2201  0.9140 -2.1831
  147SAPE    C216185   1.337   0.181  10.682 -0.4986  0.0350  0.1217
  147SAPE    HS16186   1.446   0.195  10.662 -0.2286  1.5999  2.5079
  147SAPE   O2116187   1.260   0.227  10.575  1.0139  0.3611 -0.0604
  147SAPE   C2116188   1.312   0.332  10.514 -0.3700 -0.9182 -0.5889
  147SAPE   O2216189   1.415   0.384  10.552 -0.3086  0.0836  0.6971
  147SAPE   C2216190   1.235   0.379  10.391 -0.7030 -0.3424 -0.3727
  147SAPE   H2R16191   1.210   0.284  10.339  1.0241 -1.1026  0.1657
  147SAPE   H2S16192   1.133   0.403  10.428 -0.3200 -0.8135  1.0182
  147SAPE    C316193   1.320   0.025  10.707  0.0229 -0.0188 -0.3013
  147SAPE    HX16194   1.209   0.017  10.706  0.0589 -0.5278 -0.4316
  147SAPE    HY16195   1.367  -0.003  10.804 -0.4146 -1.3466 -0.4520
  147SAPE   O3116196   1.375  -0.055  10.597 -0.3276  0.3194 -0.7433
  147SAPE   C3116197   1.294  -0.083  10.497 -1.1667 -0.9130  0.3588
  147SAPE   O3216198   1.178  -0.048  10.492  0.0100 -0.2196 -0.6614
  147SAPE   C3216199   1.369  -0.173  10.396  0.3102  0.2114  0.1437
  147SAPE   H2X16200   1.354  -0.279  10.427 -1.9366  0.3324 -0.4665
  147SAPE   H2Y16201   1.479  -0.164  10.407  0.2048 -0.0808  1.5609
  147SAPE   C2316202   1.312   0.473  10.301 -0.7661  0.8974 -0.0926
  147SAPE   H3R16203   1.398   0.416  10.261 -1.3097 -1.0074  1.3970
  147SAPE   H3S16204   1.339   0.564  10.359  0.3410  1.2899 -1.1890
  147SAPE   C2416205   1.223   0.515  10.182 -0.6369 -0.5142 -0.6787
  147SAPE   H4R16206   1.154   0.591  10.224 -0.1535  0.7119 -2.0929
  147SAPE   H4S16207   1.159   0.432  10.144 -1.4515  0.2749 -1.0486
  147SAPE   C2516208   1.304   0.568  10.067  0.7407 -0.1149 -0.2039
  147SAPE   H5R16209   1.294   0.677  10.063 -0.3597 -0.2505 -1.4327
  147SAPE   C2616210   1.365   0.502   9.973 -0.7360 -1.2790 -0.3336
  147SAPE   H6R16211   1.426   0.553   9.896 -0.2236 -0.1051  0.8393
  147SAPE   C2716212   1.373   0.353   9.964  0.2961 -0.9366  0.3922
  147SAPE   H7R16213   1.301   0.312   9.891  0.1031 -0.1866  0.1509
  147SAPE   H7S16214   1.349   0.297  10.057 -0.2121  0.0944  0.8979
  147SAPE   C2816215   1.511   0.312   9.911  0.9798  0.1531 -0.4304
  147SAPE   H8R16216   1.576   0.263   9.984  0.6177 -0.3165 -0.4243
  147SAPE   C2916217   1.552   0.310   9.784 -0.3649 -1.0148  0.6916
  147SAPE   H9R16218   1.660   0.306   9.768  0.3069  2.8434  3.4316
  147SAPE  C21016219   1.475   0.365   9.663 -0.3696 -0.3512  0.8609
  147SAPE  H10R16220   1.515   0.462   9.627  0.5312 -0.2233  2.1558
  147SAPE  H10S16221   1.366   0.377   9.679 -0.7763 -0.2736 -1.6925
  147SAPE  C21116222   1.494   0.255   9.562  0.2032  0.3615  0.3126
  147SAPE  H11R16223   1.449   0.157   9.584  1.1749 -0.5593 -1.6804
  147SAPE  C21216224   1.555   0.272   9.444  0.1000 -0.5299 -0.7577
  147SAPE  H12R16225   1.565   0.183   9.380 -0.0263  0.5226 -2.2475
  147SAPE  C21316226   1.609   0.398   9.378 -0.4049  0.3506 -0.6449
  147SAPE  H13R16227   1.705   0.367   9.332  1.0686 -0.5427  2.8521
  147SAPE  H13S16228   1.635   0.476   9.453 -0.6805  0.9626 -1.1838
  147SAPE  C21416229   1.506   0.452   9.287 -0.5509  0.1396 -0.7419
  147SAPE  H14R16230   1.404   0.419   9.313 -0.7492  2.2000  1.2175
  147SAPE  C21516231   1.521   0.523   9.174  0.3986 -0.1967  0.0028
  147SAPE  H15R16232   1.432   0.538   9.112  0.2566 -0.3751  0.1639
  147SAPE  C21616233   1.651   0.577   9.117  0.6935  0.1477 -0.1618
  147SAPE  H16R16234   1.731   0.550   9.189  0.6656 -0.8444 -0.4902
  147SAPE  H16S16235   1.630   0.686   9.104 -1.7442 -0.3487 -0.6692
  147SAPE  C21716236   1.680   0.511   8.979  0.9904  0.1853 -0.2687
  147SAPE  H17R16237   1.606   0.538   8.901  0.2072  0.9616  0.7135
  147SAPE  H17S16238   1.705   0.404   8.992  2.4248  0.3291 -1.7249
  147SAPE  C21816239   1.811   0.577   8.916  0.7053  0.0210  0.6703
  147SAPE  H18R16240   1.904   0.545   8.969 -0.1138 -0.2017  2.0111
  147SAPE  H18S16241   1.798   0.687   8.916 -0.7598 -0.1325 -0.7135
  147SAPE  C21916242   1.833   0.525   8.770 -0.1265 -0.9244  0.3551
  147SAPE  H19R16243   1.738   0.504   8.716  0.1232 -1.0029 -0.0616
  147SAPE  H19S16244   1.875   0.423   8.784  0.1371 -0.8697 -0.0108
  147SAPE  C22016245   1.923   0.615   8.689  0.1952 -0.1571 -0.1373
  147SAPE  H20R16246   1.937   0.589   8.582 -1.0627 -0.1541 -0.3114
  147SAPE  H20S16247   2.028   0.621   8.726  0.1068  1.8891 -0.1489
  147SAPE  H20T16248   1.882   0.718   8.689 -0.7575 -0.5285 -0.0240
  147SAPE   C3316249   1.333  -0.154  10.248 -0.0257 -0.3582 -0.2058
  147SAPE   H3X16250   1.223  -0.139  10.249 -0.0007 -0.2081  0.0970
  147SAPE   H3Y16251   1.359  -0.250  10.199 -1.0695  0.2753 -2.0767
  147SAPE   C3416252   1.414  -0.041  10.190  0.0706 -0.3976  0.2589
  147SAPE   H4X16253   1.519  -0.043  10.227  0.4088 -2.3276 -0.7438
  147SAPE   H4Y16254   1.377   0.060  10.219  1.2863  0.4869 -1.1353
  147SAPE   C3516255   1.397  -0.056  10.034 -0.8229  0.6398  0.6249
  147SAPE   H5X16256   1.413  -0.163  10.008  0.4205  0.9667 -0.0536
  147SAPE   H5Y16257   1.467   0.010   9.977  2.4099 -1.9071  1.4431
  147SAPE   C3616258   1.259  -0.022   9.987 -0.3704 -0.2482 -0.0051
  147SAPE   H6X16259   1.257   0.088   9.970 -3.4183 -0.2525  0.2084
  147SAPE   H6Y16260   1.185  -0.045  10.066 -1.6398  0.4363 -0.9652
  147SAPE   C3716261   1.197  -0.101   9.869 -0.3466  0.3943  0.0554
  147SAPE   H7X16262   1.086  -0.106   9.878 -0.1816 -4.1757  0.9186
  147SAPE   H7Y16263   1.224  -0.208   9.886 -2.4390 -0.0087  1.0833
  147SAPE   C3816264   1.248  -0.058   9.726 -0.5366  0.4344 -0.5599
  147SAPE   H8X16265   1.359  -0.066   9.726 -0.5874 -0.5106  0.3513
  147SAPE   H8Y16266   1.217   0.045   9.698  1.4473  1.2053  0.0051
  147SAPE   C3916267   1.214  -0.159   9.618 -0.6884 -0.2732  0.4438
  147SAPE   H9X16268   1.162  -0.242   9.671 -0.7474 -1.5022 -1.5008
  147SAPE   H9Y16269   1.311  -0.199   9.582 -0.6863  0.5029 -0.4233
  147SAPE  C31016270   1.125  -0.113   9.503 -0.1730 -0.4956  0.2747
  147SAPE  H10X16271   1.035  -0.062   9.543  1.6688  0.6194  3.1599
  147SAPE  H10Y16272   1.108  -0.206   9.446 -1.0179 -2.0953  3.0617
  147SAPE  C31116273   1.196  -0.008   9.411  0.4462 -0.6237 -0.4256
  147SAPE  H11X16274   1.249   0.067   9.473  1.7603  1.1553 -3.5933
  147SAPE  H11Y16275   1.127   0.046   9.344  1.4461  1.6632  0.3560
  147SAPE  C31216276   1.296  -0.069   9.315  0.0292 -0.3680  0.0768
  147SAPE  H12X16277   1.244  -0.144   9.252 -0.8016  0.7214 -0.5557
  147SAPE  H12Y16278   1.379  -0.115   9.373  0.1326 -1.3222 -0.8194
  147SAPE  C31316279   1.351   0.043   9.217 -0.8596  0.2620  0.0827
  147SAPE  H13X16280   1.372   0.137   9.273 -3.1681 -0.8644  2.9718
  147SAPE  H13Y16281   1.263   0.067   9.153 -1.4555 -1.8381  0.1035
  147SAPE  C31416282   1.465  -0.008   9.125  0.2550 -0.2252  0.0324
  147SAPE  H14X16283   1.424  -0.088   9.060  0.0949 -0.6212  0.6061
  147SAPE  H14Y16284   1.547  -0.045   9.191  1.0787 -0.4183 -1.0842
  147SAPE  C31516285   1.527   0.103   9.040 -0.2048 -0.4560  0.3898
  147SAPE  H15X16286   1.624   0.081   8.990 -0.9090 -2.7668 -0.0290
  147SAPE  H15Y16287   1.537   0.198   9.097 -0.9461 -0.2625  0.1955
  147SAPE  C31616288   1.432   0.137   8.920  0.3396  0.1543 -0.5665
  147SAPE  H16X16289   1.337   0.177   8.962 -0.7849 -2.6205 -0.4150
  147SAPE  H16Y16290   1.406   0.059   8.845 -0.0281 -0.2327 -0.0394
  147SAPE  C31716291   1.504   0.248   8.831  0.4033 -0.2077 -0.1501
  147SAPE  H17X16292   1.608   0.215   8.813  0.0262 -2.1014  0.9611
  147SAPE  H17Y16293   1.525   0.343   8.887 -0.0719 -1.2126  1.7883
  147SAPE  C31816294   1.430   0.280   8.705 -0.0036 -0.7541 -0.8282
  147SAPE  H18X16295   1.336   0.336   8.727  0.7556 -0.7412  2.7440
  147SAPE  H18Y16296   1.411   0.186   8.650 -0.5861 -2.0075  1.4234
  147SAPE  H18Z16297   1.500   0.340   8.644  0.5075 -0.9773 -0.4627
  148SAPE     N16298   3.079   2.213  10.541 -0.0423  0.8061 -0.3244
  148SAPE   HN116299   3.035   2.156  10.466  2.4248 -0.4623 -0.8767
  148SAPE   HN216300   3.078   2.309  10.501  2.9242  0.0279 -2.4525
  148SAPE   HN316301   3.176   2.179  10.556 -0.8566 -1.8159 -0.8232
  148SAPE   C1216302   2.999   2.219  10.663  0.1748 -0.4837  0.0866
  148SAPE  H12A16303   3.059   2.248  10.752  1.5478  0.8049 -1.2332
  148SAPE  H12B16304   2.959   2.116  10.672  1.5703 -1.0140  0.3265
  148SAPE   C1116305   2.886   2.321  10.646 -0.1097  0.1886 -0.3282
  148SAPE  H11A16306   2.926   2.419  10.612 -0.9007  0.4813 -0.4266
  148SAPE  H11B16307   2.844   2.350  10.745  0.8124  1.1342 -0.2098
  148SAPE     P16308   2.677   2.162  10.598  0.1204  0.2367 -0.2550
  148SAPE   O1316309   2.740   2.029  10.579  0.3664 -0.2419 -0.2769
  148SAPE   O1416310   2.622   2.196  10.733 -0.2725  0.3586  0.2201
  148SAPE   O1216311   2.781   2.275  10.552 -0.4941 -0.4120  0.0435
  148SAPE   O1116312   2.566   2.187  10.496  0.4487 -0.1504  0.3228
  148SAPE    C116313   2.588   2.177  10.356  0.1256  0.2759  0.5899
  148SAPE    HA16314   2.507   2.231  10.303  1.9017  0.0998 -2.3807
  148SAPE    HB16315   2.688   2.222  10.336 -0.2441  1.3827  1.1607
  148SAPE    C216316   2.574   2.034  10.308 -0.8009 -0.0105 -0.0889
  148SAPE    HS16317   2.656   1.974  10.353 -0.4302  0.3972 -0.2119
  148SAPE   O2116318   2.570   2.025  10.161  0.8862  0.0681  0.6966
  148SAPE   C2116319   2.679   2.016  10.090 -1.0113 -0.1109  0.1475
  148SAPE   O2216320   2.794   2.011  10.135  0.2873 -0.2130 -0.7539
  148SAPE   C2216321   2.642   2.010   9.947 -0.1548  1.0128  0.2285
  148SAPE   H2R16322   2.567   1.929   9.931 -1.5173  1.9689  1.6340
  148SAPE   H2S16323   2.594   2.110   9.937  1.0360  1.4717 -0.9955
  148SAPE    C316324   2.442   1.964  10.348 -0.6759  1.1939  0.3443
  148SAPE    HX16325   2.353   2.020  10.312 -2.1219 -1.2094  0.0247
  148SAPE    HY16326   2.419   1.945  10.455  0.7395 -1.2018  0.2631
  148SAPE   O3116327   2.438   1.830  10.288  0.2212  0.4409  0.1720
  148SAPE   C3116328   2.325   1.760  10.305  0.3639  0.8822  0.0282
  148SAPE   O3216329   2.232   1.799  10.372  0.5656  0.2082  0.8038
  148SAPE   C3216330   2.341   1.628  10.222  0.1935 -0.1007 -0.3519
  148SAPE   H2X16331   2.288   1.553  10.284  0.3744  1.9221  2.3469
  148SAPE   H2Y16332   2.451   1.610  10.224  0.8519  3.5360 -0.3619
  148SAPE   C2316333   2.755   1.992   9.847 -0.1098  0.2511 -0.5735
  148SAPE   H3R16334   2.771   1.883   9.827  0.7260  0.3571 -0.5041
  148SAPE   H3S16335   2.851   2.025   9.891  0.6111 -0.6578 -1.4174
  148SAPE   C2416336   2.736   2.065   9.712  0.1029  0.9237 -0.3818
  148SAPE   H4R16337   2.838   2.060   9.668  0.0189 -0.0913 -0.4533
  148SAPE   H4S16338   2.714   2.174   9.719  1.3284  1.0020  3.2279
  148SAPE   C2516339   2.658   1.994   9.608  0.2151  0.0731 -0.0221
  148SAPE   H5R16340   2.583   1.922   9.643 -1.9582  2.1526 -0.2975
  148SAPE   C2616341   2.665   2.009   9.479  0.6336 -0.2385  0.3155
  148SAPE   H6R16342   2.594   1.954   9.416  0.2974  0.3270  0.1904
  148SAPE   C2716343   2.758   2.095   9.392  0.0611  0.2089 -0.7743
  148SAPE   H7R16344   2.822   2.157   9.459  0.3544 -0.6969 -0.2067
  148SAPE   H7S16345   2.703   2.167   9.328 -0.5282  1.4545  1.0989
  148SAPE   C2816346   2.852   2.025   9.296  0.0598 -0.2801  0.5029
  148SAPE   H8R16347   2.953   2.003   9.335  1.9373  0.3181 -3.7986
  148SAPE   C2916348   2.816   1.970   9.178  0.0557  0.6070  0.1473
  148SAPE   H9R16349   2.895   1.913   9.127  0.3624  0.2903  0.9704
  148SAPE  C21016350   2.682   1.981   9.113 -0.0508 -0.3508 -0.2793
  148SAPE  H10R16351   2.613   2.004   9.198  1.5523  1.5740  0.5346
  148SAPE  H10S16352   2.655   1.880   9.076 -0.4788 -0.1720 -0.4607
  148SAPE  C21116353   2.672   2.082   8.996  0.3466 -0.7562 -0.0361
  148SAPE  H11R16354   2.658   2.183   9.037 -0.7396 -1.5788  1.6996
  148SAPE  C21216355   2.657   2.049   8.868  0.1067  0.4253 -0.0736
  148SAPE  H12R16356   2.649   2.132   8.796  1.4693  0.6414  0.0063
  148SAPE  C21316357   2.659   1.913   8.805  0.4118  0.4955 -0.0240
  148SAPE  H13R16358   2.559   1.907   8.757  0.0751 -0.2650  0.7537
  148SAPE  H13S16359   2.643   1.843   8.890 -1.5182  1.7558  0.6752
  148SAPE  C21416360   2.778   1.871   8.722 -0.4700 -0.2253 -0.2552
  148SAPE  H14R16361   2.874   1.852   8.772  0.2623 -0.9688 -1.9108
  148SAPE  C21516362   2.781   1.859   8.594  0.2306  0.3668 -0.7592
  148SAPE  H15R16363   2.872   1.824   8.543  0.9424  0.0086  0.7119
  148SAPE  C21616364   2.660   1.871   8.509 -0.0871 -0.0459  0.8068
  148SAPE  H16R16365   2.598   1.959   8.537 -1.8789 -1.3447  1.0146
  148SAPE  H16S16366   2.601   1.777   8.517  0.2026 -0.0312  3.2228
  148SAPE  C21716367   2.704   1.900   8.366  0.2796 -0.2937  0.5164
  148SAPE  H17R16368   2.701   1.811   8.299  0.6118  1.2418 -1.5753
  148SAPE  H17S16369   2.807   1.940   8.354  0.3917 -0.4137  1.0577
  148SAPE  C21816370   2.609   1.997   8.305 -0.9534 -0.3609 -0.6037
  148SAPE  H18R16371   2.626   2.090   8.363 -0.6514  0.0042 -1.2739
  148SAPE  H18S16372   2.500   1.976   8.311 -1.0066 -0.2647 -1.2603
  148SAPE  C21916373   2.632   2.047   8.161  0.4564  0.4572 -0.2743
  148SAPE  H19R16374   2.736   2.016   8.138  1.3517  0.2531  3.6020
  148SAPE  H19S16375   2.634   2.158   8.149 -1.4082  0.5683  0.2987
  148SAPE  C22016376   2.539   1.994   8.054  1.2573 -0.1756  0.1365
  148SAPE  H20R16377   2.544   2.059   7.964  0.1306 -0.3858 -0.0857
  148SAPE  H20S16378   2.435   1.987   8.094  2.0378 -1.1766  2.0399
  148SAPE  H20T16379   2.574   1.895   8.017 -2.1724 -0.0018 -3.9305
  148SAPE   C3316380   2.282   1.630  10.084 -0.1113 -0.7518  1.1073
  148SAPE   H3X16381   2.205   1.708  10.065 -0.1250 -0.3517  2.7657
  148SAPE   H3Y16382   2.243   1.530  10.058  1.0022 -0.6716 -0.9963
  148SAPE   C3416383   2.393   1.658   9.981 -0.3244 -0.2285 -0.1516
  148SAPE   H4X16384   2.485   1.604  10.013  0.8587 -0.4809 -3.7779
  148SAPE   H4Y16385   2.405   1.768   9.973 -1.7084  0.1358  2.1333
  148SAPE   C3516386   2.337   1.626   9.839  0.5628 -0.1391 -0.1035
  148SAPE   H5X16387   2.257   1.698   9.810  0.8937 -0.0230 -0.7107
  148SAPE   H5Y16388   2.295   1.524   9.832 -2.6336  1.1149 -0.3783
  148SAPE   C3616389   2.444   1.643   9.732  0.4951  0.0748  0.2319
  148SAPE   H6X16390   2.525   1.570   9.753 -0.1055 -0.2932  1.2864
  148SAPE   H6Y16391   2.487   1.746   9.732 -1.0455  0.7524 -1.1672
  148SAPE   C3716392   2.384   1.626   9.593  0.1180  0.3303 -0.3301
  148SAPE   H7X16393   2.306   1.703   9.576  2.3317  2.7953  0.2278
  148SAPE   H7Y16394   2.348   1.522   9.580 -0.3972  0.5008 -0.2692
  148SAPE   C3816395   2.502   1.655   9.497 -0.0949 -0.0533 -0.6342
  148SAPE   H8X16396   2.573   1.571   9.515  1.6866  1.7325  0.8666
  148SAPE   H8Y16397   2.552   1.755   9.497 -0.6969  0.2531  0.4369
  148SAPE   C3916398   2.461   1.646   9.349 -0.0685 -0.3375 -0.5986
  148SAPE   H9X16399   2.409   1.740   9.322  2.1257  0.9455 -0.5440
  148SAPE   H9Y16400   2.392   1.561   9.336  0.0047 -0.2836 -1.3405
  148SAPE  C31016401   2.583   1.631   9.254  0.0591 -0.5568  0.4779
  148SAPE  H10X16402   2.660   1.557   9.285  0.7456  1.3306  3.5703
  148SAPE  H10Y16403   2.641   1.726   9.251  1.3478 -1.1641  3.9861
  148SAPE  C31116404   2.539   1.607   9.110  0.2179  0.2496  0.4620
  148SAPE  H11X16405   2.482   1.692   9.068 -1.1785 -1.2978 -0.8682
  148SAPE  H11Y16406   2.465   1.524   9.115 -1.6294  1.8907  1.0210
  148SAPE  C31216407   2.653   1.586   9.009 -0.6806 -0.3951  0.4735
  148SAPE  H12X16408   2.714   1.497   9.035 -0.2778 -0.0312  0.7938
  148SAPE  H12Y16409   2.719   1.676   9.003 -2.9669  1.3347  0.5493
  148SAPE  C31316410   2.611   1.540   8.873  0.5970  0.0269 -0.5822
  148SAPE  H13X16411   2.546   1.613   8.820  2.1714  1.4370 -0.5876
  148SAPE  H13Y16412   2.545   1.452   8.891  0.4724 -0.0207 -1.2758
  148SAPE  C31416413   2.723   1.503   8.770 -0.0334 -0.9245  0.9078
  148SAPE  H14X16414   2.782   1.414   8.798  2.6623  1.0829  1.8169
  148SAPE  H14Y16415   2.790   1.591   8.767 -0.0552 -0.9460 -0.9104
  148SAPE  C31516416   2.652   1.476   8.633  0.6952 -0.4023  0.2699
  148SAPE  H15X16417   2.575   1.552   8.611 -0.0202 -0.9424  0.8602
  148SAPE  H15Y16418   2.598   1.381   8.652  0.5184 -0.1856  0.8778
  148SAPE  C31616419   2.751   1.473   8.509 -0.3115  0.3455  0.3473
  148SAPE  H16X16420   2.842   1.427   8.553  1.4109  2.1897 -1.1410
  148SAPE  H16Y16421   2.777   1.577   8.482 -0.0667 -0.1817 -1.5674
  148SAPE  C31716422   2.712   1.382   8.392  0.1712 -0.0674  0.1059
  148SAPE  H17X16423   2.684   1.288   8.444 -1.1557  1.6027  2.5586
  148SAPE  H17Y16424   2.811   1.365   8.345  0.4014 -0.8317  0.8610
  148SAPE  C31816425   2.600   1.439   8.300  0.8199 -0.2329  0.2491
  148SAPE  H18X16426   2.582   1.377   8.210  1.4396 -0.2005  0.1022
  148SAPE  H18Y16427   2.607   1.542   8.258  1.3244 -0.4131 -0.1108
  148SAPE  H18Z16428   2.504   1.443   8.355  1.6624  0.1874  1.7172
  149SAPE     N16429   5.376   4.609  11.062  0.1679 -0.0093 -0.0572
  149SAPE   HN116430   5.368   4.684  11.134 -1.4701 -1.3613  1.2301
  149SAPE   HN216431   5.375   4.517  11.109  1.3998 -0.7634 -1.4930
  149SAPE   HN316432   5.465   4.616  11.009  0.2386 -1.6024 -0.1583
  149SAPE   C1216433   5.257   4.623  10.980  0.0484  0.0767 -0.3361
  149SAPE  H12A16434   5.265   4.716  10.919 -0.8444  1.0167  0.9414
  149SAPE  H12B16435   5.167   4.643  11.042  0.3118 -1.5610  0.5893
  149SAPE   C1116436   5.231   4.506  10.884  0.7053 -0.3163 -0.0943
  149SAPE  H11A16437   5.331   4.473  10.848 -0.5268 -3.3334 -0.8408
  149SAPE  H11B16438   5.181   4.549  10.795 -0.9668  1.0000  1.4398
  149SAPE     P16439   5.008   4.379  10.941 -0.4992  0.0039  0.0579
  149SAPE   O1316440   4.975   4.278  11.048  0.1453 -0.0551 -0.0090
  149SAPE   O1416441   4.942   4.509  10.957 -0.0101  0.0886  0.0444
  149SAPE   O1216442   5.165   4.397  10.948  0.2890 -0.7554 -0.1302
  149SAPE   O1116443   4.983   4.326  10.798  0.6039  0.3481  0.0994
  149SAPE    C116444   5.053   4.206  10.755 -0.0502 -0.4769  0.1854
  149SAPE    HA16445   5.151   4.236  10.711 -0.2230  1.4212  1.0625
  149SAPE    HB16446   5.062   4.128  10.833  0.2064 -1.1385 -0.4972
  149SAPE    C216447   4.972   4.141  10.636  0.9172 -0.5364  0.2676
  149SAPE    HS16448   5.020   4.043  10.615  2.9585  0.6777 -0.9834
  149SAPE   O2116449   4.961   4.223  10.519  0.7491 -0.1533 -0.5920
  149SAPE   C2116450   5.063   4.218  10.444  0.6060  0.4239 -0.2395
  149SAPE   O2216451   5.166   4.153  10.465  0.1753 -0.1164  0.2079
  149SAPE   C2216452   5.039   4.300  10.308  0.2271  0.2917  0.5799
  149SAPE   H2R16453   4.938   4.348  10.306  0.6585  1.1495 -1.4695
  149SAPE   H2S16454   5.107   4.388  10.313 -0.7435  1.0733  0.1823
  149SAPE    C316455   4.823   4.101  10.680  0.9628 -0.0309 -0.1230
  149SAPE    HX16456   4.762   4.193  10.688  1.0127  0.0050 -0.1662
  149SAPE    HY16457   4.839   4.049  10.776 -1.6113 -1.1486 -0.2563
  149SAPE   O3116458   4.756   4.011  10.585 -0.2844 -0.2703  0.7512
  149SAPE   C3116459   4.692   4.064  10.478 -0.2554  0.1187  0.6224
  149SAPE   O3216460   4.684   4.184  10.450  0.0782  0.8138 -0.8964
  149SAPE   C3216461   4.632   3.948  10.395 -0.3810 -0.6305  0.4535
  149SAPE   H2X16462   4.523   3.953  10.410 -0.0697  1.3999  2.2463
  149SAPE   H2Y16463   4.657   3.852  10.444  0.7265 -0.1025  0.9463
  149SAPE   C2316464   5.053   4.192  10.196 -0.0051 -0.5362  0.0387
  149SAPE   H3R16465   4.990   4.101  10.209 -1.4509  0.3270 -0.7218
  149SAPE   H3S16466   5.159   4.161  10.184 -0.2525 -0.9060 -1.2132
  149SAPE   C2416467   5.010   4.249  10.057  0.7862 -0.9614 -0.4015
  149SAPE   H4R16468   5.061   4.187   9.979 -0.1494 -1.7633 -0.3908
  149SAPE   H4S16469   5.050   4.352  10.047 -1.6312 -0.2214 -3.0445
  149SAPE   C2516470   4.865   4.253  10.040  0.1525 -0.3730 -0.5942
  149SAPE   H5R16471   4.809   4.232  10.132 -0.5035  2.1529 -0.3711
  149SAPE   C2616472   4.796   4.293   9.924  0.4482 -0.3760 -0.0245
  149SAPE   H6R16473   4.686   4.299   9.924  0.4480 -0.2411 -1.2432
  149SAPE   C2716474   4.866   4.307   9.796 -0.2226 -0.2853  0.2506
  149SAPE   H7R16475   4.968   4.266   9.813  0.1491  0.9962  1.1940
  149SAPE   H7S16476   4.876   4.414   9.769 -0.1356  0.2272  2.2625
  149SAPE   C2816477   4.793   4.225   9.689 -0.7230  1.2432  0.4423
  149SAPE   H8R16478   4.815   4.117   9.689  3.0231  1.9166 -0.0853
  149SAPE   C2916479   4.706   4.280   9.605 -0.9488 -0.2068 -0.0166
  149SAPE   H9R16480   4.670   4.214   9.525  0.1612 -0.3070 -0.4414
  149SAPE  C21016481   4.659   4.425   9.599  0.7104 -0.0765  0.2231
  149SAPE  H10R16482   4.718   4.473   9.518  1.0189  1.9940  1.6449
  149SAPE  H10S16483   4.655   4.485   9.692 -0.4895  0.0244  0.1059
  149SAPE  C21116484   4.511   4.426   9.557  0.1747  0.1797  0.5238
  149SAPE  H11R16485   4.440   4.369   9.620  1.5602 -2.7717 -0.5076
  149SAPE  C21216486   4.455   4.483   9.448  0.7588 -0.3352 -0.3610
  149SAPE  H12R16487   4.346   4.484   9.438  0.9848 -0.5610 -3.4502
  149SAPE  C21316488   4.525   4.549   9.334 -0.1496  0.8225 -0.4826
  149SAPE  H13R16489   4.617   4.493   9.307  0.6150  1.5064  0.6203
  149SAPE  H13S16490   4.567   4.646   9.370 -1.4188  1.9049 -1.8540
  149SAPE  C21416491   4.451   4.564   9.211 -0.3900  0.5515 -0.6878
  149SAPE  H14R16492   4.394   4.474   9.185  0.4031  0.8017 -3.3790
  149SAPE  C21516493   4.430   4.670   9.136  0.1249 -0.6406  0.3208
  149SAPE  H15R16494   4.364   4.669   9.048  1.9093 -0.6666 -1.0731
  149SAPE  C21616495   4.481   4.811   9.159  0.0797 -0.1752  0.2649
  149SAPE  H16R16496   4.555   4.820   9.242  0.1446 -0.5038  0.2453
  149SAPE  H16S16497   4.401   4.872   9.205  1.1527  0.4399  1.3703
  149SAPE  C21716498   4.522   4.864   9.028  0.9776  0.4509  0.2001
  149SAPE  H17R16499   4.522   4.972   9.050 -0.2800  0.5064 -0.0096
  149SAPE  H17S16500   4.439   4.856   8.954  0.8455 -1.4270  0.5161
  149SAPE  C21816501   4.649   4.804   8.969  0.3056  0.6488  0.1130
  149SAPE  H18R16502   4.642   4.693   8.958 -0.2878  0.5910  1.0125
  149SAPE  H18S16503   4.729   4.816   9.046 -1.3559  0.0024  1.9728
  149SAPE  C21916504   4.687   4.856   8.825  0.1363  0.1742 -0.3637
  149SAPE  H19R16505   4.612   4.804   8.761  1.2081 -1.1396 -0.5781
  149SAPE  H19S16506   4.786   4.809   8.804  0.1142 -0.6448  1.2861
  149SAPE  C22016507   4.673   5.004   8.804  0.1696  0.2053 -0.3278
  149SAPE  H20R16508   4.700   5.042   8.703  2.7575  0.2141  0.3234
  149SAPE  H20S16509   4.747   5.054   8.870  0.7692  2.2872 -2.5117
  149SAPE  H20T16510   4.568   5.035   8.826 -0.9199 -1.6914 -2.6492
  149SAPE   C3316511   4.672   3.933  10.246  0.4090  0.3378 -0.2708
  149SAPE   H3X16512   4.698   3.828  10.220  1.4143  0.0764  1.7460
  149SAPE   H3Y16513   4.760   3.996  10.225  1.8832 -0.6344  2.7940
  149SAPE   C3416514   4.564   3.984  10.155  0.2792  0.0449 -0.2730
  149SAPE   H4X16515   4.561   4.093  10.175  1.9603 -0.1063  1.0123
  149SAPE   H4Y16516   4.468   3.943  10.193  1.1322 -1.5205  0.2420
  149SAPE   C3516517   4.576   3.950  10.006 -0.9311 -0.4016 -0.3421
  149SAPE   H5X16518   4.570   3.840   9.991 -1.5644 -0.7796  2.4783
  149SAPE   H5Y16519   4.674   3.988   9.970 -0.4407 -0.0399  1.3700
  149SAPE   C3616520   4.481   4.021   9.902  0.9937  0.0653  0.3594
  149SAPE   H6X16521   4.484   4.132   9.912 -1.3888  0.0999  0.7953
  149SAPE   H6Y16522   4.384   3.974   9.928  0.3236  1.9625  1.3680
  149SAPE   C3716523   4.515   3.987   9.756  0.1175 -0.1553  0.1919
  149SAPE   H7X16524   4.519   3.876   9.746 -1.5285 -0.1766 -0.3459
  149SAPE   H7Y16525   4.619   4.013   9.728  0.5640  0.8776  2.7383
  149SAPE   C3816526   4.420   4.038   9.648 -0.0203 -0.7793  1.1118
  149SAPE   H8X16527   4.405   4.147   9.660  0.6547 -0.5401 -0.0822
  149SAPE   H8Y16528   4.323   3.990   9.674 -1.0176  0.7675  0.3714
  149SAPE   C3916529   4.464   4.010   9.505 -0.0004  0.1921 -0.4479
  149SAPE   H9X16530   4.475   3.900   9.494  0.4339  0.1506  0.3775
  149SAPE   H9Y16531   4.569   4.046   9.504  1.4283 -3.7381 -0.9906
  149SAPE  C31016532   4.380   4.071   9.394  0.0793 -0.9286 -0.3360
  149SAPE  H10X16533   4.393   4.181   9.403 -0.0276 -0.8400 -1.2107
  149SAPE  H10Y16534   4.271   4.054   9.411 -0.0552 -0.1878 -0.4175
  149SAPE  C31116535   4.428   4.015   9.258  0.1474  0.4702  0.5873
  149SAPE  H11X16536   4.407   3.907   9.248 -0.4016  0.4696  1.6514
  149SAPE  H11Y16537   4.539   4.020   9.250  0.3165 -1.6000  1.2862
  149SAPE  C31216538   4.360   4.099   9.157  0.0973 -0.8148  0.2702
  149SAPE  H12X16539   4.377   4.208   9.171 -0.5306 -0.6518 -0.2242
  149SAPE  H12Y16540   4.253   4.071   9.146 -0.6833  0.8015  3.1946
  149SAPE  C31316541   4.420   4.078   9.009 -0.0595 -0.4150  0.7738
  149SAPE  H13X16542   4.436   3.973   8.977 -0.9399  0.0209 -1.1913
  149SAPE  H13Y16543   4.508   4.144   8.993 -2.8280  2.7552 -2.2908
  149SAPE  C31416544   4.312   4.125   8.899  0.7177 -0.3749 -0.2412
  149SAPE  H14X16545   4.277   4.222   8.938  1.7346  0.0519 -0.3803
  149SAPE  H14Y16546   4.231   4.050   8.882  0.3682 -0.0960  0.1971
  149SAPE  C31516547   4.374   4.152   8.764 -0.3599  0.5569 -0.2633
  149SAPE  H15X16548   4.421   4.055   8.736  1.3451  0.7893  1.6740
  149SAPE  H15Y16549   4.464   4.216   8.775 -0.8035  1.1905 -0.2890
  149SAPE  C31616550   4.289   4.191   8.642  0.0111  0.0646  0.2172
  149SAPE  H16X16551   4.341   4.196   8.544 -1.2579  0.7078 -0.4457
  149SAPE  H16Y16552   4.248   4.294   8.655 -3.5681 -1.1334 -0.9056
  149SAPE  C31716553   4.170   4.103   8.603  0.2126  0.0450  0.1926
  149SAPE  H17X16554   4.125   4.153   8.515  1.6826  0.2535 -0.4626
  149SAPE  H17Y16555   4.098   4.099   8.687 -0.4993  1.3171 -0.3366
  149SAPE  C31816556   4.213   3.959   8.595 -0.7105 -0.0162  0.0639
  149SAPE  H18X16557   4.246   3.920   8.693  3.2304 -0.9198 -1.5299
  149SAPE  H18Y16558   4.285   3.943   8.512 -0.4098 -3.0231  0.8582
  149SAPE  H18Z16559   4.123   3.907   8.556 -0.0943 -0.5386 -0.6810
  150SAPE     N16560   6.240   3.890  10.712  0.2903 -0.4539  0.4705
  150SAPE   HN116561   6.335   3.865  10.747  0.3458  1.4105  1.6905
  150SAPE   HN216562   6.213   3.809  10.651 -1.3763  1.1470 -0.9765
  150SAPE   HN316563   6.256   3.971  10.650  0.1891  1.3630  2.7641
  150SAPE   C1216564   6.137   3.925  10.814  0.1366  0.7345 -0.0620
  150SAPE  H12A16565   6.042   3.964  10.772 -1.1072 -1.7593  0.3167
  150SAPE  H12B16566   6.180   3.997  10.886  1.3768 -1.6745  1.6840
  150SAPE   C1116567   6.084   3.803  10.896  0.4465 -0.5610  0.4204
  150SAPE  H11A16568   6.028   3.730  10.834  0.1759  0.0679 -0.0838
  150SAPE  H11B16569   6.010   3.848  10.966  0.8597  0.9812 -0.1147
  150SAPE     P16570   6.245   3.602  10.970 -0.4154 -0.3547 -0.0134
  150SAPE   O1316571   6.375   3.585  11.045 -0.2512 -0.0569  0.1070
  150SAPE   O1416572   6.135   3.506  10.986 -0.3513  0.1390 -0.0191
  150SAPE   O1216573   6.187   3.745  10.985 -0.0483 -0.2775 -0.2381
  150SAPE   O1116574   6.270   3.604  10.817  0.7418 -0.5276  0.0048
  150SAPE    C116575   6.320   3.480  10.755 -0.0460  0.7176  0.2661
  150SAPE    HA16576   6.419   3.453  10.798  0.3529  2.7364  0.6966
  150SAPE    HB16577   6.239   3.406  10.768 -1.2803  1.8567 -0.8248
  150SAPE    C216578   6.334   3.498  10.598  0.2186  0.0643 -0.7484
  150SAPE    HS16579   6.370   3.603  10.590 -1.4177  0.8563  1.4903
  150SAPE   O2116580   6.209   3.469  10.535 -0.3353 -0.2320  0.0199
  150SAPE   C2116581   6.129   3.570  10.533  0.0025 -0.4782  0.5233
  150SAPE   O2216582   6.157   3.683  10.569 -0.4510  0.6142 -0.2682
  150SAPE   C2216583   5.996   3.534  10.467  0.7075 -0.1501  0.4225
  150SAPE   H2R16584   6.020   3.469  10.380 -2.3703  0.0552 -0.6613
  150SAPE   H2S16585   5.935   3.482  10.544 -0.5881  1.8230  0.7711
  150SAPE    C316586   6.444   3.402  10.549 -0.4831  0.2173 -0.1258
  150SAPE    HX16587   6.418   3.296  10.566  2.4939 -0.1301  2.6205
  150SAPE    HY16588   6.529   3.422  10.617  1.0532  0.1467 -1.9923
  150SAPE   O3116589   6.488   3.433  10.416  0.0699  0.5291  0.1931
  150SAPE   C3116590   6.440   3.364  10.319  1.6274  0.5805 -0.8514
  150SAPE   O3216591   6.359   3.277  10.332 -0.7138 -0.0896 -0.2344
  150SAPE   C3216592   6.500   3.404  10.189 -0.3372 -0.0588  0.0113
  150SAPE   H2X16593   6.476   3.340  10.102 -0.9975  0.6775 -0.3565
  150SAPE   H2Y16594   6.610   3.391  10.195 -0.3472 -2.4638 -3.6803
  150SAPE   C2316595   5.908   3.646  10.416 -0.7278 -0.2521 -0.3540
  150SAPE   H3R16596   5.901   3.727  10.492  2.5442 -0.7110  0.4951
  150SAPE   H3S16597   5.802   3.612  10.418 -0.0664 -2.4557 -1.3488
  150SAPE   C2416598   5.937   3.694  10.273 -0.2567 -1.0682 -0.3374
  150SAPE   H4R16599   5.879   3.786  10.254 -0.1612 -0.5612  1.7023
  150SAPE   H4S16600   5.915   3.611  10.203  1.6278 -0.2838 -1.9028
  150SAPE   C2516601   6.078   3.736  10.240  0.4516 -0.4072 -0.8292
  150SAPE   H5R16602   6.131   3.774  10.329  0.0641  0.2000 -0.8530
  150SAPE   C2616603   6.143   3.730  10.122  0.4441 -1.2387  0.1320
  150SAPE   H6R16604   6.247   3.762  10.113  0.6586 -1.7803  0.6509
  150SAPE   C2716605   6.083   3.677   9.994  0.2062 -0.8344 -0.0694
  150SAPE   H7R16606   6.133   3.736   9.915 -0.0706 -2.1427 -1.2505
  150SAPE   H7S16607   5.977   3.709   9.998 -0.2709 -2.4560  1.2169
  150SAPE   C2816608   6.092   3.531   9.982  0.1925 -0.1026 -0.4651
  150SAPE   H8R16609   6.084   3.479  10.079 -2.0830  1.5201  0.2766
  150SAPE   C2916610   6.112   3.458   9.871 -0.7033 -0.7358 -0.1016
  150SAPE   H9R16611   6.124   3.349   9.871  0.2867 -0.6281 -1.0477
  150SAPE  C21016612   6.124   3.526   9.731  0.5016 -0.2871 -0.2730
  150SAPE  H10R16613   6.168   3.625   9.754 -1.0306  0.2188  0.5586
  150SAPE  H10S16614   6.021   3.552   9.699  0.6971  1.9966  0.8969
  150SAPE  C21116615   6.223   3.456   9.645  0.1354  0.2869  0.4691
  150SAPE  H11R16616   6.304   3.400   9.694  1.2503  0.9213 -0.6325
  150SAPE  C21216617   6.244   3.457   9.507 -0.6277 -0.8577 -0.4872
  150SAPE  H12R16618   6.336   3.410   9.471  0.5034  1.8534 -1.2512
  150SAPE  C21316619   6.161   3.528   9.398 -0.0789 -0.2047 -0.6036
  150SAPE  H13R16620   6.233   3.570   9.325  0.8351 -1.4400 -0.4445
  150SAPE  H13S16621   6.116   3.622   9.437  0.7314  0.7030 -1.8227
  150SAPE  C21416622   6.054   3.447   9.343 -0.3343  0.1093 -0.5795
  150SAPE  H14R16623   5.956   3.466   9.390  1.4278 -0.2678  3.4382
  150SAPE  C21516624   6.052   3.350   9.249 -0.4822 -0.0501 -0.1629
  150SAPE  H15R16625   5.964   3.293   9.217 -1.1226  1.0812 -0.4280
  150SAPE  C21616626   6.184   3.315   9.176 -0.3337 -0.1265 -0.3260
  150SAPE  H16R16627   6.253   3.256   9.241  0.0412 -2.1225 -2.4879
  150SAPE  H16S16628   6.232   3.412   9.155 -0.2024 -0.6467 -2.5623
  150SAPE  C21716629   6.138   3.249   9.046  0.6833 -0.6103  0.1396
  150SAPE  H17R16630   6.087   3.153   9.069 -0.2129 -0.6529 -1.8994
  150SAPE  H17S16631   6.231   3.218   8.992  0.7531  1.0126 -0.7378
  150SAPE  C21816632   6.043   3.328   8.952 -0.2883 -0.5745 -0.0177
  150SAPE  H18R16633   6.093   3.421   8.915  1.2873 -1.5330 -0.3555
  150SAPE  H18S16634   5.947   3.338   9.006  0.6700 -1.5523  1.9296
  150SAPE  C21916635   5.988   3.262   8.824  0.6306 -0.4978  0.4721
  150SAPE  H19R16636   6.073   3.234   8.757  1.0750 -1.9114  1.5990
  150SAPE  H19S16637   5.920   3.336   8.776 -0.2165 -1.3404  0.3605
  150SAPE  C22016638   5.910   3.139   8.845  0.5164  0.6131 -0.7923
  150SAPE  H20R16639   5.977   3.064   8.893  2.1659  1.3627 -1.8544
  150SAPE  H20S16640   5.872   3.107   8.746 -1.7818  3.1268 -0.7967
  150SAPE  H20T16641   5.823   3.157   8.912  1.2194  1.8176 -0.1718
  150SAPE   C3316642   6.470   3.555  10.155 -0.5797 -0.0131  0.0612
  150SAPE   H3X16643   6.488   3.618  10.244 -0.1541 -0.4198  0.2649
  150SAPE   H3Y16644   6.365   3.562  10.120  0.3000  1.9132 -2.3692
  150SAPE   C3416645   6.557   3.613  10.047  0.9839 -0.3042  0.1330
  150SAPE   H4X16646   6.661   3.610  10.085  0.3520 -0.3401  1.9140
  150SAPE   H4Y16647   6.533   3.720  10.029  0.0237 -0.3649  1.0255
  150SAPE   C3516648   6.528   3.557   9.908 -0.5681 -0.1639 -0.6390
  150SAPE   H5X16649   6.425   3.585   9.877 -0.4423  0.7491 -0.2479
  150SAPE   H5Y16650   6.551   3.449   9.917 -1.0163 -0.2131 -0.0211
  150SAPE   C3616651   6.610   3.634   9.804 -0.8533 -0.2135 -0.0024
  150SAPE   H6X16652   6.715   3.599   9.812 -0.9318 -0.2187  1.0609
  150SAPE   H6Y16653   6.602   3.744   9.813  0.0305 -0.2093  0.8880
  150SAPE   C3716654   6.578   3.587   9.666  0.6056  0.9912  0.4300
  150SAPE   H7X16655   6.473   3.597   9.629  0.8467  1.9051 -0.0187
  150SAPE   H7Y16656   6.607   3.480   9.665  1.1390  1.1164  1.4993
  150SAPE   C3816657   6.672   3.651   9.556  0.7680  0.1529 -0.1866
  150SAPE   H8X16658   6.675   3.583   9.469 -0.0916  2.1895 -1.8309
  150SAPE   H8Y16659   6.775   3.653   9.600 -0.7123 -3.1346  3.8392
  150SAPE   C3916660   6.616   3.790   9.506 -0.5512  0.4953 -0.2530
  150SAPE   H9X16661   6.616   3.858   9.594  1.0536  0.7705 -0.4468
  150SAPE   H9Y16662   6.519   3.781   9.453  0.6126  1.1031 -2.5672
  150SAPE  C31016663   6.711   3.836   9.401 -0.2367  0.1070 -0.1801
  150SAPE  H10X16664   6.717   3.766   9.315 -0.6865  1.3501 -1.2326
  150SAPE  H10Y16665   6.812   3.848   9.446 -0.9971  0.5633  1.4269
  150SAPE  C31116666   6.676   3.986   9.348  0.6029  0.1925  0.0332
  150SAPE  H11X16667   6.737   4.001   9.257  0.3241 -0.8437 -0.3358
  150SAPE  H11Y16668   6.715   4.061   9.420 -0.4880  0.3442  0.4849
  150SAPE  C31216669   6.524   4.004   9.313 -0.1576 -0.5697 -0.2876
  150SAPE  H12X16670   6.511   4.112   9.290  2.0111 -0.1517  0.3334
  150SAPE  H12Y16671   6.474   3.982   9.410  1.0541  0.1574  0.5189
  150SAPE  C31316672   6.485   3.923   9.192 -0.5413  0.2657 -0.2944
  150SAPE  H13X16673   6.519   3.821   9.218 -2.1116  0.1090  1.2039
  150SAPE  H13Y16674   6.531   3.962   9.099  1.5121 -1.7475 -0.1406
  150SAPE  C31416675   6.328   3.908   9.187  0.3873 -0.2582  0.0260
  150SAPE  H14X16676   6.294   4.013   9.174  0.1212 -0.2080  1.0921
  150SAPE  H14Y16677   6.288   3.876   9.286  0.0980 -0.9337 -0.3016
  150SAPE  C31516678   6.275   3.824   9.066  0.3322  0.2571  0.3402
  150SAPE  H15X16679   6.314   3.720   9.062  1.6954  0.7697 -0.0031
  150SAPE  H15Y16680   6.303   3.862   8.965  1.4035 -1.9041 -0.1891
  150SAPE  C31616681   6.121   3.813   9.086  0.0600 -0.3473 -0.4102
  150SAPE  H16X16682   6.082   3.908   9.043 -0.0034  0.0224  0.4386
  150SAPE  H16Y16683   6.099   3.814   9.195  0.3460 -1.2749 -0.3428
  150SAPE  C31716684   6.055   3.698   9.011 -0.1485 -1.4798 -0.3558
  150SAPE  H17X16685   5.945   3.717   9.016  0.2484  0.7680  0.3927
  150SAPE  H17Y16686   6.087   3.611   9.073 -0.7267 -2.7589 -1.8238
  150SAPE  C31816687   6.089   3.679   8.863 -0.1086  0.5073  0.7876
  150SAPE  H18X16688   6.008   3.626   8.808  2.3439 -0.1361 -2.3860
  150SAPE  H18Y16689   6.183   3.622   8.846 -1.5955 -1.9425  0.5720
  150SAPE  H18Z16690   6.122   3.773   8.813  2.9966 -1.2972 -0.7551
  151SAPE     N16691   4.318   0.081  10.529 -0.0656 -0.1808  0.3752
  151SAPE   HN116692   4.240   0.088  10.460  0.1010 -2.0081 -0.0473
  151SAPE   HN216693   4.407   0.116  10.489 -1.2520 -0.8328 -3.0214
  151SAPE   HN316694   4.335  -0.022  10.536  1.2511 -0.1258 -1.7353
  151SAPE   C1216695   4.280   0.125  10.668 -0.6702  0.6245 -0.3609
  151SAPE  H12A16696   4.373   0.121  10.728 -0.0616  0.3274 -1.3067
  151SAPE  H12B16697   4.207   0.052  10.709 -1.3832  2.3968  1.5814
  151SAPE   C1116698   4.234   0.275  10.656 -0.3580  0.6872  0.1432
  151SAPE  H11A16699   4.224   0.330  10.753  0.5419  1.6063 -0.2712
  151SAPE  H11B16700   4.129   0.275  10.620 -0.3655  1.3622  0.1601
  151SAPE     P16701   4.291   0.487  10.511 -0.1124  0.5071 -0.1711
  151SAPE   O1316702   4.267   0.589  10.615 -0.3428  0.1629 -0.3158
  151SAPE   O1416703   4.398   0.512  10.410 -0.2020 -0.1946  0.1553
  151SAPE   O1216704   4.328   0.355  10.586 -0.0744  0.4746  0.4752
  151SAPE   O1116705   4.157   0.459  10.440  0.2008 -0.1430  0.1216
  151SAPE    C116706   4.158   0.397  10.308 -0.5152  0.7664 -0.1076
  151SAPE    HA16707   4.244   0.328  10.295 -0.5768  0.6623  0.0276
  151SAPE    HB16708   4.068   0.332  10.308 -0.8276  1.1881  0.4312
  151SAPE    C216709   4.147   0.499  10.196 -0.1670  0.0446  0.7700
  151SAPE    HS16710   4.236   0.566  10.201  1.0284 -1.5039  0.7543
  151SAPE   O2116711   4.026   0.571  10.222 -0.0632  0.3120  0.1539
  151SAPE   C2116712   4.019   0.696  10.181 -0.1760 -1.0692 -0.7126
  151SAPE   O2216713   4.113   0.766  10.141  0.3852 -0.4595  0.2496
  151SAPE   C2216714   3.878   0.744  10.196 -0.1124 -0.7137  0.5705
  151SAPE   H2R16715   3.800   0.665  10.204 -1.2688  0.3745  0.2339
  151SAPE   H2S16716   3.873   0.809  10.286  2.1383  0.7445 -0.3170
  151SAPE    C316717   4.125   0.433  10.053  0.4444  0.7195 -0.0882
  151SAPE    HX16718   4.023   0.389  10.054 -0.3925  2.5336 -1.4537
  151SAPE    HY16719   4.210   0.363  10.041 -0.1458 -0.1373  0.6316
  151SAPE   O3116720   4.109   0.533   9.949 -0.0007  0.0931  0.1950
  151SAPE   C3116721   4.209   0.540   9.855  0.3397  0.3021  0.0275
  151SAPE   O3216722   4.320   0.488   9.864 -0.1905  0.0725  0.3392
  151SAPE   C3216723   4.156   0.625   9.743  0.2984 -0.2177 -0.5159
  151SAPE   H2X16724   4.097   0.710   9.784 -0.9689 -1.6334  0.6813
  151SAPE   H2Y16725   4.081   0.574   9.680 -1.4778  1.2962  0.3244
  151SAPE   C2316726   3.840   0.840  10.083 -0.2500 -0.2192  0.2658
  151SAPE   H3R16727   3.913   0.922  10.064 -1.7777  1.2649  0.6701
  151SAPE   H3S16728   3.753   0.899  10.121 -1.2914 -2.0599  0.7766
  151SAPE   C2416729   3.805   0.771   9.949  0.4157 -0.3120 -0.1598
  151SAPE   H4R16730   3.739   0.684   9.967 -1.4889  0.7958 -1.5826
  151SAPE   H4S16731   3.897   0.723   9.909  0.0790 -2.0121  1.0732
  151SAPE   C2516732   3.728   0.863   9.860 -0.1945  0.0085 -0.1268
  151SAPE   H5R16733   3.650   0.925   9.908 -2.0290 -0.5013 -2.3457
  151SAPE   C2616734   3.737   0.866   9.725  1.0374  0.0650 -0.3704
  151SAPE   H6R16735   3.682   0.946   9.674 -2.2075 -2.2039 -0.6058
  151SAPE   C2716736   3.832   0.783   9.644 -0.3697 -0.4799 -0.0702
  151SAPE   H7R16737   3.877   0.700   9.704 -1.0778 -1.4230 -0.8264
  151SAPE   H7S16738   3.921   0.842   9.616 -2.0084  1.3958 -1.4296
  151SAPE   C2816739   3.792   0.725   9.510 -0.4101 -0.0041 -0.8005
  151SAPE   H8R16740   3.784   0.615   9.513 -1.6668  0.1025  1.6742
  151SAPE   C2916741   3.775   0.798   9.394 -0.3783 -0.0380 -0.8544
  151SAPE   H9R16742   3.735   0.752   9.302 -0.0555 -1.4772 -0.2838
  151SAPE  C21016743   3.791   0.944   9.389 -0.0043  0.5374 -0.0571
  151SAPE  H10R16744   3.790   0.998   9.486  0.3228 -0.8909  0.7519
  151SAPE  H10S16745   3.699   0.977   9.337 -0.1040  0.1972 -0.0937
  151SAPE  C21116746   3.908   0.991   9.308  0.2857 -0.1363  0.1641
  151SAPE  H11R16747   3.975   1.048   9.373 -1.5476  3.4276 -0.9271
  151SAPE  C21216748   3.936   0.986   9.176  0.1780  0.3682  0.0719
  151SAPE  H12R16749   4.027   1.040   9.144  0.1566  2.1476  2.7943
  151SAPE  C21316750   3.855   0.919   9.067  0.1850  0.0155 -0.0056
  151SAPE  H13R16751   3.822   0.999   8.997 -1.7422 -1.1897 -0.4851
  151SAPE  H13S16752   3.760   0.886   9.114  0.7804  0.3727  1.4993
  151SAPE  C21416753   3.927   0.797   9.009  0.9068  0.3230 -0.0080
  151SAPE  H14R16754   3.927   0.705   9.071 -1.2192  0.6677  0.5496
  151SAPE  C21516755   3.998   0.795   8.892 -0.5703 -0.3645 -0.6443
  151SAPE  H15R16756   4.032   0.705   8.838  2.3096 -0.6467  1.5362
  151SAPE  C21616757   4.024   0.918   8.800  0.0665 -0.6228 -0.3670
  151SAPE  H16R16758   3.984   1.015   8.837 -2.0528 -1.2730 -0.8895
  151SAPE  H16S16759   3.966   0.901   8.707 -1.0652 -0.2214  0.2504
  151SAPE  C21716760   4.171   0.938   8.763  0.4214  0.0364  0.2647
  151SAPE  H17R16761   4.206   0.845   8.711  0.4946 -1.0444  2.2018
  151SAPE  H17S16762   4.233   0.950   8.854 -1.9611  1.6833  1.7123
  151SAPE  C21816763   4.196   1.057   8.667  0.3401  0.0535  0.2159
  151SAPE  H18R16764   4.293   1.042   8.616  0.0704 -2.3574  0.3317
  151SAPE  H18S16765   4.200   1.151   8.726 -2.4601  0.1674  0.2970
  151SAPE  C21916766   4.108   1.064   8.551 -0.1565 -0.3237  0.1131
  151SAPE  H19R16767   4.005   1.096   8.579  0.5131  1.1727  0.9741
  151SAPE  H19S16768   4.093   0.961   8.514  1.0952 -1.1502  1.8272
  151SAPE  C22016769   4.164   1.138   8.422 -0.0540  0.1313  0.3305
  151SAPE  H20R16770   4.252   1.089   8.375 -1.9947 -0.7247 -2.5474
  151SAPE  H20S16771   4.196   1.239   8.454  1.3308 -0.2937  0.2996
  151SAPE  H20T16772   4.080   1.148   8.350 -1.2710  2.1578  1.9848
  151SAPE   C3316773   4.277   0.678   9.659  0.1235 -0.4020 -0.3666
  151SAPE   H3X16774   4.340   0.593   9.625  0.6733 -1.2760  2.6759
  151SAPE   H3Y16775   4.337   0.747   9.723 -1.0694  0.4849 -0.1749
  151SAPE   C3416776   4.238   0.743   9.529 -0.3218  0.2231  0.1837
  151SAPE   H4X16777   4.162   0.819   9.554  1.4420  1.5845  1.4991
  151SAPE   H4Y16778   4.176   0.673   9.469  0.4268  1.3069 -1.9105
  151SAPE   C3516779   4.363   0.800   9.463  0.4377  0.7442  0.0397
  151SAPE   H5X16780   4.436   0.716   9.462 -1.7819 -1.2599  1.0068
  151SAPE   H5Y16781   4.411   0.883   9.519 -0.8884  0.2988  1.8531
  151SAPE   C3616782   4.339   0.849   9.319  0.0277  0.5148  0.4311
  151SAPE   H6X16783   4.243   0.906   9.315  0.1466  0.7400  0.8265
  151SAPE   H6Y16784   4.312   0.762   9.255  0.8135  1.9690 -1.9653
  151SAPE   C3716785   4.458   0.915   9.252 -0.0380 -0.6160 -0.1316
  151SAPE   H7X16786   4.550   0.855   9.233  0.9887  0.5185  1.0825
  151SAPE   H7Y16787   4.494   0.999   9.316 -1.4397 -1.2469  1.5055
  151SAPE   C3816788   4.409   0.975   9.126 -0.0996 -0.5452 -0.5618
  151SAPE   H8X16789   4.312   1.023   9.152  0.1743 -0.1195 -0.3117
  151SAPE   H8Y16790   4.386   0.900   9.047 -0.8499  0.7881 -1.6321
  151SAPE   C3916791   4.498   1.086   9.071 -0.2961  0.0494  0.1669
  151SAPE   H9X16792   4.597   1.035   9.062 -0.1935  0.1005  0.9865
  151SAPE   H9Y16793   4.508   1.160   9.153 -1.3997  0.3966 -0.0039
  151SAPE  C31016794   4.444   1.151   8.953  0.1447 -0.0331  0.8423
  151SAPE  H10X16795   4.337   1.181   8.963 -0.8150 -2.0350 -2.3935
  151SAPE  H10Y16796   4.439   1.087   8.862 -1.4993 -2.2686  2.4467
  151SAPE  C31116797   4.521   1.280   8.919 -0.4842 -0.2083  0.1484
  151SAPE  H11X16798   4.625   1.254   8.892 -0.2653 -0.1439  0.9248
  151SAPE  H11Y16799   4.525   1.342   9.011 -0.7824 -0.3796  0.2784
  151SAPE  C31216800   4.453   1.370   8.809 -0.3446  0.7078 -0.8719
  151SAPE  H12X16801   4.352   1.402   8.841 -0.5928  0.5600 -1.4916
  151SAPE  H12Y16802   4.442   1.308   8.717 -4.2089 -0.1290  0.0838
  151SAPE  C31316803   4.528   1.497   8.770 -0.9719 -0.4909  0.1559
  151SAPE  H13X16804   4.589   1.537   8.853 -4.4251  0.9415  2.0877
  151SAPE  H13Y16805   4.452   1.575   8.753 -0.0558  0.2878 -0.3878
  151SAPE  C31416806   4.616   1.481   8.643 -0.0032 -0.1002  0.5089
  151SAPE  H14X16807   4.664   1.576   8.611  0.0468 -0.5893 -0.8620
  151SAPE  H14Y16808   4.553   1.453   8.556 -0.3295  1.2307  0.3060
  151SAPE  C31516809   4.729   1.365   8.652 -0.6508  0.3211  0.3885
  151SAPE  H15X16810   4.696   1.266   8.690 -2.4700 -0.4888 -3.0542
  151SAPE  H15Y16811   4.808   1.390   8.726  0.8156 -0.7266 -0.7841
  151SAPE  C31616812   4.790   1.333   8.514  0.6184  0.5434  0.0244
  151SAPE  H16X16813   4.840   1.423   8.473  1.8946 -0.1579  0.0189
  151SAPE  H16Y16814   4.695   1.305   8.463  1.0411  0.1351 -0.5325
  151SAPE  C31716815   4.885   1.221   8.514 -0.5061  0.1277  0.6358
  151SAPE  H17X16816   4.855   1.157   8.601  0.4003 -1.7794 -0.4281
  151SAPE  H17Y16817   4.986   1.262   8.532 -0.2297 -0.4250  0.3349
  151SAPE  C31816818   4.877   1.141   8.381 -0.8090 -0.7561 -0.7040
  151SAPE  H18X16819   4.887   1.214   8.298 -0.2166 -0.2054 -0.1525
  151SAPE  H18Y16820   4.771   1.113   8.368 -1.0210 -0.2551 -0.0509
  151SAPE  H18Z16821   4.950   1.057   8.380 -0.4161 -0.4151 -0.8514
  152SAPE     N16822   6.071   0.659  10.787  0.4240  0.5971  0.1585
  152SAPE   HN116823   6.155   0.702  10.830  1.3274  0.9466 -1.9053
  152SAPE   HN216824   6.002   0.734  10.769  1.8992  1.8687 -0.3233
  152SAPE   HN316825   6.039   0.598  10.865  1.7782  0.9967  1.0532
  152SAPE   C1216826   6.102   0.592  10.657 -0.0768 -0.0564 -0.3064
  152SAPE  H12A16827   6.197   0.536  10.668 -1.5446 -2.5322  0.2003
  152SAPE  H12B16828   6.121   0.674  10.586 -0.2914 -1.5732 -2.1528
  152SAPE   C1116829   5.980   0.513  10.606 -0.1577  0.0115 -0.2030
  152SAPE  H11A16830   6.010   0.478  10.505 -3.1674 -1.4428 -0.6655
  152SAPE  H11B16831   5.893   0.576  10.575  1.5370  2.3331 -0.3849
  152SAPE     P16832   6.019   0.267  10.689 -0.3452 -0.0131 -0.4206
  152SAPE   O1316833   6.165   0.295  10.691  0.1619 -0.3931  0.1078
  152SAPE   O1416834   5.973   0.182  10.807  0.2505  0.0381 -0.0794
  152SAPE   O1216835   5.942   0.405  10.694  0.2007  0.0707 -0.2583
  152SAPE   O1116836   5.968   0.205  10.554  0.5712 -0.0448 -0.3921
  152SAPE    C116837   5.829   0.204  10.523  0.3491 -0.1088 -0.3511
  152SAPE    HA16838   5.767   0.138  10.588  1.7159 -0.1872  0.9031
  152SAPE    HB16839   5.781   0.302  10.544  1.3123  0.2031  0.4683
  152SAPE    C216840   5.799   0.172  10.377  0.5116 -0.0018  0.0049
  152SAPE    HS16841   5.874   0.100  10.339  1.6298  0.7831  0.6742
  152SAPE   O2116842   5.811   0.301  10.307  0.3986 -0.2049  0.4462
  152SAPE   C2116843   5.880   0.300  10.199 -0.3503  0.1050 -0.1843
  152SAPE   O2216844   5.943   0.202  10.153 -0.2231 -0.3675  0.3175
  152SAPE   C2216845   5.913   0.441  10.154  0.5074  0.2442  0.6261
  152SAPE   H2R16846   5.822   0.504  10.154  0.2857 -0.0634 -0.7645
  152SAPE   H2S16847   5.980   0.484  10.232  2.0536 -0.5237 -0.2455
  152SAPE    C316848   5.662   0.107  10.349 -0.0277  0.4939  0.1588
  152SAPE    HX16849   5.589   0.185  10.380  1.4983  1.1187  2.3095
  152SAPE    HY16850   5.641   0.017  10.411 -0.2084 -0.5692 -1.4158
  152SAPE   O3116851   5.648   0.085  10.211  0.6618 -0.2256 -0.4581
  152SAPE   C3116852   5.703  -0.020  10.161  0.0983  0.1902 -0.3936
  152SAPE   O3216853   5.778  -0.103  10.216 -0.0774  0.0284 -0.3608
  152SAPE   C3216854   5.677   0.002  10.006  0.3107  0.0996 -0.2714
  152SAPE   H2X16855   5.746   0.083   9.973  0.4209 -1.1106 -3.1515
  152SAPE   H2Y16856   5.569   0.017   9.989  0.0597  1.1915  1.9717
  152SAPE   C2316857   5.986   0.448  10.017  0.3212 -0.5140 -0.8988
  152SAPE   H3R16858   6.062   0.368  10.009  1.8387  0.9329 -1.0101
  152SAPE   H3S16859   6.037   0.546  10.007  2.2553 -1.1253  2.1337
  152SAPE   C2416860   5.904   0.427   9.894  0.4710 -0.3553 -0.0165
  152SAPE   H4R16861   5.856   0.327   9.888 -0.1331 -0.0696 -0.0717
  152SAPE   H4S16862   5.974   0.426   9.808 -2.1579 -0.2224 -2.2383
  152SAPE   C2516863   5.786   0.520   9.877 -0.5191 -0.0531  0.1423
  152SAPE   H5R16864   5.737   0.550   9.971 -0.1528 -0.8758  0.6043
  152SAPE   C2616865   5.739   0.557   9.758 -0.2420 -0.1415 -0.5658
  152SAPE   H6R16866   5.656   0.629   9.754 -0.7075 -0.6983 -0.9692
  152SAPE   C2716867   5.792   0.530   9.621  0.1463 -0.8355  0.3197
  152SAPE   H7R16868   5.902   0.539   9.617 -0.0271  0.5414 -2.5577
  152SAPE   H7S16869   5.748   0.611   9.559  1.4433 -1.8700 -2.0097
  152SAPE   C2816870   5.755   0.397   9.564 -0.1778 -0.0379  0.5061
  152SAPE   H8R16871   5.753   0.312   9.634 -3.2140  0.6297  1.3234
  152SAPE   C2916872   5.729   0.376   9.433  0.3194  0.0251  0.5426
  152SAPE   H9R16873   5.703   0.274   9.400  1.7914 -0.4818  0.9417
  152SAPE  C21016874   5.728   0.481   9.326 -1.1457 -0.3922  0.4628
  152SAPE  H10R16875   5.786   0.434   9.245  0.5121 -2.0560  2.5399
  152SAPE  H10S16876   5.784   0.571   9.360 -0.1016 -0.2059 -1.6743
  152SAPE  C21116877   5.595   0.530   9.279  0.2694 -0.0818 -0.1451
  152SAPE  H11R16878   5.525   0.549   9.361 -0.1093 -1.0289 -0.2390
  152SAPE  C21216879   5.558   0.567   9.158  0.7827  0.4114  0.6752
  152SAPE  H12R16880   5.460   0.610   9.132  1.2178  0.8174 -0.3490
  152SAPE  C21316881   5.650   0.555   9.041  0.4531  0.4004 -0.0567
  152SAPE  H13R16882   5.644   0.449   9.008  0.2892 -0.3252  2.2520
  152SAPE  H13S16883   5.753   0.583   9.072 -0.2884  1.3173  1.6655
  152SAPE  C21416884   5.614   0.649   8.924  0.7333  0.3367  0.4474
  152SAPE  H14R16885   5.581   0.748   8.959 -0.2331  0.0852  0.2393
  152SAPE  C21516886   5.625   0.629   8.792 -0.3721  1.0508 -0.2330
  152SAPE  H15R16887   5.587   0.703   8.720 -0.2214 -1.2471 -2.7205
  152SAPE  C21616888   5.670   0.503   8.720  1.0247 -0.1664  0.2543
  152SAPE  H16R16889   5.581   0.441   8.698  0.4011  0.0950  1.9893
  152SAPE  H16S16890   5.741   0.430   8.765  2.2084  1.6966  1.4713
  152SAPE  C21716891   5.730   0.539   8.579 -0.1149 -0.7124 -0.2425
  152SAPE  H17R16892   5.834   0.571   8.604 -0.1750 -0.2313 -0.5879
  152SAPE  H17S16893   5.683   0.627   8.530  1.6120  0.8808  0.8565
  152SAPE  C21816894   5.750   0.420   8.495 -0.2265  0.5190 -0.1817
  152SAPE  H18R16895   5.663   0.406   8.426 -0.8879 -0.0553  0.7549
  152SAPE  H18S16896   5.774   0.334   8.561 -2.3369 -0.2536 -0.3685
  152SAPE  C21916897   5.869   0.446   8.396  0.1990  0.2096 -0.7024
  152SAPE  H19R16898   5.952   0.500   8.446 -1.1117  0.1184  1.6124
  152SAPE  H19S16899   5.837   0.509   8.310  0.7342 -0.8088 -1.6753
  152SAPE  C22016900   5.932   0.315   8.339 -0.1998  0.1576 -0.2585
  152SAPE  H20R16901   5.994   0.342   8.251  2.4003 -1.6925  0.9251
  152SAPE  H20S16902   5.855   0.247   8.297 -0.6597  1.1650 -1.0555
  152SAPE  H20T16903   6.002   0.260   8.407 -0.1747  1.3668  0.7140
  152SAPE   C3316904   5.729  -0.120   9.922  0.0636  0.2136  0.2837
  152SAPE   H3X16905   5.669  -0.210   9.946  0.6231 -0.2253  0.0392
  152SAPE   H3Y16906   5.837  -0.135   9.943  0.1262  1.4235  0.8298
  152SAPE   C3416907   5.706  -0.080   9.780 -0.7261  0.0131  0.1610
  152SAPE   H4X16908   5.754   0.016   9.752  0.4942 -0.5138  0.4299
  152SAPE   H4Y16909   5.598  -0.059   9.767 -0.2341  2.0398 -0.9413
  152SAPE   C3516910   5.743  -0.190   9.686  0.6531 -0.2731 -0.0047
  152SAPE   H5X16911   5.719  -0.292   9.721 -3.4915  0.5586 -0.2322
  152SAPE   H5Y16912   5.853  -0.196   9.667  0.3864 -0.2094 -1.6657
  152SAPE   C3616913   5.687  -0.157   9.553  0.1675 -0.2309  0.3438
  152SAPE   H6X16914   5.734  -0.066   9.512  0.3098 -0.6362 -0.3945
  152SAPE   H6Y16915   5.576  -0.146   9.555 -0.0227 -2.0144 -0.0634
  152SAPE   C3716916   5.721  -0.273   9.458  0.1522  0.0834 -0.8341
  152SAPE   H7X16917   5.642  -0.344   9.489  0.4519  0.9944  2.1562
  152SAPE   H7Y16918   5.822  -0.318   9.470 -0.0603 -1.0249 -2.9637
  152SAPE   C3816919   5.705  -0.240   9.308 -0.0514 -0.7463  0.7605
  152SAPE   H8X16920   5.792  -0.180   9.274  1.2395 -1.7065  2.3005
  152SAPE   H8Y16921   5.608  -0.186   9.303 -0.0160 -0.6473  1.1601
  152SAPE   C3916922   5.676  -0.367   9.214 -0.4580  0.0730 -0.9733
  152SAPE   H9X16923   5.593  -0.423   9.262  0.1037  0.5694  0.6187
  152SAPE   H9Y16924   5.770  -0.426   9.202 -0.6050 -0.5276  0.6688
  152SAPE  C31016925   5.629  -0.327   9.071  0.1329  0.4525 -0.0018
  152SAPE  H10X16926   5.711  -0.268   9.025  0.6598  0.9129  1.5128
  152SAPE  H10Y16927   5.543  -0.261   9.097 -2.8643 -3.6091  0.9743
  152SAPE  C31116928   5.594  -0.438   8.967  0.1919 -0.8059 -0.0484
  152SAPE  H11X16929   5.642  -0.532   9.003  1.1589  0.3093  1.6585
  152SAPE  H11Y16930   5.641  -0.419   8.869 -0.0541  1.7074  0.2991
  152SAPE  C31216931   5.440  -0.458   8.951  0.1938 -0.2985 -0.0420
  152SAPE  H12X16932   5.381  -0.365   8.942 -0.2164 -0.5518  0.0271
  152SAPE  H12Y16933   5.408  -0.527   9.031 -2.0839  0.8669  0.0904
  152SAPE  C31316934   5.413  -0.534   8.817 -0.3441 -0.5999  0.6116
  152SAPE  H13X16935   5.329  -0.606   8.830  0.1178 -1.2184  0.2066
  152SAPE  H13Y16936   5.496  -0.601   8.785 -0.2786  0.7243 -2.0545
  152SAPE  C31416937   5.374  -0.439   8.698 -0.0357 -0.3056  0.4499
  152SAPE  H14X16938   5.439  -0.349   8.701  0.3122 -0.5676  0.8022
  152SAPE  H14Y16939   5.275  -0.404   8.732  0.2917  2.3166 -1.1395
  152SAPE  C31516940   5.375  -0.517   8.563  0.4641  0.0118 -0.4799
  152SAPE  H15X16941   5.296  -0.593   8.578 -0.5947  0.4763 -3.4135
  152SAPE  H15Y16942   5.475  -0.564   8.557 -0.7511 -2.4258 -2.2842
  152SAPE  C31616943   5.329  -0.430   8.450  0.0594 -0.5234 -0.4119
  152SAPE  H16X16944   5.384  -0.334   8.455 -1.7824  0.5428 -0.4832
  152SAPE  H16Y16945   5.221  -0.407   8.464  0.5720  2.3894 -0.9222
  152SAPE  C31716946   5.355  -0.495   8.317 -0.5510 -0.2000 -0.5453
  152SAPE  H17X16947   5.452  -0.548   8.320  0.8703  2.3176 -0.7200
  152SAPE  H17Y16948   5.365  -0.423   8.233  1.2188  0.2650  0.0413
  152SAPE  C31816949   5.239  -0.594   8.273 -0.6543 -0.0723 -0.3949
  152SAPE  H18X16950   5.144  -0.537   8.281 -0.1854  0.7104 -0.2804
  152SAPE  H18Y16951   5.231  -0.681   8.341 -0.2289  0.4973  0.3949
  152SAPE  H18Z16952   5.244  -0.631   8.168 -0.1519  1.9074 -1.1095
  153SAPE     N16953   5.510   2.085  10.500 -0.2569 -0.6271  0.3990
  153SAPE   HN116954   5.463   2.053  10.587  2.1690  0.1000  2.0279
  153SAPE   HN216955   5.607   2.119  10.516 -1.1190  1.5033  1.1537
  153SAPE   HN316956   5.461   2.169  10.464  0.7900  0.1310  0.7147
  153SAPE   C1216957   5.502   1.989  10.381 -0.2899  0.0197 -0.0394
  153SAPE  H12A16958   5.590   1.922  10.381 -0.5356 -0.3226  1.8164
  153SAPE  H12B16959   5.493   2.054  10.291  1.2528  1.6447  0.9299
  153SAPE   C1116960   5.379   1.899  10.395 -0.1130  0.3677  0.3319
  153SAPE  H11A16961   5.365   1.831  10.308 -0.0355  2.7150 -1.5837
  153SAPE  H11B16962   5.295   1.973  10.395 -1.2935 -0.9172 -1.1769
  153SAPE     P16963   5.300   1.712  10.562 -0.0816  0.2402  0.1982
  153SAPE   O1316964   5.365   1.577  10.534  0.0437 -0.2779  0.0864
  153SAPE   O1416965   5.267   1.721  10.702 -0.5338  0.0427  0.4511
  153SAPE   O1216966   5.388   1.828  10.520 -0.4735  0.3710  0.1601
  153SAPE   O1116967   5.168   1.728  10.474  0.2385 -0.0229 -0.1825
  153SAPE    C116968   5.118   1.611  10.401  0.4559  0.8361 -0.6190
  153SAPE    HA16969   5.163   1.516  10.437  2.4207  1.3535 -1.6508
  153SAPE    HB16970   5.008   1.596  10.410  0.1459  2.9431 -0.6384
  153SAPE    C216971   5.139   1.618  10.247 -0.7306 -0.5634  0.2772
  153SAPE    HS16972   5.250   1.625  10.240 -0.5485 -0.0174  3.0250
  153SAPE   O2116973   5.067   1.724  10.191  0.0548  0.6755 -0.0860
  153SAPE   C2116974   5.120   1.778  10.082 -0.2585  0.5705  0.1384
  153SAPE   O2216975   5.225   1.763  10.034 -0.5758 -0.2942  0.6041
  153SAPE   C2216976   5.022   1.886  10.030 -0.1883  0.1036  0.3457
  153SAPE   H2R16977   4.922   1.839  10.015  0.5106 -0.7971 -1.7970
  153SAPE   H2S16978   5.025   1.969  10.104  1.9300  0.0185  0.3902
  153SAPE    C316979   5.094   1.487  10.179  0.3275 -0.8120 -0.1935
  153SAPE    HX16980   4.984   1.479  10.190  0.1767 -0.3209 -1.2905
  153SAPE    HY16981   5.139   1.407  10.241  1.6513 -0.3322 -0.5230
  153SAPE   O3116982   5.130   1.488  10.044 -0.0467  0.0582 -0.3054
  153SAPE   C3116983   5.218   1.403  10.011 -0.0228  1.4424 -0.5188
  153SAPE   O3216984   5.237   1.297  10.070  0.0893  0.0979  0.3048
  153SAPE   C3216985   5.300   1.447   9.894 -0.3235 -0.2014  0.4330
  153SAPE   H2X16986   5.401   1.448   9.938 -1.3282  1.3485  2.8050
  153SAPE   H2Y16987   5.287   1.554   9.867  2.6711  0.5582  1.8104
  153SAPE   C2316988   5.055   1.954   9.889 -0.7241 -0.5339  0.1435
  153SAPE   H3R16989   5.161   1.984   9.889 -1.2080  1.2326 -0.3193
  153SAPE   H3S16990   4.992   2.045   9.877  1.2939  0.8963  0.2248
  153SAPE   C2416991   5.026   1.854   9.781 -0.2754 -0.9502 -0.0085
  153SAPE   H4R16992   4.918   1.829   9.773  0.4159 -3.3875 -2.2355
  153SAPE   H4S16993   5.080   1.763   9.817 -0.0365  0.2861  2.8961
  153SAPE   C2516994   5.087   1.908   9.657 -0.0895 -0.4108 -0.3059
  153SAPE   H5R16995   5.191   1.934   9.681 -0.3852  0.2160  0.3264
  153SAPE   C2616996   5.028   1.939   9.534  0.5486  0.2030 -0.7257
  153SAPE   H6R16997   5.097   1.995   9.469  0.5644 -1.5054 -2.2122
  153SAPE   C2716998   4.884   1.905   9.497 -0.3873 -0.1790 -0.2294
  153SAPE   H7R16999   4.849   1.815   9.551  1.1054  0.8026  2.4896
  153SAPE   H7S17000   4.878   1.871   9.391 -4.0586  0.6063 -0.3179
  153SAPE   C2817001   4.785   2.020   9.529  0.3885 -0.7230  0.3480
  153SAPE   H8R17002   4.784   2.058   9.633 -1.3602  0.3135 -0.0399
  153SAPE   C2917003   4.731   2.101   9.438 -0.0350 -0.9455  0.2996
  153SAPE   H9R17004   4.668   2.182   9.478  1.2001  0.7219 -1.0689
  153SAPE  C21017005   4.748   2.089   9.284  0.1902 -0.2454  0.7619
  153SAPE  H10R17006   4.687   2.000   9.258 -0.5367  0.3178  0.5373
  153SAPE  H10S17007   4.852   2.066   9.255  0.8190  3.4399 -0.1441
  153SAPE  C21117008   4.694   2.213   9.219  0.0757  0.0994 -0.4303
  153SAPE  H11R17009   4.624   2.275   9.278  1.8708  0.4739  1.3498
  153SAPE  C21217010   4.712   2.261   9.096 -0.1403 -0.3421  0.3526
  153SAPE  H12R17011   4.652   2.343   9.053  0.3240  0.7195  1.6872
  153SAPE  C21317012   4.792   2.187   8.989  0.1306  0.1487  0.5186
  153SAPE  H13R17013   4.729   2.122   8.925  1.8212 -0.4857 -0.5457
  153SAPE  H13S17014   4.851   2.109   9.042 -0.2899 -0.0748  0.6611
  153SAPE  C21417015   4.868   2.288   8.904 -0.0464 -0.4083 -0.2488
  153SAPE  H14R17016   4.973   2.306   8.932 -0.8213  1.9911  1.2726
  153SAPE  C21517017   4.819   2.341   8.790 -1.1585 -1.0790 -0.2768
  153SAPE  H15R17018   4.880   2.410   8.730 -3.0067 -0.0312 -1.0095
  153SAPE  C21617019   4.680   2.324   8.739  0.2860  0.8083  0.0166
  153SAPE  H16R17020   4.627   2.410   8.694 -0.1639  0.5398  0.0279
  153SAPE  H16S17021   4.617   2.309   8.830  0.8851  0.0242  0.3116
  153SAPE  C21717022   4.655   2.196   8.657 -0.4942  0.9083 -0.1773
  153SAPE  H17R17023   4.693   2.109   8.715  1.7895  0.4353 -2.2341
  153SAPE  H17S17024   4.707   2.191   8.558  1.1644  1.6569  0.6336
  153SAPE  C21817025   4.508   2.164   8.630 -0.4373  0.0047 -0.3761
  153SAPE  H18R17026   4.451   2.245   8.579 -2.6780 -0.4766  1.2603
  153SAPE  H18S17027   4.460   2.155   8.730 -0.0308 -0.4095 -0.2175
  153SAPE  C21917028   4.482   2.033   8.542 -0.0497 -0.8449 -0.1671
  153SAPE  H19R17029   4.534   2.026   8.444  0.0946  0.4252 -0.1789
  153SAPE  H19S17030   4.373   2.024   8.520 -0.3511  1.3086  0.3635
  153SAPE  C22017031   4.509   1.904   8.615 -0.1716 -0.1814  0.1139
  153SAPE  H20R17032   4.465   1.900   8.716  1.9916  2.5973  1.2724
  153SAPE  H20S17033   4.618   1.890   8.635 -0.0236  0.4765 -0.1851
  153SAPE  H20T17034   4.473   1.815   8.559  2.9678 -1.6651  0.3215
  153SAPE   C3317035   5.303   1.344   9.772  0.4565 -0.0858 -0.7592
  153SAPE   H3X17036   5.321   1.241   9.811 -0.2909 -0.0100 -0.2086
  153SAPE   H3Y17037   5.391   1.360   9.706  2.3567  1.8711  2.1394
  153SAPE   C3417038   5.176   1.358   9.691 -0.2742 -0.4235  0.1402
  153SAPE   H4X17039   5.179   1.462   9.652  0.7101 -0.5355 -0.0929
  153SAPE   H4Y17040   5.084   1.346   9.752 -1.0933  2.0180 -0.5559
  153SAPE   C3517041   5.162   1.269   9.566  0.2665 -0.3641 -0.0771
  153SAPE   H5X17042   5.131   1.169   9.605  0.9881 -0.3585  0.5214
  153SAPE   H5Y17043   5.254   1.256   9.505  0.2646  1.8830 -0.5711
  153SAPE   C3617044   5.052   1.313   9.464 -0.7340  0.5549  0.1002
  153SAPE   H6X17045   5.086   1.402   9.408 -0.3565  0.6233  0.4389
  153SAPE   H6Y17046   4.956   1.338   9.514 -1.4156 -1.0698 -0.3582
  153SAPE   C3717047   5.024   1.207   9.353 -0.2711  0.7411 -0.5616
  153SAPE   H7X17048   4.982   1.109   9.387 -0.1346  0.9119  0.1152
  153SAPE   H7Y17049   5.119   1.180   9.304 -0.5085 -1.9080  0.3201
  153SAPE   C3817050   4.935   1.263   9.247  0.0118  0.1840  0.0296
  153SAPE   H8X17051   4.968   1.354   9.193  0.8988  0.8194  1.6238
  153SAPE   H8Y17052   4.844   1.304   9.296  0.4450  1.5862 -0.3296
  153SAPE   C3917053   4.879   1.160   9.142 -0.5256  0.1003  0.3130
  153SAPE   H9X17054   4.820   1.218   9.068  0.9706  2.2941  0.8155
  153SAPE   H9Y17055   4.805   1.090   9.186 -2.0226  1.1597 -0.4818
  153SAPE  C31017056   4.988   1.075   9.074  0.0412 -0.3286  0.7367
  153SAPE  H10X17057   5.023   0.993   9.139  0.5073 -0.2164  0.6331
  153SAPE  H10Y17058   5.074   1.144   9.057  0.3599 -0.9221 -0.0933
  153SAPE  C31117059   4.952   1.025   8.932  0.8146  0.1850 -1.0031
  153SAPE  H11X17060   4.858   1.076   8.902 -1.2018 -2.3204  0.8681
  153SAPE  H11Y17061   4.926   0.917   8.926 -1.2621  0.4364  2.5317
  153SAPE  C31217062   5.063   1.043   8.823 -0.0801 -0.5463  0.2287
  153SAPE  H12X17063   5.102   1.144   8.845  2.1389 -0.5534 -3.1887
  153SAPE  H12Y17064   5.014   1.056   8.724  0.1325  1.4579  0.3670
  153SAPE  C31317065   5.173   0.943   8.821  0.2066  0.4690  0.9285
  153SAPE  H13X17066   5.131   0.849   8.781  1.5933 -1.0055  2.8418
  153SAPE  H13Y17067   5.211   0.935   8.925  1.4021  0.9372  0.5340
  153SAPE  C31417068   5.281   0.974   8.722  0.2922 -0.0206 -0.2421
  153SAPE  H14X17069   5.360   0.896   8.731  0.6905  0.2277 -1.4699
  153SAPE  H14Y17070   5.333   1.069   8.748  0.8033 -1.0091  2.4232
  153SAPE  C31517071   5.248   0.962   8.573 -0.3733 -0.7107  0.2132
  153SAPE  H15X17072   5.163   1.028   8.545  1.6780  2.4931  1.3156
  153SAPE  H15Y17073   5.194   0.865   8.564  2.7551 -2.3247 -2.2487
  153SAPE  C31617074   5.370   0.974   8.488  0.9901 -0.2798 -0.7245
  153SAPE  H16X17075   5.430   0.881   8.498  0.1088 -0.5023  3.4182
  153SAPE  H16Y17076   5.435   1.056   8.527  0.7445  0.3359 -1.6018
  153SAPE  C31717077   5.342   0.994   8.339  0.3899 -0.5375 -0.0539
  153SAPE  H17X17078   5.272   1.080   8.337  1.5466  0.5024  2.3135
  153SAPE  H17Y17079   5.283   0.917   8.285 -0.1160  0.6617 -1.2319
  153SAPE  C31817080   5.466   1.032   8.262  0.9380  0.1898 -0.1009
  153SAPE  H18X17081   5.540   0.949   8.263  2.1150  1.2299  2.0913
  153SAPE  H18Y17082   5.515   1.121   8.306  1.0282  0.2936 -0.4093
  153SAPE  H18Z17083   5.439   1.057   8.157 -2.1358  0.0004  0.6020
  154SAPE     N17084   6.251   1.488  10.442  0.1170  0.0900  1.1302
  154SAPE   HN117085   6.329   1.555  10.454  1.3349 -0.9519 -0.8131
  154SAPE   HN217086   6.206   1.450  10.528 -0.0597 -0.8897  0.6096
  154SAPE   HN317087   6.299   1.405  10.402 -1.1390  0.0283 -0.2820
  154SAPE   C1217088   6.150   1.549  10.351 -0.9998  0.0284 -0.2841
  154SAPE  H12A17089   6.069   1.473  10.339 -1.6827  0.5675  0.8094
  154SAPE  H12B17090   6.183   1.572  10.247  0.1937 -2.6288 -0.5193
  154SAPE   C1117091   6.090   1.680  10.419  0.2537 -0.6810  0.2887
  154SAPE  H11A17092   6.031   1.730  10.339 -1.8647 -1.5544  1.2560
  154SAPE  H11B17093   6.164   1.755  10.455  0.3904 -0.3862 -0.5898
  154SAPE     P17094   5.848   1.714  10.528  0.2009 -0.0663 -0.0907
  154SAPE   O1317095   5.766   1.645  10.628 -0.0943  0.2522 -0.0276
  154SAPE   O1417096   5.877   1.859  10.549  0.9519  0.0845 -0.4447
  154SAPE   O1217097   5.994   1.642  10.521 -0.0870 -0.1049  0.3265
  154SAPE   O1117098   5.782   1.696  10.378  0.3616 -0.1052 -0.2931
  154SAPE    C117099   5.765   1.559  10.339  0.7896  0.7394  0.3411
  154SAPE    HA17100   5.862   1.506  10.329  0.3172 -0.3047  1.2885
  154SAPE    HB17101   5.692   1.510  10.407  1.4708 -0.0383  0.5181
  154SAPE    C217102   5.709   1.564  10.193  0.2569 -0.3234  0.8744
  154SAPE    HS17103   5.674   1.467  10.152  0.1651 -0.9105  2.3104
  154SAPE   O2117104   5.789   1.641  10.107 -0.2340  0.2146 -0.4770
  154SAPE   C2117105   5.910   1.585  10.079 -0.2465  0.6531  0.8176
  154SAPE   O2217106   5.952   1.475  10.116  0.1408  0.5408  0.2886
  154SAPE   C2217107   6.005   1.688  10.007  0.0290  0.4626  0.4235
  154SAPE   H2R17108   5.963   1.748   9.924 -0.3029 -1.2678 -0.6981
  154SAPE   H2S17109   6.034   1.747  10.096  2.9727  0.6374 -0.5704
  154SAPE    C317110   5.567   1.636  10.202 -0.0887 -0.3869  0.0649
  154SAPE    HX17111   5.581   1.726  10.265 -0.3036  0.0323 -0.4846
  154SAPE    HY17112   5.496   1.583  10.269  0.6772 -1.3865  0.1021
  154SAPE   O3117113   5.507   1.656  10.070 -0.4070 -0.0643 -0.4795
  154SAPE   C3117114   5.504   1.780  10.027 -0.1209 -0.1493 -0.0253
  154SAPE   O3217115   5.516   1.882  10.087  0.0833 -0.2715  0.1440
  154SAPE   C3217116   5.494   1.776   9.871 -0.1994  0.0571  0.7842
  154SAPE   H2X17117   5.444   1.870   9.843  0.8447 -0.0119 -1.4274
  154SAPE   H2Y17118   5.429   1.695   9.832 -0.6867  0.1628  1.3661
  154SAPE   C2317119   6.149   1.625   9.972  0.5863  0.6094 -0.0518
  154SAPE   H3R17120   6.185   1.547  10.043 -1.3694 -0.4954 -0.2464
  154SAPE   H3S17121   6.221   1.708   9.988 -0.1482  0.8817  1.9648
  154SAPE   C2417122   6.167   1.583   9.831  0.9801 -0.6428  0.5970
  154SAPE   H4R17123   6.275   1.582   9.802  0.1033 -0.4914 -2.8842
  154SAPE   H4S17124   6.115   1.657   9.767  0.8193 -2.0954 -0.9860
  154SAPE   C2517125   6.098   1.453   9.812  0.6415  0.2656  0.2278
  154SAPE   H5R17126   6.099   1.387   9.900  0.7446  0.3669  0.3024
  154SAPE   C2617127   6.048   1.415   9.697 -0.0542 -0.1677  0.1563
  154SAPE   H6R17128   5.988   1.322   9.693  1.9209 -1.5186  1.3598
  154SAPE   C2717129   6.051   1.496   9.570  0.6697 -0.4575  0.0118
  154SAPE   H7R17130   6.032   1.425   9.486  0.3898  0.0715 -0.3741
  154SAPE   H7S17131   6.159   1.518   9.553  1.0623 -2.3156 -0.0141
  154SAPE   C2817132   5.968   1.620   9.561 -0.1074 -0.0145 -0.1321
  154SAPE   H8R17133   6.008   1.716   9.596 -1.1981 -0.3220  2.0430
  154SAPE   C2917134   5.838   1.624   9.521  0.4052  0.6873  0.0790
  154SAPE   H9R17135   5.791   1.723   9.512 -1.8630 -0.3126  0.4204
  154SAPE  C21017136   5.751   1.507   9.480 -0.4737 -0.6256  0.2452
  154SAPE  H10R17137   5.671   1.508   9.556 -0.3961 -0.1177  0.3236
  154SAPE  H10S17138   5.799   1.409   9.499 -0.9586 -0.8981  0.0532
  154SAPE  C21117139   5.681   1.502   9.343 -0.7895 -0.0495 -0.7373
  154SAPE  H11R17140   5.755   1.487   9.263 -0.9261  0.5838 -0.9824
  154SAPE  C21217141   5.548   1.527   9.317 -0.2314  0.2637 -0.0965
  154SAPE  H12R17142   5.517   1.516   9.212 -0.9527  1.4677 -0.0157
  154SAPE  C21317143   5.441   1.570   9.422  1.1473  0.6149 -0.1308
  154SAPE  H13R17144   5.471   1.593   9.526 -2.2036 -1.6434  1.4167
  154SAPE  H13S17145   5.369   1.485   9.429  2.2107 -0.1814  1.4725
  154SAPE  C21417146   5.348   1.684   9.370  0.0025  0.6026 -0.5989
  154SAPE  H14R17147   5.386   1.779   9.410  0.5225  0.1924 -0.1110
  154SAPE  C21517148   5.254   1.684   9.273 -0.5273 -0.2454 -0.1021
  154SAPE  H15R17149   5.224   1.787   9.246  2.2767  0.6206 -0.0462
  154SAPE  C21617150   5.202   1.570   9.183 -0.0373  0.6131  0.3312
  154SAPE  H16R17151   5.092   1.577   9.188 -0.0806  0.2422 -0.1039
  154SAPE  H16S17152   5.232   1.470   9.220 -1.4632  0.6382  1.5868
  154SAPE  C21717153   5.256   1.581   9.033  0.2858  0.2311  0.7972
  154SAPE  H17R17154   5.366   1.565   9.034  0.4348  1.1564  0.1986
  154SAPE  H17S17155   5.233   1.685   9.001 -4.9585 -1.5815 -1.8328
  154SAPE  C21817156   5.185   1.485   8.939  0.1682  0.7799 -0.0217
  154SAPE  H18R17157   5.077   1.501   8.919 -0.0123 -2.2415 -1.7907
  154SAPE  H18S17158   5.191   1.384   8.985 -2.5254  0.1682 -0.9553
  154SAPE  C21917159   5.256   1.489   8.797  0.4455 -0.1066  0.0331
  154SAPE  H19R17160   5.356   1.442   8.805 -0.0979 -0.8906  2.6745
  154SAPE  H19S17161   5.268   1.598   8.776 -2.5560  0.4172  0.8487
  154SAPE  C22017162   5.173   1.431   8.678 -0.1104  0.0669 -0.5691
  154SAPE  H20R17163   5.136   1.328   8.698  0.3558 -0.4567 -2.3396
  154SAPE  H20S17164   5.230   1.429   8.583  0.6791 -1.4624 -0.0847
  154SAPE  H20T17165   5.082   1.493   8.668 -0.5863 -0.9147 -2.5667
  154SAPE   C3317166   5.632   1.802   9.803  0.0553  0.5322  0.0003
  154SAPE   H3X17167   5.633   1.759   9.701 -3.1994  0.6294 -0.1314
  154SAPE   H3Y17168   5.719   1.762   9.859 -1.4030 -0.0886  1.8755
  154SAPE   C3417169   5.670   1.952   9.784  0.3164  0.5218 -0.6290
  154SAPE   H4X17170   5.706   2.002   9.876 -0.3261  2.5692 -1.4673
  154SAPE   H4Y17171   5.579   2.004   9.747 -0.4713 -0.4351 -0.0362
  154SAPE   C3517172   5.779   1.966   9.672 -0.2765  0.2844  0.3828
  154SAPE   H5X17173   5.745   1.896   9.593  1.1261  0.3414 -0.2688
  154SAPE   H5Y17174   5.870   1.916   9.711 -0.2715  0.7367  0.9569
  154SAPE   C3617175   5.800   2.110   9.621  0.8671 -0.0381  0.7945
  154SAPE   H6X17176   5.857   2.180   9.685 -0.3347  1.8475 -0.1358
  154SAPE   H6Y17177   5.698   2.153   9.607  0.6404 -0.6485  0.5117
  154SAPE   C3717178   5.887   2.109   9.490  0.3732 -0.1430 -0.3108
  154SAPE   H7X17179   5.993   2.087   9.513 -0.0098 -1.4402  0.2394
  154SAPE   H7Y17180   5.881   2.210   9.443 -0.3094  0.5472  1.2243
  154SAPE   C3817181   5.858   2.013   9.378 -0.0141  0.0880 -0.5785
  154SAPE   H8X17182   5.872   1.905   9.403 -0.4482  0.5490  1.7807
  154SAPE   H8Y17183   5.936   2.035   9.303  0.4369 -2.0771 -0.8003
  154SAPE   C3917184   5.722   2.033   9.313  0.4606  0.0958  0.4609
  154SAPE   H9X17185   5.703   2.131   9.265  0.0471 -0.4886 -0.5744
  154SAPE   H9Y17186   5.647   2.029   9.395 -0.2906 -0.3666 -0.2546
  154SAPE  C31017187   5.693   1.921   9.211 -0.4560  0.2537 -0.0620
  154SAPE  H10X17188   5.705   1.823   9.262  1.5352 -0.8287 -2.5183
  154SAPE  H10Y17189   5.771   1.918   9.132  1.9253 -2.0962  2.2460
  154SAPE  C31117190   5.553   1.930   9.149  0.1922 -0.0235 -0.4146
  154SAPE  H11X17191   5.476   1.930   9.229  0.6894 -1.3871  0.0824
  154SAPE  H11Y17192   5.542   1.831   9.099  1.6169 -1.3904  1.8874
  154SAPE  C31217193   5.526   2.041   9.041 -0.3395  0.0361 -1.3218
  154SAPE  H12X17194   5.604   2.022   8.964  0.2590  1.2178 -1.0022
  154SAPE  H12Y17195   5.538   2.140   9.089  1.8569 -0.3595 -0.9850
  154SAPE  C31317196   5.391   2.021   8.974  0.5751 -0.2208  0.0743
  154SAPE  H13X17197   5.319   2.057   9.050 -0.2184 -1.9473  0.1622
  154SAPE  H13Y17198   5.368   1.912   8.971  0.6094 -0.2244 -0.0712
  154SAPE  C31417199   5.378   2.093   8.843  0.5624 -0.3276 -1.0184
  154SAPE  H14X17200   5.465   2.058   8.784  1.7241  2.3375 -0.9419
  154SAPE  H14Y17201   5.370   2.204   8.846  0.0445 -0.3902  0.5462
  154SAPE  C31517202   5.261   2.034   8.757 -0.3553  0.4242 -0.1181
  154SAPE  H15X17203   5.167   2.039   8.816 -0.3119 -1.8462  0.1832
  154SAPE  H15Y17204   5.282   1.927   8.736 -1.4366  0.5206 -1.8456
  154SAPE  C31617205   5.240   2.107   8.621 -0.0120  0.3541 -0.8257
  154SAPE  H16X17206   5.192   2.033   8.554 -0.6538 -1.0685  1.1209
  154SAPE  H16Y17207   5.340   2.132   8.580  0.4512 -0.4629 -0.2247
  154SAPE  C31717208   5.153   2.234   8.637 -0.1383  0.2690 -0.4168
  154SAPE  H17X17209   5.195   2.305   8.711 -1.8443 -1.4719  2.3036
  154SAPE  H17Y17210   5.065   2.189   8.688  0.7548 -0.7913  0.2297
  154SAPE  C31817211   5.122   2.298   8.501 -0.5751 -0.2422 -0.6022
  154SAPE  H18X17212   5.224   2.298   8.458  0.4535  0.1156  1.7397
  154SAPE  H18Y17213   5.081   2.401   8.506  2.1603  0.8234  1.2327
  154SAPE  H18Z17214   5.061   2.227   8.441  0.0521 -0.8101 -0.5695
  155SAPE     N17215   6.759   2.298  10.809 -0.2969 -0.2220  0.2126
  155SAPE   HN117216   6.829   2.224  10.789  1.9348  2.0870 -0.8343
  155SAPE   HN217217   6.679   2.261  10.865  0.9788  0.8431  2.7822
  155SAPE   HN317218   6.722   2.337  10.720  0.0212 -1.3391 -0.4176
  155SAPE   C1217219   6.814   2.415  10.882 -0.2650 -0.1236 -0.0386
  155SAPE  H12A17220   6.879   2.372  10.961 -1.3106 -1.2381  0.2282
  155SAPE  H12B17221   6.742   2.475  10.942 -0.0852 -0.5452  0.6028
  155SAPE   C1117222   6.892   2.515  10.793 -0.1258  0.2986  0.6241
  155SAPE  H11A17223   6.992   2.469  10.778 -0.5858 -0.7193  0.6587
  155SAPE  H11B17224   6.910   2.612  10.844 -2.5956  2.0664 -1.6666
  155SAPE     P17225   6.824   2.676  10.583  0.4137  0.3456 -0.2287
  155SAPE   O1317226   6.677   2.709  10.580 -0.6422  0.0289  0.4177
  155SAPE   O1417227   6.917   2.773  10.642 -0.2741  0.2122  0.2197
  155SAPE   O1217228   6.825   2.545  10.673 -0.0175  0.3962 -0.3090
  155SAPE   O1117229   6.878   2.613  10.446 -0.5946  0.4092  0.0293
  155SAPE    C117230   6.797   2.506  10.404 -0.0347 -0.1958 -0.7088
  155SAPE    HA17231   6.805   2.420  10.474  1.4979  1.2186  0.8935
  155SAPE    HB17232   6.693   2.546  10.394  0.0010  0.6516  2.0935
  155SAPE    C217233   6.845   2.464  10.264 -0.7120  0.0771 -0.5297
  155SAPE    HS17234   6.940   2.410  10.283 -0.7631 -0.2437 -1.1742
  155SAPE   O2117235   6.865   2.585  10.179 -0.8069  0.0972 -0.4169
  155SAPE   C2117236   6.988   2.611  10.158 -0.9553 -0.8029 -0.5309
  155SAPE   O2217237   7.085   2.546  10.198  0.0081  0.0540 -0.4299
  155SAPE   C2217238   6.999   2.746  10.083 -0.1546  0.5294  0.1334
  155SAPE   H2R17239   6.948   2.811  10.158  2.3484  1.5552  1.0042
  155SAPE   H2S17240   7.107   2.768  10.070  0.2065 -1.3821 -0.1286
  155SAPE    C317241   6.748   2.369  10.186 -0.0619  0.6896  0.2675
  155SAPE    HX17242   6.644   2.406  10.185 -0.8391 -1.4177  0.5883
  155SAPE    HY17243   6.751   2.276  10.247  0.0701  1.2664  1.1564
  155SAPE   O3117244   6.797   2.344  10.049  0.1320  0.4194 -0.0748
  155SAPE   C3117245   6.730   2.245   9.990 -0.8033  0.0915  0.3713
  155SAPE   O3217246   6.649   2.174  10.045 -0.8764 -0.2782 -0.4218
  155SAPE   C3217247   6.783   2.237   9.851 -0.1553 -0.5200 -0.8750
  155SAPE   H2X17248   6.880   2.183   9.844  1.9412  3.2424 -2.4002
  155SAPE   H2Y17249   6.796   2.339   9.809 -3.8386 -0.5114 -2.1516
  155SAPE   C2317250   6.933   2.743   9.947 -0.1684  0.1513  0.2585
  155SAPE   H3R17251   6.823   2.731   9.958 -0.4658  1.2420 -1.4290
  155SAPE   H3S17252   6.983   2.658   9.898  0.3396  0.5360  0.1116
  155SAPE   C2417253   6.966   2.875   9.871 -0.8574  0.1478 -0.6580
  155SAPE   H4R17254   7.055   2.920   9.919  0.0998 -0.0125 -2.2591
  155SAPE   H4S17255   6.884   2.947   9.894 -0.6668 -0.5139  2.3226
  155SAPE   C2517256   6.983   2.871   9.723  0.2597 -0.2735  0.0518
  155SAPE   H5R17257   6.889   2.910   9.679  1.0808  0.2461 -1.2583
  155SAPE   C2617258   7.077   2.825   9.646  0.1528  0.3560 -0.4362
  155SAPE   H6R17259   7.070   2.841   9.537 -0.1251  1.9105 -0.2007
  155SAPE   C2717260   7.199   2.745   9.686  0.1237  0.6613  0.2539
  155SAPE   H7R17261   7.177   2.637   9.677  1.3792  0.4708 -0.7163
  155SAPE   H7S17262   7.230   2.758   9.791  2.2509 -2.3002  0.0592
  155SAPE   C2817263   7.331   2.762   9.599 -0.6349 -0.5313 -0.1876
  155SAPE   H8R17264   7.412   2.820   9.645 -2.1858 -0.1594  2.2051
  155SAPE   C2917265   7.342   2.732   9.468 -0.1203 -0.7348 -0.6621
  155SAPE   H9R17266   7.437   2.746   9.415 -1.1414 -1.0315 -2.6486
  155SAPE  C21017267   7.228   2.671   9.378  0.4313 -0.1079  0.3061
  155SAPE  H10R17268   7.185   2.760   9.327  0.1138 -0.1918  0.4231
  155SAPE  H10S17269   7.151   2.619   9.439 -1.5469  0.7092 -1.4511
  155SAPE  C21117270   7.261   2.563   9.278  0.3213  0.2508  0.2298
  155SAPE  H11R17271   7.271   2.461   9.317 -0.6622  0.1380  0.1953
  155SAPE  C21217272   7.306   2.594   9.153 -0.9907  0.1424  0.2746
  155SAPE  H12R17273   7.318   2.517   9.076  1.7254  0.1554  0.6368
  155SAPE  C21317274   7.333   2.737   9.107  0.1823 -0.3415 -0.2846
  155SAPE  H13R17275   7.389   2.788   9.188  2.0266 -1.2078 -0.9976
  155SAPE  H13S17276   7.237   2.792   9.101  0.0944 -0.5142 -0.4494
  155SAPE  C21417277   7.421   2.745   8.987 -0.0701 -0.1854  1.1862
  155SAPE  H14R17278   7.422   2.650   8.931 -1.5336 -0.0680  0.9413
  155SAPE  C21517279   7.509   2.841   8.948 -0.2331  0.6161  0.3291
  155SAPE  H15R17280   7.559   2.833   8.850 -3.2125 -0.8105 -1.1398
  155SAPE  C21617281   7.537   2.968   9.016 -0.6273 -0.0467 -0.8484
  155SAPE  H16R17282   7.629   2.961   9.077 -0.3624  1.3325 -1.0701
  155SAPE  H16S17283   7.450   3.005   9.075 -0.0289  1.2874 -0.7819
  155SAPE  C21717284   7.564   3.081   8.920  1.0521  0.5329 -0.3212
  155SAPE  H17R17285   7.466   3.094   8.869  0.8659 -1.5519 -0.5335
  155SAPE  H17S17286   7.632   3.049   8.838  2.2118 -1.7284  1.4593
  155SAPE  C21817287   7.610   3.206   8.988 -0.1337  0.4224  0.0159
  155SAPE  H18R17288   7.714   3.194   9.025  1.3425  1.4000 -3.5308
  155SAPE  H18S17289   7.551   3.224   9.080  3.3427 -2.0496  2.8534
  155SAPE  C21917290   7.601   3.340   8.909 -0.4449  0.0473  0.4267
  155SAPE  H19R17291   7.493   3.360   8.898 -0.6448 -1.1913  0.0841
  155SAPE  H19S17292   7.649   3.308   8.814 -0.8012 -0.9501  0.5692
  155SAPE  C22017293   7.685   3.458   8.955 -0.0115 -0.4046 -0.6198
  155SAPE  H20R17294   7.733   3.503   8.865  0.6385 -0.8952 -0.5235
  155SAPE  H20S17295   7.770   3.420   9.015 -1.6675 -2.5501  0.4324
  155SAPE  H20T17296   7.633   3.533   9.018  2.4689 -1.9021  3.3652
  155SAPE   C3317297   6.681   2.151   9.770 -0.8125  0.2719  0.6458
  155SAPE   H3X17298   6.597   2.220   9.745 -0.5032  1.0897  1.8365
  155SAPE   H3Y17299   6.649   2.059   9.822 -1.4028  1.3054  2.1502
  155SAPE   C3417300   6.740   2.113   9.631  0.4226  0.3968  0.1321
  155SAPE   H4X17301   6.654   2.053   9.592 -0.8811  0.9168  2.1288
  155SAPE   H4Y17302   6.814   2.031   9.644 -1.4354 -1.5215 -1.0853
  155SAPE   C3517303   6.789   2.229   9.540  0.5181  0.6118 -0.8664
  155SAPE   H5X17304   6.884   2.265   9.585 -0.0827  0.6381  0.4161
  155SAPE   H5Y17305   6.717   2.312   9.560 -0.8098 -0.8331  0.4842
  155SAPE   C3617306   6.799   2.193   9.387  0.4920 -0.7123  0.4703
  155SAPE   H6X17307   6.731   2.259   9.329  0.9387  0.3407  1.1315
  155SAPE   H6Y17308   6.758   2.090   9.373 -1.9484  0.6054 -2.7609
  155SAPE   C3717309   6.946   2.210   9.337  0.1734 -0.3185  0.1217
  155SAPE   H7X17310   7.008   2.122   9.366  3.1355  1.5020 -0.4285
  155SAPE   H7Y17311   6.984   2.304   9.382  2.7614 -0.5893 -1.3893
  155SAPE   C3817312   6.939   2.237   9.185  0.5337 -0.3518  1.1613
  155SAPE   H8X17313   6.871   2.323   9.168  1.0504 -0.1316  0.1289
  155SAPE   H8Y17314   6.900   2.148   9.131 -1.2053 -0.4022  2.4756
  155SAPE   C3917315   7.080   2.238   9.122 -0.5429  0.2850  0.4663
  155SAPE   H9X17316   7.122   2.136   9.139 -0.5071  0.0996 -0.6838
  155SAPE   H9Y17317   7.147   2.311   9.172 -1.1406  0.2725  1.2819
  155SAPE  C31017318   7.083   2.263   8.974  0.4778 -0.2388  0.2073
  155SAPE  H10X17319   7.020   2.183   8.930 -0.0790  0.3037  0.0019
  155SAPE  H10Y17320   7.189   2.267   8.941  0.4194 -0.4112 -0.0021
  155SAPE  C31117321   7.017   2.400   8.948 -0.5355  0.0313  0.2623
  155SAPE  H11X17322   7.069   2.477   9.008 -1.0611 -0.8677  1.8902
  155SAPE  H11Y17323   6.910   2.403   8.977  0.1509 -1.3310  3.0588
  155SAPE  C31217324   7.022   2.430   8.802  0.4692 -0.6562 -0.3464
  155SAPE  H12X17325   6.942   2.373   8.750  0.6694  0.7512 -2.2466
  155SAPE  H12Y17326   7.125   2.416   8.763  1.1017  0.4718  0.8851
  155SAPE  C31317327   6.993   2.584   8.793 -0.1833 -0.6404  0.0280
  155SAPE  H13X17328   7.031   2.628   8.887 -2.9128  0.9381  0.4474
  155SAPE  H13Y17329   6.883   2.597   8.799 -0.0701  0.7669 -0.9072
  155SAPE  C31417330   7.063   2.651   8.671  0.7080  0.0710  0.4237
  155SAPE  H14X17331   7.167   2.613   8.661  0.8600  0.8301 -1.0250
  155SAPE  H14Y17332   7.068   2.756   8.706  1.2513  1.0701 -2.5435
  155SAPE  C31517333   6.985   2.652   8.540  0.0452  0.2525  0.1707
  155SAPE  H15X17334   7.016   2.742   8.482  0.3757  0.6969  1.0230
  155SAPE  H15Y17335   6.881   2.674   8.569  0.1433  0.3999  0.4139
  155SAPE  C31617336   6.983   2.519   8.462  0.3005  0.2724 -0.4116
  155SAPE  H16X17337   6.904   2.523   8.384  1.7401  0.0635 -1.9214
  155SAPE  H16Y17338   6.947   2.450   8.542 -0.4794  3.2221  1.8745
  155SAPE  C31717339   7.118   2.472   8.409  0.1692 -0.1574 -0.5603
  155SAPE  H17X17340   7.180   2.434   8.494  1.0049 -0.7084 -1.4005
  155SAPE  H17Y17341   7.166   2.561   8.364 -0.1832  1.9263  3.0263
  155SAPE  C31817342   7.085   2.359   8.312 -0.4836  0.0670  0.5746
  155SAPE  H18X17343   7.023   2.273   8.344  0.8307 -0.8698  0.6309
  155SAPE  H18Y17344   7.171   2.305   8.266  0.2947  1.4196  0.4098
  155SAPE  H18Z17345   7.038   2.414   8.227  3.1883  2.3523 -0.0894
  156SAPE     N17346   4.637   0.570  10.300  0.2964  0.3833 -0.2380
  156SAPE   HN117347   4.606   0.662  10.260 -2.3042  0.4934  1.8805
  156SAPE   HN217348   4.555   0.534  10.353  0.1126  0.4601 -0.4631
  156SAPE   HN317349   4.725   0.579  10.354 -0.3540  0.6470  0.7761
  156SAPE   C1217350   4.678   0.474  10.191  0.3031 -0.4221 -0.2171
  156SAPE  H12A17351   4.788   0.460  10.197  0.3142 -0.7038 -1.0055
  156SAPE  H12B17352   4.656   0.517  10.091  0.2221  1.9980  0.8183
  156SAPE   C1117353   4.603   0.349  10.211 -0.2366  0.0030  0.0780
  156SAPE  H11A17354   4.626   0.280  10.127 -1.3398 -1.1559  0.6898
  156SAPE  H11B17355   4.493   0.358  10.198 -0.0892  1.8555  0.0164
  156SAPE     P17356   4.689   0.145  10.359 -0.2577 -0.1741  0.8813
  156SAPE   O1317357   4.799   0.140  10.452 -0.4050  0.6858  0.2967
  156SAPE   O1417358   4.567   0.068  10.403 -0.3929 -0.5065 -0.0940
  156SAPE   O1217359   4.647   0.286  10.329  0.2642  0.1309  0.7073
  156SAPE   O1117360   4.725   0.096  10.219 -0.3573  0.5873  0.1934
  156SAPE    C117361   4.867   0.105  10.178  0.0970 -0.5942 -0.6702
  156SAPE    HA17362   4.923   0.173  10.246 -1.1424 -1.1168  0.8968
  156SAPE    HB17363   4.923   0.009  10.184  0.7727 -0.0873  1.2535
  156SAPE    C217364   4.884   0.162  10.040  0.8592  0.0910  0.1103
  156SAPE    HS17365   4.830   0.259  10.032 -2.0431 -1.4619  0.2964
  156SAPE   O2117366   4.834   0.059   9.951  0.0039 -0.4128 -0.1277
  156SAPE   C2117367   4.731   0.093   9.882  0.1862  0.0048 -0.5781
  156SAPE   O2217368   4.658   0.192   9.887 -0.1741  0.3820 -0.8076
  156SAPE   C2217369   4.714  -0.022   9.783  0.4635  0.2962  0.2048
  156SAPE   H2R17370   4.809  -0.036   9.726  1.1725  1.9240  0.9428
  156SAPE   H2S17371   4.697  -0.114   9.844  1.5509 -0.8442 -1.1661
  156SAPE    C317372   5.032   0.184  10.006  0.3669 -0.9175  0.1939
  156SAPE    HX17373   5.088   0.091  10.028  0.1635 -1.4191 -1.3625
  156SAPE    HY17374   5.070   0.264  10.074  0.7772 -0.0616 -1.0305
  156SAPE   O3117375   5.057   0.221   9.867 -0.0467 -0.3681  0.9118
  156SAPE   C3117376   5.010   0.341   9.831 -0.0460  1.4648 -0.5555
  156SAPE   O3217377   4.953   0.420   9.903  0.7579  0.4069 -0.0394
  156SAPE   C3217378   5.044   0.370   9.685  0.0058 -0.6690 -0.6439
  156SAPE   H2X17379   5.152   0.394   9.686  0.0792 -1.0095  0.3483
  156SAPE   H2Y17380   4.979   0.455   9.654  0.8575 -0.3123 -1.4939
  156SAPE   C2317381   4.598  -0.008   9.685  1.0663  0.4364  1.0247
  156SAPE   H3R17382   4.566   0.099   9.682 -2.0838 -0.4689  0.1133
  156SAPE   H3S17383   4.506  -0.061   9.718 -0.5076  1.7280 -1.1416
  156SAPE   C2417384   4.617  -0.042   9.536 -0.1791 -0.0307  0.0288
  156SAPE   H4R17385   4.650  -0.147   9.521 -0.7021 -0.0608 -0.9750
  156SAPE   H4S17386   4.692   0.027   9.490 -2.2124  0.8744 -2.0278
  156SAPE   C2517387   4.484  -0.029   9.465  0.2374  0.0236 -0.6333
  156SAPE   H5R17388   4.394  -0.047   9.526  0.6510  2.3287  0.7387
  156SAPE   C2617389   4.469   0.014   9.335  0.7702 -0.0699  0.3163
  156SAPE   H6R17390   4.368   0.025   9.292  1.5176 -0.6942 -1.6464
  156SAPE   C2717391   4.578   0.042   9.240 -0.6831 -0.9142  0.3050
  156SAPE   H7R17392   4.678   0.036   9.288 -0.1905  0.6962 -0.4859
  156SAPE   H7S17393   4.561   0.147   9.207 -1.9571 -0.9030  0.9550
  156SAPE   C2817394   4.576  -0.053   9.136 -1.0023 -0.2983 -0.4267
  156SAPE   H8R17395   4.574  -0.159   9.165  0.9493 -0.1546  0.3044
  156SAPE   C2917396   4.573  -0.018   9.008  0.7632  0.7971 -0.0310
  156SAPE   H9R17397   4.548  -0.101   8.940  0.3714  1.4734 -0.7057
  156SAPE  C21017398   4.582   0.115   8.936 -0.3866  0.5152 -0.4350
  156SAPE  H10R17399   4.689   0.134   8.917 -0.6381  1.1301 -1.2626
  156SAPE  H10S17400   4.557   0.198   9.005 -1.2388  0.2009 -0.3488
  156SAPE  C21117401   4.507   0.126   8.809 -0.2143 -0.0819 -0.5079
  156SAPE  H11R17402   4.406   0.170   8.810 -1.1107 -2.0729 -1.7491
  156SAPE  C21217403   4.548   0.084   8.685  0.4510 -0.7836 -0.0836
  156SAPE  H12R17404   4.482   0.093   8.598  0.3230  0.8901  0.1660
  156SAPE  C21317405   4.672   0.004   8.665 -0.0761 -0.3217 -0.1353
  156SAPE  H13R17406   4.668  -0.082   8.735 -0.0598  1.1235  1.7019
  156SAPE  H13S17407   4.757   0.072   8.692 -1.0014  1.6847 -2.1186
  156SAPE  C21417408   4.697  -0.046   8.530  0.3164  0.7337  0.0285
  156SAPE  H14R17409   4.782   0.005   8.481  0.6439 -0.4318 -0.6124
  156SAPE  C21517410   4.634  -0.143   8.456 -0.0428  0.2122  0.1542
  156SAPE  H15R17411   4.666  -0.157   8.352 -0.5816 -4.0734  0.5004
  156SAPE  C21617412   4.521  -0.226   8.499 -0.6270  0.1436 -0.3099
  156SAPE  H16R17413   4.426  -0.187   8.456 -1.5015  1.5904  2.7762
  156SAPE  H16S17414   4.511  -0.221   8.609  0.3044  1.0145 -0.2565
  156SAPE  C21717415   4.557  -0.369   8.458 -0.4369 -0.7852 -0.3030
  156SAPE  H17R17416   4.657  -0.399   8.496 -0.6255 -0.8246  0.1646
  156SAPE  H17S17417   4.575  -0.371   8.348 -1.0940 -2.3272 -0.3975
  156SAPE  C21817418   4.454  -0.471   8.499  0.6705 -0.1810 -0.5528
  156SAPE  H18R17419   4.357  -0.419   8.485  0.6015  0.0011  0.5514
  156SAPE  H18S17420   4.450  -0.497   8.607  0.5721 -0.1719 -0.5557
  156SAPE  C21917421   4.459  -0.595   8.414  0.0302 -0.0756  0.3909
  156SAPE  H19R17422   4.386  -0.658   8.469 -1.5581  0.7267 -0.7572
  156SAPE  H19S17423   4.559  -0.642   8.407 -0.2171 -1.0315  2.8004
  156SAPE  C22017424   4.410  -0.580   8.271 -0.0283 -0.1060 -0.5696
  156SAPE  H20R17425   4.309  -0.534   8.265  0.1581  0.2810 -0.7171
  156SAPE  H20S17426   4.387  -0.683   8.237  1.2057  0.0471 -1.9215
  156SAPE  H20T17427   4.490  -0.537   8.208  0.8396  1.8741  1.7974
  156SAPE   C3317428   5.004   0.253   9.594 -0.1287  1.0304 -0.1351
  156SAPE   H3X17429   4.898   0.227   9.615 -0.2968  1.2516 -0.7080
  156SAPE   H3Y17430   5.068   0.167   9.622 -0.6515  1.0002  0.9859
  156SAPE   C3417431   5.014   0.288   9.447 -0.4212  0.0910 -0.7156
  156SAPE   H4X17432   5.119   0.316   9.425 -0.2780 -0.7590 -1.1591
  156SAPE   H4Y17433   4.952   0.380   9.444  0.3610  0.6454 -0.0247
  156SAPE   C3517434   4.961   0.186   9.352 -0.4463  0.4558 -0.2700
  156SAPE   H5X17435   4.850   0.188   9.348 -0.3717  1.4344 -1.9684
  156SAPE   H5Y17436   4.979   0.083   9.391 -1.4691  0.7245  0.9674
  156SAPE   C3617437   5.007   0.209   9.208  0.2665  0.4176  0.6432
  156SAPE   H6X17438   5.117   0.200   9.194 -0.0367 -1.5573 -0.5611
  156SAPE   H6Y17439   4.981   0.317   9.196 -2.3473 -0.0579  1.7340
  156SAPE   C3717440   4.935   0.129   9.110  0.4201 -0.0499 -0.5746
  156SAPE   H7X17441   4.825   0.141   9.123  0.3847 -0.2898 -0.6347
  156SAPE   H7Y17442   4.950   0.024   9.145  1.4808 -0.1400 -1.2769
  156SAPE   C3817443   4.999   0.145   8.973 -0.0186  0.7182 -0.2560
  156SAPE   H8X17444   5.018   0.253   8.957  1.6408  0.7380  1.7578
  156SAPE   H8Y17445   4.943   0.093   8.892  1.3994  0.1187 -0.8794
  156SAPE   C3917446   5.138   0.081   8.962  0.5273  0.2107  0.1660
  156SAPE   H9X17447   5.133  -0.018   9.011 -0.6354 -0.0310 -0.4125
  156SAPE   H9Y17448   5.221   0.137   9.009  1.5139 -0.9504 -0.1615
  156SAPE  C31017449   5.184   0.067   8.816  0.5402  0.1800  0.0478
  156SAPE  H10X17450   5.259   0.146   8.796  0.1973  0.5897  0.3389
  156SAPE  H10Y17451   5.103   0.078   8.740 -0.2880 -2.8198  0.4285
  156SAPE  C31117452   5.262  -0.067   8.783  0.2324 -0.2594  0.7640
  156SAPE  H11X17453   5.208  -0.158   8.818  0.3012 -1.4400 -2.0761
  156SAPE  H11Y17454   5.344  -0.060   8.857  0.5674 -2.8731  0.6957
  156SAPE  C31217455   5.321  -0.079   8.638 -0.0543 -0.4870  0.4208
  156SAPE  H12X17456   5.240  -0.079   8.562 -1.1592  1.6087  1.5195
  156SAPE  H12Y17457   5.384  -0.170   8.631  1.4853  0.4270  2.0450
  156SAPE  C31317458   5.420   0.031   8.597  0.3092 -0.0766 -0.9567
  156SAPE  H13X17459   5.501   0.049   8.671 -1.6214  0.8894  1.0079
  156SAPE  H13Y17460   5.362   0.126   8.592  0.4937  0.0230 -1.1866
  156SAPE  C31417461   5.478   0.024   8.457 -0.2659 -0.2963 -0.1624
  156SAPE  H14X17462   5.471   0.125   8.411 -0.7257  0.1921  0.9458
  156SAPE  H14Y17463   5.417  -0.050   8.402 -1.8757  0.0788  1.0525
  156SAPE  C31517464   5.625  -0.019   8.450  0.1188  0.1295  0.5942
  156SAPE  H15X17465   5.649  -0.116   8.499  1.0780 -0.0866 -0.3056
  156SAPE  H15Y17466   5.682   0.057   8.507  1.1620 -0.1851 -0.0143
  156SAPE  C31617467   5.672  -0.049   8.308  1.0879  0.3544  0.4931
  156SAPE  H16X17468   5.680   0.046   8.251  0.4556 -0.1144 -0.4036
  156SAPE  H16Y17469   5.588  -0.111   8.268  2.7393 -2.7069  1.6210
  156SAPE  C31717470   5.809  -0.119   8.295  0.0792  0.3004 -0.6661
  156SAPE  H17X17471   5.783  -0.225   8.319  0.6910 -0.2266 -2.2993
  156SAPE  H17Y17472   5.877  -0.073   8.370  0.3985  0.7695 -1.2425
  156SAPE  C31817473   5.882  -0.108   8.160  0.5549  0.1792  0.4733
  156SAPE  H18X17474   5.933  -0.009   8.160 -0.0288  0.4844 -0.5483
  156SAPE  H18Y17475   5.808  -0.124   8.079 -0.4492 -2.1029  1.8001
  156SAPE  H18Z17476   5.958  -0.189   8.156 -1.1575 -1.4006 -0.3581
  157SAPE     N17477   4.008   0.691  10.631  0.3126 -0.6317 -1.0480
  157SAPE   HN117478   4.107   0.663  10.624 -0.0515 -2.6615  1.4637
  157SAPE   HN217479   4.002   0.772  10.566 -0.0334  0.3659  0.2072
  157SAPE   HN317480   3.982   0.724  10.726  0.1374  0.3814 -1.4425
  157SAPE   C1217481   3.915   0.583  10.584 -0.5183 -0.5235 -0.1169
  157SAPE  H12A17482   3.962   0.490  10.621  1.2875 -0.5254 -2.3619
  157SAPE  H12B17483   3.919   0.586  10.473 -2.1573  0.6048 -0.1789
  157SAPE   C1117484   3.775   0.591  10.645 -0.7169  0.2292  0.0978
  157SAPE  H11A17485   3.707   0.522  10.590 -0.2302 -0.6606  0.5933
  157SAPE  H11B17486   3.738   0.692  10.621 -0.7608 -0.3941 -2.5949
  157SAPE     P17487   3.761   0.435  10.856  0.3407 -0.2222 -0.0113
  157SAPE   O1317488   3.873   0.353  10.822 -0.0355 -0.0606 -0.4140
  157SAPE   O1417489   3.737   0.459  10.999  0.2965 -0.0935 -0.0424
  157SAPE   O1217490   3.778   0.577  10.793 -0.4018 -0.6795  0.0055
  157SAPE   O1117491   3.636   0.385  10.785 -0.3593  0.4646  0.0949
  157SAPE    C117492   3.599   0.246  10.780  0.1489  0.5669 -0.1617
  157SAPE    HA17493   3.626   0.179  10.865 -1.6731 -2.9599 -2.2945
  157SAPE    HB17494   3.488   0.243  10.785  0.2265 -0.1740  1.3850
  157SAPE    C217495   3.663   0.180  10.652  1.0921 -0.0200 -0.1805
  157SAPE    HS17496   3.770   0.160  10.673  0.1700 -2.1702  2.7561
  157SAPE   O2117497   3.640   0.275  10.540  0.6694 -0.4405  0.4325
  157SAPE   C2117498   3.731   0.268  10.449  0.0780 -0.0851  0.2152
  157SAPE   O2217499   3.831   0.197  10.457  0.0992  0.2487 -0.2632
  157SAPE   C2217500   3.705   0.365  10.332  0.3422  0.1122 -0.6535
  157SAPE   H2R17501   3.724   0.472  10.354 -0.6004  0.0340  0.6002
  157SAPE   H2S17502   3.787   0.337  10.262  1.5047 -0.2754  0.8328
  157SAPE    C317503   3.597   0.040  10.618  0.1562 -0.4114  0.3868
  157SAPE    HX17504   3.489   0.048  10.639 -0.6536  1.4669 -3.9151
  157SAPE    HY17505   3.641  -0.028  10.695  0.8080  0.7808  1.0730
  157SAPE   O3117506   3.619   0.004  10.478  0.1200 -0.2685  0.1854
  157SAPE   C3117507   3.652  -0.129  10.461  0.4304 -0.2992  0.0836
  157SAPE   O3217508   3.661  -0.212  10.550 -0.0442 -0.2909  0.1320
  157SAPE   C3217509   3.673  -0.154  10.316 -0.4153 -0.1742 -0.2377
  157SAPE   H2X17510   3.696  -0.059  10.264  0.3939  0.0845  0.5835
  157SAPE   H2Y17511   3.576  -0.189  10.275 -1.2975 -0.0896  1.7449
  157SAPE   C2317512   3.572   0.338  10.254 -0.3923  0.9845  0.3033
  157SAPE   H3R17513   3.483   0.336  10.319 -0.8723  1.0677 -0.3478
  157SAPE   H3S17514   3.587   0.239  10.206 -0.3739  1.9786 -1.7728
  157SAPE   C2417515   3.561   0.446  10.143 -0.4442  0.0357 -0.2707
  157SAPE   H4R17516   3.642   0.421  10.071 -1.3185 -1.8889 -0.6259
  157SAPE   H4S17517   3.576   0.544  10.193 -3.2801 -0.2513  1.2133
  157SAPE   C2517518   3.419   0.440  10.087  0.1785 -0.5930 -0.5791
  157SAPE   H5R17519   3.344   0.441  10.167 -0.2699  2.8381 -0.9484
  157SAPE   C2617520   3.384   0.448   9.959  0.1176 -0.7860  0.6045
  157SAPE   H6R17521   3.284   0.414   9.929  0.5068 -0.6557 -0.8971
  157SAPE   C2717522   3.477   0.463   9.839  0.0144 -0.0838 -0.3550
  157SAPE   H7R17523   3.477   0.374   9.772  0.0597  1.0660 -1.9060
  157SAPE   H7S17524   3.583   0.474   9.871 -0.5392 -0.8770  1.8116
  157SAPE   C2817525   3.430   0.584   9.763  0.1201  0.4069  0.1472
  157SAPE   H8R17526   3.417   0.676   9.822  1.1762 -0.0493  1.1248
  157SAPE   C2917527   3.425   0.594   9.632  0.1628 -0.2370  0.1001
  157SAPE   H9R17528   3.372   0.685   9.601  3.7637  1.5428 -1.1584
  157SAPE  C21017529   3.460   0.511   9.509  0.1702  0.4857 -0.1446
  157SAPE  H10R17530   3.493   0.409   9.539  3.0620  0.8871 -1.7278
  157SAPE  H10S17531   3.549   0.555   9.459  0.1954  0.7751  0.1519
  157SAPE  C21117532   3.346   0.499   9.413  0.3268 -0.1645 -0.3720
  157SAPE  H11R17533   3.245   0.484   9.453  0.8381 -0.2143  0.9104
  157SAPE  C21217534   3.353   0.513   9.282 -0.7449 -0.0987 -0.3091
  157SAPE  H12R17535   3.260   0.497   9.226 -1.3396 -0.4134  0.7561
  157SAPE  C21317536   3.474   0.532   9.191 -0.4052 -0.4520 -0.5167
  157SAPE  H13R17537   3.477   0.456   9.110 -2.1088  0.0318 -1.0625
  157SAPE  H13S17538   3.570   0.507   9.240 -0.8319 -0.4986  0.3050
  157SAPE  C21417539   3.489   0.664   9.124  0.3537 -0.0310 -0.2538
  157SAPE  H14R17540   3.464   0.754   9.182  1.4645  2.8467 -4.0645
  157SAPE  C21517541   3.525   0.690   8.994  0.3036 -0.1826  0.5235
  157SAPE  H15R17542   3.529   0.793   8.953  2.0648  0.6811  2.7568
  157SAPE  C21617543   3.555   0.590   8.888  0.5031  0.1723  0.6287
  157SAPE  H16R17544   3.528   0.487   8.921  0.5962  0.1488  0.6312
  157SAPE  H16S17545   3.664   0.585   8.866  0.1361  0.8751 -1.4372
  157SAPE  C21717546   3.471   0.623   8.761  0.5847 -0.1046 -0.2154
  157SAPE  H17R17547   3.362   0.628   8.783  0.1797  0.5926 -2.2333
  157SAPE  H17S17548   3.495   0.546   8.684  0.2623  1.3482 -1.8130
  157SAPE  C21817549   3.511   0.754   8.681 -0.1495 -0.4473  0.3379
  157SAPE  H18R17550   3.468   0.836   8.743 -2.3584 -1.8721  0.7584
  157SAPE  H18S17551   3.470   0.763   8.579 -0.1756  2.0066  0.5449
  157SAPE  C21917552   3.660   0.759   8.662 -0.0407 -0.2110  0.1082
  157SAPE  H19R17553   3.721   0.765   8.755  0.4342  1.9456 -0.3240
  157SAPE  H19S17554   3.681   0.848   8.599 -2.6093  1.2016  1.1676
  157SAPE  C22017555   3.709   0.644   8.573  0.1315  0.0127  0.3381
  157SAPE  H20R17556   3.810   0.670   8.537 -0.6761  0.5411 -1.6073
  157SAPE  H20S17557   3.644   0.620   8.486  0.8962 -1.5980  0.2055
  157SAPE  H20T17558   3.719   0.557   8.641  0.5544  0.2993  0.6497
  157SAPE   C3317559   3.782  -0.254  10.283  0.0797  0.0066 -0.1951
  157SAPE   H3X17560   3.801  -0.327  10.365  1.7415 -2.3940 -2.6504
  157SAPE   H3Y17561   3.875  -0.199  10.258  1.1649 -0.6086  2.2877
  157SAPE   C3417562   3.749  -0.336  10.156 -0.3686 -0.8491  0.1681
  157SAPE   H4X17563   3.674  -0.418  10.163  0.0028 -1.2572 -0.5381
  157SAPE   H4Y17564   3.847  -0.377  10.125  1.9485  3.3316  1.7128
  157SAPE   C3517565   3.709  -0.255  10.035 -0.6625  0.5503  0.4125
  157SAPE   H5X17566   3.785  -0.173  10.034  0.0176 -0.0638  0.9554
  157SAPE   H5Y17567   3.608  -0.210  10.043 -1.3124 -0.6732 -0.6499
  157SAPE   C3617568   3.705  -0.330   9.897  0.1942 -0.4630 -0.1544
  157SAPE   H6X17569   3.806  -0.367   9.870  0.5329  0.1910  0.1881
  157SAPE   H6Y17570   3.670  -0.255   9.824 -3.0073  0.4400  2.1940
  157SAPE   C3717571   3.612  -0.454   9.893 -0.8199 -1.1260  0.3566
  157SAPE   H7X17572   3.520  -0.444   9.954 -0.0474  1.0329  1.2129
  157SAPE   H7Y17573   3.664  -0.534   9.950 -0.7527  0.3270  2.3848
  157SAPE   C3817574   3.579  -0.477   9.745 -0.5075  0.1752 -0.5603
  157SAPE   H8X17575   3.668  -0.530   9.704  1.1394  3.1361 -0.9387
  157SAPE   H8Y17576   3.558  -0.380   9.695  4.0379  0.2935 -2.4574
  157SAPE   C3917577   3.461  -0.565   9.710 -0.2818 -0.5386 -0.0796
  157SAPE   H9X17578   3.366  -0.519   9.743  0.9353  1.8820  0.1398
  157SAPE   H9Y17579   3.477  -0.663   9.761 -0.6003 -1.1908 -1.2085
  157SAPE  C31017580   3.465  -0.603   9.558  0.1199 -0.6417  0.0860
  157SAPE  H10X17581   3.571  -0.627   9.533  0.4302  0.2713  0.5025
  157SAPE  H10Y17582   3.446  -0.514   9.494  1.9546  0.1975  0.6491
  157SAPE  C31117583   3.371  -0.716   9.529  1.0448  0.2644 -0.0514
  157SAPE  H11X17584   3.267  -0.690   9.502  1.4368  0.0151 -1.8910
  157SAPE  H11Y17585   3.355  -0.784   9.615 -0.2111  1.3921  0.6021
  157SAPE  C31217586   3.425  -0.809   9.419  0.0757  0.8570 -0.2087
  157SAPE  H12X17587   3.350  -0.889   9.399  0.3582  0.6297 -0.3720
  157SAPE  H12Y17588   3.515  -0.859   9.462 -0.5627  0.9720  1.2549
  157SAPE  C31317589   3.457  -0.738   9.283  0.2940 -0.3884 -1.2173
  157SAPE  H13X17590   3.539  -0.666   9.305  0.0411 -0.5787  0.3679
  157SAPE  H13Y17591   3.362  -0.684   9.262  0.7579  1.6020  1.4481
  157SAPE  C31417592   3.491  -0.838   9.173  0.2285 -0.2337 -0.0630
  157SAPE  H14X17593   3.400  -0.898   9.153 -1.3249  1.4743  1.6600
  157SAPE  H14Y17594   3.568  -0.914   9.199  0.3153 -0.1419 -0.0531
  157SAPE  C31517595   3.530  -0.760   9.044  0.5686 -0.5830  0.1472
  157SAPE  H15X17596   3.632  -0.717   9.049 -0.6886  3.1407 -3.1662
  157SAPE  H15Y17597   3.473  -0.665   9.048  1.3073 -0.1187 -0.1614
  157SAPE  C31617598   3.509  -0.849   8.915 -0.0573 -0.3618 -0.0264
  157SAPE  H16X17599   3.538  -0.953   8.942 -0.0448 -0.5083 -0.5800
  157SAPE  H16Y17600   3.578  -0.810   8.836  1.5881 -1.6398  0.7535
  157SAPE  C31717601   3.371  -0.838   8.859  0.3441  0.1629  0.1934
  157SAPE  H17X17602   3.297  -0.860   8.939 -0.5144  1.5014 -0.2054
  157SAPE  H17Y17603   3.354  -0.917   8.783  0.5966 -0.5155  0.8403
  157SAPE  C31817604   3.340  -0.707   8.781  0.1581  0.7956  0.6081
  157SAPE  H18X17605   3.369  -0.620   8.844  1.0515  0.0046  1.3235
  157SAPE  H18Y17606   3.231  -0.688   8.771 -0.2278 -1.3272  0.5755
  157SAPE  H18Z17607   3.383  -0.695   8.679  0.0524 -3.7640 -0.0802
  158SAPE     N17608   5.265   1.131  10.620 -0.1153  0.1595 -0.2687
  158SAPE   HN117609   5.343   1.157  10.556  0.4604 -1.2078 -0.1406
  158SAPE   HN217610   5.248   1.220  10.671  2.5080  1.1452 -1.0129
  158SAPE   HN317611   5.292   1.059  10.689  1.5412  0.5918 -0.4331
  158SAPE   C1217612   5.139   1.086  10.543  0.7770  0.2489 -0.3564
  158SAPE  H12A17613   5.133   1.142  10.447 -0.5400  2.8390  1.1968
  158SAPE  H12B17614   5.052   1.101  10.610 -0.5506  0.0883 -2.0114
  158SAPE   C1117615   5.145   0.938  10.515  0.8063 -0.7180 -0.5918
  158SAPE  H11A17616   5.219   0.923  10.433  1.1170  1.4579 -0.7426
  158SAPE  H11B17617   5.040   0.912  10.490  0.5509 -0.1547 -0.1323
  158SAPE     P17618   5.200   0.720  10.638  0.0026  0.0853  0.7021
  158SAPE   O1317619   5.298   0.690  10.745  0.2085  0.2670  0.7934
  158SAPE   O1417620   5.069   0.657  10.647  0.6975  0.3297 -0.6424
  158SAPE   O1217621   5.175   0.877  10.638 -0.3764 -0.2292 -0.1665
  158SAPE   O1117622   5.272   0.678  10.501  0.1189  0.7388 -0.4746
  158SAPE    C117623   5.414   0.688  10.487  0.3385 -0.2573 -0.2016
  158SAPE    HA17624   5.448   0.793  10.483  0.9030 -0.4075  0.5274
  158SAPE    HB17625   5.456   0.645  10.581 -0.6012  0.0510  0.3720
  158SAPE    C217626   5.470   0.600  10.366 -0.6986 -0.1711  0.3409
  158SAPE    HS17627   5.581   0.604  10.366 -0.7270  1.4414  2.0944
  158SAPE   O2117628   5.418   0.655  10.236 -0.3503 -0.1145 -0.5614
  158SAPE   C2117629   5.470   0.772  10.209  0.5362 -0.4987 -0.6302
  158SAPE   O2217630   5.568   0.826  10.261 -0.2508 -0.1800  0.8960
  158SAPE   C2217631   5.392   0.838  10.093 -0.3901 -0.3520  0.1575
  158SAPE   H2R17632   5.286   0.810  10.110 -1.2327  2.4674 -0.1157
  158SAPE   H2S17633   5.401   0.949  10.095  0.8414 -0.4323 -0.3518
  158SAPE    C317634   5.421   0.458  10.385 -0.0668  0.1496  0.2072
  158SAPE    HX17635   5.312   0.476  10.396  0.1854  0.8494  1.5872
  158SAPE    HY17636   5.445   0.413  10.483 -1.1737  1.6178  1.1791
  158SAPE   O3117637   5.463   0.378  10.277  0.0135  0.2476  0.3683
  158SAPE   C3117638   5.384   0.357  10.177 -0.2216  0.1205  0.7659
  158SAPE   O3217639   5.259   0.373  10.181 -0.6111  0.7764 -0.9868
  158SAPE   C3217640   5.466   0.331  10.051  0.2256 -0.0865 -0.1401
  158SAPE   H2X17641   5.540   0.252  10.074  3.2847  2.2160 -1.6632
  158SAPE   H2Y17642   5.528   0.418  10.018 -2.1141  0.5951 -2.9720
  158SAPE   C2317643   5.431   0.798   9.946  0.3901 -0.1401  0.4617
  158SAPE   H3R17644   5.438   0.688   9.934  0.7461 -0.0916  0.2323
  158SAPE   H3S17645   5.530   0.840   9.919 -0.0837 -1.6631 -3.9000
  158SAPE   C2417646   5.340   0.858   9.839  0.7542  0.1035 -0.1654
  158SAPE   H4R17647   5.388   0.859   9.739  0.2055 -0.3433 -0.4363
  158SAPE   H4S17648   5.312   0.962   9.867  0.1952  0.2690 -1.2970
  158SAPE   C2517649   5.204   0.789   9.837 -0.2721  0.2241  1.0453
  158SAPE   H5R17650   5.138   0.791   9.925  1.2876 -0.0633  2.2583
  158SAPE   C2617651   5.158   0.723   9.731 -0.6775  0.1117 -0.0259
  158SAPE   H6R17652   5.061   0.675   9.748 -1.8278  2.2774 -0.3909
  158SAPE   C2717653   5.217   0.714   9.589  0.9027 -0.3595 -0.8875
  158SAPE   H7R17654   5.265   0.615   9.574  0.3433 -0.8462  0.4080
  158SAPE   H7S17655   5.297   0.791   9.587  2.3935 -1.7923  0.7970
  158SAPE   C2817656   5.104   0.730   9.492  0.0955 -0.3592  0.9656
  158SAPE   H8R17657   5.004   0.753   9.532  0.4966  0.2034  1.6540
  158SAPE   C2917658   5.106   0.718   9.359  0.5966  0.6523 -0.3395
  158SAPE   H9R17659   5.014   0.739   9.303 -0.2158 -1.1685  0.2689
  158SAPE  C21017660   5.225   0.682   9.271 -0.3851 -0.2608  0.4537
  158SAPE  H10R17661   5.321   0.692   9.326 -0.5256  1.6149  0.3711
  158SAPE  H10S17662   5.220   0.762   9.195  0.8106 -1.0161 -0.4266
  158SAPE  C21117663   5.226   0.538   9.215  0.8280  0.6483  0.1894
  158SAPE  H11R17664   5.256   0.462   9.289 -1.7210 -1.8342 -1.2366
  158SAPE  C21217665   5.199   0.501   9.092 -0.0188  0.1307  0.4438
  158SAPE  H12R17666   5.201   0.393   9.075  0.1119  0.4613 -1.7046
  158SAPE  C21317667   5.158   0.597   8.983 -0.5891 -1.0375 -0.3215
  158SAPE  H13R17668   5.163   0.702   9.017  0.7055 -1.2177  0.0568
  158SAPE  H13S17669   5.052   0.575   8.957 -1.0172  0.4425  0.1532
  158SAPE  C21417670   5.247   0.577   8.861 -0.4111  0.7481  0.6208
  158SAPE  H14R17671   5.349   0.614   8.880  0.4155 -1.4741  0.6282
  158SAPE  C21517672   5.227   0.519   8.741 -0.3314  0.4173 -0.1975
  158SAPE  H15R17673   5.307   0.491   8.671 -0.1934  0.2561  0.0242
  158SAPE  C21617674   5.097   0.460   8.702  0.4601 -0.3752  0.1514
  158SAPE  H16R17675   5.023   0.457   8.785  0.6736 -0.8436  0.3254
  158SAPE  H16S17676   5.105   0.367   8.641 -1.7760 -0.2191 -0.4484
  158SAPE  C21717677   5.028   0.564   8.603  0.7951 -0.5760  0.0407
  158SAPE  H17R17678   5.088   0.578   8.511  1.6362 -1.6203  0.4104
  158SAPE  H17S17679   5.033   0.660   8.659  0.7253  0.4490 -1.6842
  158SAPE  C21817680   4.877   0.546   8.566  0.0815 -0.5037 -0.0749
  158SAPE  H18R17681   4.833   0.636   8.518 -1.5651 -1.3772 -0.2310
  158SAPE  H18S17682   4.827   0.542   8.665  0.8641 -0.1295  0.3440
  158SAPE  C21917683   4.857   0.422   8.480  0.5158  0.1095  0.4422
  158SAPE  H19R17684   4.907   0.345   8.542 -0.0946 -1.5664 -1.1267
  158SAPE  H19S17685   4.919   0.428   8.388  1.0198 -0.0542  0.7697
  158SAPE  C22017686   4.710   0.384   8.443 -0.2215  0.2064 -0.3417
  158SAPE  H20R17687   4.640   0.376   8.529 -0.7189  0.2644 -0.7388
  158SAPE  H20S17688   4.718   0.287   8.387 -0.9847  0.6728 -1.2704
  158SAPE  H20T17689   4.671   0.459   8.371 -1.0670  0.6677  0.5903
  158SAPE   C3317690   5.377   0.294   9.940 -0.0084 -0.3714 -0.4505
  158SAPE   H3X17691   5.294   0.364   9.920  0.2731  0.0394 -0.2014
  158SAPE   H3Y17692   5.331   0.196   9.967  0.7402 -0.5416  0.2432
  158SAPE   C3417693   5.453   0.260   9.809 -0.0176 -0.3154 -0.7155
  158SAPE   H4X17694   5.546   0.202   9.826  0.3139  0.4798  0.2441
  158SAPE   H4Y17695   5.493   0.350   9.757 -1.5437  1.0049  0.3388
  158SAPE   C3517696   5.374   0.174   9.705 -0.1099 -0.0108  0.0948
  158SAPE   H5X17697   5.288   0.234   9.669  0.0368 -0.2682 -0.6943
  158SAPE   H5Y17698   5.333   0.077   9.740  1.4762 -1.0737 -0.9319
  158SAPE   C3617699   5.456   0.140   9.583 -0.0232 -0.2419  0.2677
  158SAPE   H6X17700   5.542   0.073   9.608  0.1709 -0.9928 -2.2113
  158SAPE   H6Y17701   5.502   0.233   9.543 -0.5182  0.1417  0.5952
  158SAPE   C3717702   5.364   0.081   9.471 -0.4468 -0.3606 -0.5709
  158SAPE   H7X17703   5.268   0.136   9.467 -1.0555 -1.4561 -1.1278
  158SAPE   H7Y17704   5.334  -0.021   9.503  0.7419 -0.7819 -0.7694
  158SAPE   C3817705   5.424   0.060   9.333  0.2297 -0.5324  0.2582
  158SAPE   H8X17706   5.371  -0.023   9.282 -0.1299 -0.7101  0.9153
  158SAPE   H8Y17707   5.522   0.006   9.335 -0.6929 -2.1970  2.2038
  158SAPE   C3917708   5.427   0.188   9.243 -0.4429 -0.2345 -0.2098
  158SAPE   H9X17709   5.502   0.255   9.291 -0.2064  0.9360 -2.1488
  158SAPE   H9Y17710   5.329   0.240   9.234  0.3532  0.8491 -3.0067
  158SAPE  C31017711   5.488   0.157   9.107 -0.0596  0.4754  0.1230
  158SAPE  H10X17712   5.501   0.257   9.060  0.8112  0.5305  0.4704
  158SAPE  H10Y17713   5.424   0.095   9.042  2.5802 -1.5878 -0.6056
  158SAPE  C31117714   5.623   0.081   9.121  0.0778  0.0483 -0.1066
  158SAPE  H11X17715   5.591  -0.022   9.146  0.2417 -0.1337 -0.6582
  158SAPE  H11Y17716   5.682   0.130   9.202  0.7700  0.9775 -1.1703
  158SAPE  C31217717   5.694   0.079   8.988  0.3436 -0.5579 -0.5856
  158SAPE  H12X17718   5.623   0.107   8.907 -1.0348  0.9180  1.0973
  158SAPE  H12Y17719   5.741  -0.019   8.965  0.4618 -0.9469  1.2378
  158SAPE  C31317720   5.810   0.175   8.999  0.3195  0.1950 -0.0351
  158SAPE  H13X17721   5.873   0.138   9.082 -0.6536 -0.3385  0.4771
  158SAPE  H13Y17722   5.792   0.282   9.025 -2.3149  0.0374 -1.0353
  158SAPE  C31417723   5.885   0.167   8.864 -0.1647  0.8106  0.0088
  158SAPE  H14X17724   5.808   0.176   8.784  0.5565 -0.1853 -0.8146
  158SAPE  H14Y17725   5.936   0.069   8.870  0.9466  1.2346 -1.8565
  158SAPE  C31517726   5.992   0.279   8.837  0.5681 -0.7610 -0.1175
  158SAPE  H15X17727   6.071   0.268   8.914 -0.0137 -0.6117  0.4984
  158SAPE  H15Y17728   5.948   0.379   8.856  2.2515 -0.1339  0.6371
  158SAPE  C31617729   6.063   0.268   8.702  0.7410  0.3788  0.0652
  158SAPE  H16X17730   6.106   0.370   8.691  0.8992  0.3903  0.7777
  158SAPE  H16Y17731   5.991   0.256   8.618  1.7904 -0.3760 -0.7395
  158SAPE  C31717732   6.168   0.158   8.685  0.0193  0.1771 -0.5356
  158SAPE  H17X17733   6.125   0.055   8.683 -2.5421  1.2277 -2.1912
  158SAPE  H17Y17734   6.236   0.158   8.773  0.2227  1.8404 -0.6834
  158SAPE  C31817735   6.257   0.190   8.567 -0.4117 -0.5928  0.0350
  158SAPE  H18X17736   6.292   0.295   8.573  0.6055 -0.9532  0.7259
  158SAPE  H18Y17737   6.196   0.175   8.476 -0.2989  3.5404 -0.8278
  158SAPE  H18Z17738   6.334   0.109   8.564 -1.5920 -1.7275  0.0082
  159SAPE     N17739   4.909   4.814   6.283 -0.0568 -0.7067  0.5107
  159SAPE   HN117740   4.991   4.787   6.225 -1.1395 -0.9838 -0.9402
  159SAPE   HN217741   4.825   4.775   6.234 -0.9554  1.4235  0.3217
  159SAPE   HN317742   4.888   4.915   6.273  1.0603 -0.4105  1.1572
  159SAPE   C1217743   4.900   4.761   6.421 -0.0640  0.1223 -0.4579
  159SAPE  H12A17744   4.984   4.783   6.489  0.5680 -2.2039 -0.4601
  159SAPE  H12B17745   4.913   4.651   6.427  0.1583  0.2026  0.5305
  159SAPE   C1117746   4.763   4.794   6.492  0.1700  0.1458  0.4628
  159SAPE  H11A17747   4.750   4.904   6.485  0.2789  0.2411  1.6537
  159SAPE  H11B17748   4.766   4.758   6.597  1.3133 -0.3355  0.2687
  159SAPE     P17749   4.517   4.723   6.460 -0.3877  0.0758  0.2861
  159SAPE   O1317750   4.457   4.854   6.433  0.5011 -0.6643  0.2585
  159SAPE   O1417751   4.452   4.602   6.408  0.3397  0.0756 -0.0690
  159SAPE   O1217752   4.666   4.736   6.404  0.0878 -0.1612 -0.0984
  159SAPE   O1117753   4.531   4.712   6.613 -0.6079  0.5168  0.6666
  159SAPE    C117754   4.549   4.599   6.703  0.3532 -0.6674  0.8656
  159SAPE    HA17755   4.636   4.536   6.676  0.6546  0.0332  0.1844
  159SAPE    HB17756   4.575   4.643   6.801  2.0663 -0.4136  0.3174
  159SAPE    C217757   4.423   4.517   6.727  0.8149  0.2606  0.1065
  159SAPE    HS17758   4.381   4.480   6.631  1.3281 -1.3034  0.4826
  159SAPE   O2117759   4.332   4.591   6.812  0.1470  0.2288 -0.3231
  159SAPE   C2117760   4.211   4.612   6.767 -0.1773 -0.4975 -0.0848
  159SAPE   O2217761   4.163   4.590   6.656 -0.3122 -0.3660  0.3241
  159SAPE   C2217762   4.133   4.667   6.889 -0.3025 -0.5431 -0.6509
  159SAPE   H2R17763   4.088   4.570   6.921 -1.5659  0.0351 -0.6378
  159SAPE   H2S17764   4.200   4.712   6.965 -2.4515 -1.1002  1.6763
  159SAPE    C317765   4.454   4.385   6.807  0.7873  0.4004 -0.2782
  159SAPE    HX17766   4.518   4.319   6.744  0.2026  0.5344 -1.0196
  159SAPE    HY17767   4.357   4.339   6.833  1.3621 -0.4260  0.4484
  159SAPE   O3117768   4.533   4.416   6.923  0.9992 -0.3148  0.2459
  159SAPE   C3117769   4.461   4.419   7.039 -0.4203 -0.4342  0.0725
  159SAPE   O3217770   4.342   4.403   7.048  0.1518 -0.4738 -0.2336
  159SAPE   C3217771   4.552   4.457   7.157 -0.2841 -0.5005  0.4532
  159SAPE   H2X17772   4.612   4.546   7.128 -1.1556  0.6019  1.9605
  159SAPE   H2Y17773   4.618   4.370   7.177  1.0418  0.2208 -0.6770
  159SAPE   C2317774   4.020   4.763   6.856 -0.3527 -0.3454 -0.1980
  159SAPE   H3R17775   3.941   4.720   6.792 -1.0230 -1.9666  1.6705
  159SAPE   H3S17776   4.074   4.839   6.795  1.5328 -0.9909  0.6328
  159SAPE   C2417777   3.958   4.846   6.969 -0.4495 -0.1030 -0.7002
  159SAPE   H4R17778   3.885   4.925   6.940 -1.4755  0.3589  2.8676
  159SAPE   H4S17779   4.042   4.884   7.031 -0.3621 -1.0235 -0.2508
  159SAPE   C2517780   3.865   4.758   7.046  0.7782  0.4624 -0.3768
  159SAPE   H5R17781   3.829   4.665   7.000 -1.3199 -0.7960  3.6033
  159SAPE   C2617782   3.810   4.803   7.162 -0.2081 -0.4539 -0.2291
  159SAPE   H6R17783   3.746   4.733   7.217 -0.3085 -1.5423 -1.6843
  159SAPE   C2717784   3.823   4.934   7.234 -0.3978  0.1842  0.3161
  159SAPE   H7R17785   3.744   4.928   7.313  0.0030 -0.6866  0.6496
  159SAPE   H7S17786   3.788   5.010   7.161 -0.9492 -0.2052  0.1735
  159SAPE   C2817787   3.962   4.965   7.287 -0.9370  0.2981  0.6367
  159SAPE   H8R17788   4.035   4.988   7.208 -1.6151  0.7692  0.1490
  159SAPE   C2917789   3.985   4.995   7.418 -0.5833  0.5437 -0.2346
  159SAPE   H9R17790   4.086   5.031   7.438 -0.9880  0.8268  1.3235
  159SAPE  C21017791   3.878   4.991   7.526  0.4773 -0.3793  0.6585
  159SAPE  H10R17792   3.823   4.897   7.503 -1.6851  0.7613  1.0432
  159SAPE  H10S17793   3.794   5.063   7.525 -0.9588 -2.0082  0.3972
  159SAPE  C21117794   3.946   4.970   7.658 -0.3243 -0.4465  0.3978
  159SAPE  H11R17795   4.022   4.891   7.646  0.1607 -0.4208  2.9446
  159SAPE  C21217796   3.928   5.031   7.777 -0.7234  0.3076 -0.4988
  159SAPE  H12R17797   3.978   4.998   7.870 -1.0211 -0.8699 -0.7450
  159SAPE  C21317798   3.828   5.146   7.794  0.3992  0.3536  0.1736
  159SAPE  H13R17799   3.828   5.211   7.704  2.4038 -0.2817 -0.3028
  159SAPE  H13S17800   3.862   5.210   7.879 -0.7016  0.3737  0.6138
  159SAPE  C21417801   3.688   5.094   7.837  0.1842  0.0138  0.0484
  159SAPE  H14R17802   3.665   4.998   7.788 -2.3071  1.2043 -1.2000
  159SAPE  C21517803   3.593   5.151   7.916  0.1330 -0.2301 -0.3946
  159SAPE  H15R17804   3.500   5.099   7.942  0.0118 -1.2876 -2.8056
  159SAPE  C21617805   3.605   5.293   7.974  0.3631  0.4999 -0.5226
  159SAPE  H16R17806   3.533   5.363   7.927 -0.5976  0.5610  1.0104
  159SAPE  H16S17807   3.710   5.329   7.969  0.4620  0.2443 -0.3083
  159SAPE  C21717808   3.577   5.301   8.121  0.1951 -0.1389 -0.1412
  159SAPE  H17R17809   3.472   5.269   8.133 -0.4168  1.8916  0.0778
  159SAPE  H17S17810   3.588   5.406   8.157  1.5901 -1.0659  2.3124
  159SAPE  C21817811   3.670   5.209   8.209 -0.4875  0.2920  0.7029
  159SAPE  H18R17812   3.779   5.207   8.186 -0.9754 -1.8662 -1.5297
  159SAPE  H18S17813   3.631   5.105   8.209 -0.2321  0.1919  1.7619
  159SAPE  C21917814   3.663   5.257   8.358 -0.3064  0.1884 -0.2896
  159SAPE  H19R17815   3.555   5.268   8.380  0.0605  0.2412  1.4989
  159SAPE  H19S17816   3.716   5.353   8.377  1.4384 -1.1660  1.8651
  159SAPE  C22017817   3.718   5.149   8.453 -0.3740  0.2396  0.5213
  159SAPE  H20R17818   3.819   5.121   8.415 -0.3044  0.9207  0.1899
  159SAPE  H20S17819   3.651   5.061   8.454  0.3633 -0.3189  1.6729
  159SAPE  H20T17820   3.733   5.189   8.555  2.2084 -2.2957  1.1829
  159SAPE   C3317821   4.485   4.495   7.289 -0.1920  0.0833  0.7230
  159SAPE   H3X17822   4.565   4.529   7.359  1.5448 -0.2876 -1.0668
  159SAPE   H3Y17823   4.444   4.404   7.339 -1.8624  0.3231 -0.1523
  159SAPE   C3417824   4.370   4.605   7.272  0.5938  0.1381 -0.3310
  159SAPE   H4X17825   4.287   4.574   7.205  0.2414 -2.3380  1.1960
  159SAPE   H4Y17826   4.406   4.705   7.241 -1.8024  0.4696 -2.1270
  159SAPE   C3517827   4.294   4.631   7.403 -0.0492 -0.1884  0.8541
  159SAPE   H5X17828   4.265   4.530   7.438  2.2061 -1.2639 -0.3235
  159SAPE   H5Y17829   4.198   4.680   7.374  0.0938 -0.6366 -0.4046
  159SAPE   C3617830   4.370   4.688   7.525  0.7960 -0.5727  0.2168
  159SAPE   H6X17831   4.445   4.765   7.495 -1.4211  1.7611  0.4642
  159SAPE   H6Y17832   4.429   4.606   7.571  1.0410 -0.4590  0.1066
  159SAPE   C3717833   4.271   4.756   7.625 -1.4201  0.7364 -0.2249
  159SAPE   H7X17834   4.208   4.672   7.661  1.9784 -1.1755  1.5584
  159SAPE   H7Y17835   4.209   4.831   7.571 -1.4102  0.5663 -0.4776
  159SAPE   C3817836   4.346   4.821   7.742  0.2431  0.4413  0.4903
  159SAPE   H8X17837   4.413   4.901   7.702  0.0626  0.9305  1.1639
  159SAPE   H8Y17838   4.404   4.736   7.784 -0.4496 -0.2860 -0.0228
  159SAPE   C3917839   4.249   4.881   7.845 -0.1588  0.1192  0.0088
  159SAPE   H9X17840   4.166   4.811   7.868  1.5879 -1.3077  2.2431
  159SAPE   H9Y17841   4.203   4.970   7.798  1.1826 -0.1868 -1.9708
  159SAPE  C31017842   4.323   4.917   7.974  0.2756 -0.2245  0.9778
  159SAPE  H10X17843   4.290   5.012   8.022 -0.5395  0.3933 -0.7693
  159SAPE  H10Y17844   4.423   4.957   7.946  0.8830 -1.4007  1.4426
  159SAPE  C31117845   4.353   4.796   8.069  0.1935 -0.3518 -0.3498
  159SAPE  H11X17846   4.311   4.700   8.032 -1.6420  0.0893  0.5655
  159SAPE  H11Y17847   4.290   4.820   8.157 -0.7232 -1.3850 -0.7088
  159SAPE  C31217848   4.492   4.778   8.107 -0.2586 -0.2564 -0.4569
  159SAPE  H12X17849   4.529   4.870   8.157 -0.1593 -0.0021 -0.9948
  159SAPE  H12Y17850   4.555   4.760   8.017  1.8313  1.3792  0.6330
  159SAPE  C31317851   4.512   4.659   8.204 -0.3048  0.2567  0.0685
  159SAPE  H13X17852   4.621   4.639   8.215 -0.8333 -2.9435  0.0016
  159SAPE  H13Y17853   4.461   4.570   8.159  1.0926  1.5975 -4.4951
  159SAPE  C31417854   4.469   4.692   8.350  0.1899  0.5652  0.3513
  159SAPE  H14X17855   4.360   4.716   8.351  0.2609  0.9958  3.6016
  159SAPE  H14Y17856   4.523   4.782   8.385  2.7689 -0.8371  0.0587
  159SAPE  C31517857   4.511   4.584   8.450 -0.1830 -0.1163 -0.0728
  159SAPE  H15X17858   4.622   4.582   8.455 -0.0672  2.3032 -0.7140
  159SAPE  H15Y17859   4.477   4.485   8.415  0.4805 -0.8038  1.1824
  159SAPE  C31617860   4.453   4.606   8.590 -0.1134  0.2213  0.0682
  159SAPE  H16X17861   4.345   4.627   8.576 -0.1766 -1.6201 -2.4654
  159SAPE  H16Y17862   4.481   4.707   8.628 -2.6699  1.6408 -1.7080
  159SAPE  C31717863   4.479   4.500   8.697 -0.7483  0.1881  0.2726
  159SAPE  H17X17864   4.588   4.508   8.712 -1.0224  0.8340  2.0015
  159SAPE  H17Y17865   4.457   4.401   8.651  2.2837 -1.0000  1.2993
  159SAPE  C31817866   4.394   4.515   8.826  0.1624 -0.0614  0.5055
  159SAPE  H18X17867   4.442   4.602   8.876  0.6813 -0.7919  1.2873
  159SAPE  H18Y17868   4.404   4.420   8.882  2.1749 -0.3244 -0.2262
  159SAPE  H18Z17869   4.288   4.540   8.805  0.6662  1.9515  0.1630
  160SAPE     N17870   2.535   5.543   6.571  0.0994  0.1547 -0.4666
  160SAPE   HN117871   2.453   5.483   6.547  0.6401 -0.4177 -0.8919
  160SAPE   HN217872   2.495   5.634   6.601 -0.4913 -0.1796 -0.2351
  160SAPE   HN317873   2.596   5.562   6.489 -1.5306  1.6046 -1.3703
  160SAPE   C1217874   2.623   5.474   6.674 -0.0123 -0.0234  0.4076
  160SAPE  H12A17875   2.550   5.436   6.749 -0.0214 -1.6593 -0.4231
  160SAPE  H12B17876   2.689   5.555   6.714  1.3787 -0.1994 -1.4674
  160SAPE   C1117877   2.706   5.356   6.599  0.1352 -0.5446 -0.5007
  160SAPE  H11A17878   2.638   5.271   6.573 -0.2182  0.1855 -2.0665
  160SAPE  H11B17879   2.778   5.316   6.673 -0.3283 -0.5929 -0.0770
  160SAPE     P17880   2.927   5.352   6.458  0.1595  0.0343  0.1082
  160SAPE   O1317881   2.917   5.206   6.481 -0.4770 -0.0361 -0.2603
  160SAPE   O1417882   2.968   5.398   6.323 -0.0584  0.0671  0.5368
  160SAPE   O1217883   2.781   5.408   6.481 -0.1692 -0.2905 -0.3914
  160SAPE   O1117884   3.016   5.420   6.561  0.1316 -0.1552 -0.4918
  160SAPE    C117885   3.086   5.540   6.543 -1.0531 -0.3000 -0.2284
  160SAPE    HA17886   3.172   5.525   6.475 -2.0173 -1.9906 -1.1198
  160SAPE    HB17887   3.020   5.628   6.524 -1.3367 -0.3257  0.5734
  160SAPE    C217888   3.153   5.570   6.684  0.1100 -0.5519 -0.0689
  160SAPE    HS17889   3.207   5.477   6.713  1.7667  0.0345 -1.1858
  160SAPE   O2117890   3.044   5.605   6.769  0.3614 -0.0187 -0.2101
  160SAPE   C2117891   3.063   5.575   6.901  0.4078  0.1757 -0.1002
  160SAPE   O2217892   3.164   5.519   6.941 -0.6105  0.0749  1.2554
  160SAPE   C2217893   2.933   5.598   6.971  0.1738  0.3285  0.7667
  160SAPE   H2R17894   2.912   5.707   6.969  1.8107  0.6883  2.1119
  160SAPE   H2S17895   2.862   5.546   6.902  0.9868 -0.1471  0.2796
  160SAPE    C317896   3.255   5.684   6.681  0.0007 -0.6358 -0.4644
  160SAPE    HX17897   3.200   5.774   6.648  0.6757 -0.8401 -2.1862
  160SAPE    HY17898   3.329   5.647   6.607  1.1971  0.3936  0.2201
  160SAPE   O3117899   3.320   5.702   6.809 -0.5569  0.6873 -0.0246
  160SAPE   C3117900   3.379   5.822   6.838 -0.5001  0.7749 -0.3208
  160SAPE   O3217901   3.360   5.921   6.778  0.1785 -0.2121  0.0839
  160SAPE   C3217902   3.460   5.805   6.966 -0.1318  0.3380 -0.0590
  160SAPE   H2X17903   3.531   5.719   6.957  0.4387  0.9044 -1.0473
  160SAPE   H2Y17904   3.390   5.782   7.050  0.9216  0.1184  0.7808
  160SAPE   C2317905   2.939   5.535   7.112 -0.3857  0.1801  0.0113
  160SAPE   H3R17906   3.021   5.566   7.181 -1.3252 -0.9768  1.6991
  160SAPE   H3S17907   2.941   5.424   7.117 -1.1084  0.2575  3.5498
  160SAPE   C2417908   2.809   5.558   7.183 -0.2833  0.6556  0.0079
  160SAPE   H4R17909   2.824   5.507   7.281 -0.2367  1.4331  0.4052
  160SAPE   H4S17910   2.724   5.507   7.134 -0.8342  0.3722  1.2496
  160SAPE   C2517911   2.782   5.705   7.211  0.4766  0.0320 -0.4149
  160SAPE   H5R17912   2.742   5.756   7.122  1.2362  0.9257 -0.2418
  160SAPE   C2617913   2.781   5.767   7.329  0.1336  0.0168  0.0499
  160SAPE   H6R17914   2.769   5.876   7.324 -0.6781 -0.1117 -0.8767
  160SAPE   C2717915   2.823   5.711   7.462  0.0100 -0.5965 -0.1511
  160SAPE   H7R17916   2.884   5.619   7.445  2.4553  0.4385  2.5645
  160SAPE   H7S17917   2.734   5.660   7.506 -0.8212  0.3377 -0.7205
  160SAPE   C2817918   2.890   5.814   7.547 -0.4866  0.2486 -0.2879
  160SAPE   H8R17919   2.983   5.858   7.507 -0.9186  0.3009 -1.2368
  160SAPE   C2917920   2.842   5.872   7.664 -0.3640 -0.1377  0.0513
  160SAPE   H9R17921   2.909   5.932   7.728  1.0976 -1.5434 -0.1158
  160SAPE  C21017922   2.713   5.839   7.733 -0.9072 -0.1303 -0.4215
  160SAPE  H10R17923   2.629   5.811   7.665 -1.4633 -0.9550  0.5920
  160SAPE  H10S17924   2.678   5.936   7.774  2.1483  1.4911 -1.5617
  160SAPE  C21117925   2.719   5.729   7.829  0.5547 -0.0800  0.0578
  160SAPE  H11R17926   2.772   5.641   7.790 -0.4279 -1.7737  2.4337
  160SAPE  C21217927   2.693   5.723   7.960 -0.0924 -0.1615 -0.4923
  160SAPE  H12R17928   2.693   5.621   8.003 -3.6616 -0.4328 -0.9925
  160SAPE  C21317929   2.632   5.840   8.028  0.3574  0.0399  0.8640
  160SAPE  H13R17930   2.558   5.888   7.962 -0.7397  0.2332  2.2118
  160SAPE  H13S17931   2.709   5.914   8.059  2.0289 -1.2540 -0.1338
  160SAPE  C21417932   2.547   5.812   8.152 -0.5542 -0.5623 -0.0873
  160SAPE  H14R17933   2.457   5.753   8.129 -1.1401 -0.1890  1.2200
  160SAPE  C21517934   2.572   5.820   8.286 -0.4896  0.2033  0.2216
  160SAPE  H15R17935   2.498   5.801   8.364 -0.5465 -2.1998 -0.3777
  160SAPE  C21617936   2.701   5.866   8.339 -0.0223 -0.1075 -0.5243
  160SAPE  H16R17937   2.690   5.973   8.367  0.1748  0.2363 -1.7599
  160SAPE  H16S17938   2.780   5.870   8.261 -0.2983  0.4703 -0.7766
  160SAPE  C21717939   2.755   5.800   8.471  0.0534 -0.1583  0.4848
  160SAPE  H17R17940   2.793   5.697   8.454  1.3700  0.3992  0.0632
  160SAPE  H17S17941   2.672   5.786   8.544 -0.0093  1.3529  0.7282
  160SAPE  C21817942   2.860   5.883   8.537 -0.1046 -0.3460 -0.1306
  160SAPE  H18R17943   2.814   5.983   8.550 -1.3959 -0.8179 -0.9556
  160SAPE  H18S17944   2.942   5.885   8.462 -0.1622  0.4966 -0.1708
  160SAPE  C21917945   2.907   5.824   8.675  0.1949 -0.4023 -0.1174
  160SAPE  H19R17946   2.948   5.724   8.649  0.4599  0.0422 -1.4515
  160SAPE  H19S17947   2.827   5.804   8.750 -1.6968  0.3008 -1.9221
  160SAPE  C22017948   3.022   5.908   8.733  0.7267 -0.0080 -0.2429
  160SAPE  H20R17949   2.991   6.009   8.766 -0.1523 -1.0604  2.2735
  160SAPE  H20S17950   3.111   5.911   8.668 -1.1706 -3.3531 -3.1695
  160SAPE  H20T17951   3.066   5.854   8.820 -0.6828  0.9736  1.1049
  160SAPE   C3317952   3.539   5.934   6.998  0.0675 -0.7793 -0.3525
  160SAPE   H3X17953   3.463   6.014   7.013  1.1304 -0.1745  2.0890
  160SAPE   H3Y17954   3.597   5.959   6.907  0.5290 -0.1347  0.1171
  160SAPE   C3417955   3.646   5.928   7.111  0.4738 -0.6206  0.1110
  160SAPE   H4X17956   3.724   5.855   7.081  1.8597  1.2686 -0.9536
  160SAPE   H4Y17957   3.594   5.900   7.205  2.6253 -1.7916  0.9923
  160SAPE   C3517958   3.710   6.064   7.132 -0.3126 -0.5124 -0.0028
  160SAPE   H5X17959   3.626   6.136   7.140 -0.0797 -0.2501  0.1067
  160SAPE   H5Y17960   3.766   6.082   7.038 -2.6896  2.7668 -0.8606
  160SAPE   C3617961   3.787   6.077   7.256 -0.8101  0.2043  0.2776
  160SAPE   H6X17962   3.890   6.042   7.229 -0.6202  1.4286 -0.6446
  160SAPE   H6Y17963   3.748   6.009   7.334 -1.6635  1.1918  0.7281
  160SAPE   C3717964   3.792   6.221   7.300  0.2480 -0.4319  0.4615
  160SAPE   H7X17965   3.693   6.245   7.342 -0.6655 -0.0346 -1.8338
  160SAPE   H7Y17966   3.821   6.282   7.211 -0.6495  0.5460  0.8281
  160SAPE   C3817967   3.893   6.257   7.402 -0.2934 -0.4787 -0.5210
  160SAPE   H8X17968   3.996   6.240   7.363 -0.0891  0.5624 -0.4449
  160SAPE   H8Y17969   3.877   6.195   7.493 -1.0045 -0.2686 -0.5041
  160SAPE   C3917970   3.875   6.405   7.445  0.5405  1.1838 -0.5803
  160SAPE   H9X17971   3.770   6.437   7.425 -0.1654 -0.9213 -0.3621
  160SAPE   H9Y17972   3.944   6.476   7.394  0.7740  0.0674 -1.8423
  160SAPE  C31017973   3.901   6.426   7.593  0.1951 -0.3169 -0.7113
  160SAPE  H10X17974   3.829   6.367   7.653 -0.4441  0.3185 -0.8527
  160SAPE  H10Y17975   3.897   6.533   7.622 -1.4110 -1.1319  2.2537
  160SAPE  C31117976   4.041   6.389   7.640  0.3201  0.4695 -0.3281
  160SAPE  H11X17977   4.106   6.432   7.561 -0.7425 -0.1097 -1.5381
  160SAPE  H11Y17978   4.049   6.279   7.624  0.2143  0.3459  0.4828
  160SAPE  C31217979   4.063   6.443   7.780 -0.1685  0.5268  0.7627
  160SAPE  H12X17980   3.980   6.411   7.847 -0.2783 -1.1563 -0.1486
  160SAPE  H12Y17981   4.050   6.553   7.777 -1.2423  0.3848 -0.1731
  160SAPE  C31317982   4.191   6.409   7.850 -0.6823 -0.4989  0.0868
  160SAPE  H13X17983   4.277   6.428   7.783 -0.7475 -1.6296 -0.3346
  160SAPE  H13Y17984   4.196   6.299   7.868  0.9781 -0.2486  1.2717
  160SAPE  C31417985   4.210   6.496   7.972  0.9132 -0.4103 -0.0011
  160SAPE  H14X17986   4.136   6.463   8.047 -1.1482  2.3433 -0.7267
  160SAPE  H14Y17987   4.183   6.602   7.950  2.1458 -0.6907 -3.2090
  160SAPE  C31517988   4.351   6.490   8.030  0.2206  0.2273  0.4771
  160SAPE  H15X17989   4.418   6.521   7.947 -0.2274  0.9280  0.3709
  160SAPE  H15Y17990   4.386   6.389   8.059  0.6665  0.2963  0.1920
  160SAPE  C31617991   4.377   6.586   8.148 -0.4148 -0.0696 -0.7280
  160SAPE  H16X17992   4.479   6.575   8.192 -0.7878  0.9053  0.3872
  160SAPE  H16Y17993   4.308   6.566   8.232 -0.4751  0.3224 -0.6805
  160SAPE  C31717994   4.363   6.738   8.117  0.1197 -0.2805  0.9424
  160SAPE  H17X17995   4.254   6.758   8.110  0.3401  0.9449  0.8387
  160SAPE  H17Y17996   4.390   6.750   8.010 -2.9161 -1.4891 -0.0122
  160SAPE  C31817997   4.447   6.828   8.196 -0.5017  0.3574  0.2418
  160SAPE  H18X17998   4.439   6.800   8.303 -2.0294 -1.7436 -0.3825
  160SAPE  H18Y17999   4.417   6.935   8.193  0.4517  0.6876  2.4422
  160SAPE  H18Z18000   4.555   6.818   8.173 -0.0869  2.0302  1.4068
  161SAPE     N18001   5.202   3.979   6.389 -0.0242 -0.3614  0.4517
  161SAPE   HN118002   5.133   3.917   6.342 -0.4114 -1.2643  2.1869
  161SAPE   HN218003   5.209   4.061   6.326 -0.6699 -0.1269  0.6819
  161SAPE   HN318004   5.293   3.928   6.382 -0.5139 -1.1683 -0.1833
  161SAPE   C1218005   5.177   4.009   6.537 -0.5748  0.0505  0.6493
  161SAPE  H12A18006   5.264   4.068   6.575  0.8154 -0.5448 -1.5094
  161SAPE  H12B18007   5.174   3.913   6.592 -0.7776  1.0161  2.3496
  161SAPE   C1118008   5.034   4.060   6.569  0.3052 -0.3895  0.6718
  161SAPE  H11A18009   5.029   4.169   6.549 -0.7179 -0.4509  0.6087
  161SAPE  H11B18010   5.021   4.040   6.678  1.4681  0.1667  0.9282
  161SAPE     P18011   4.779   4.037   6.511 -0.3775  0.4094  0.0551
  161SAPE   O1318012   4.748   4.172   6.462 -0.0119 -0.1607  0.4279
  161SAPE   O1418013   4.684   3.937   6.461  0.1485 -0.1718  0.0857
  161SAPE   O1218014   4.927   3.993   6.492  0.3349  0.0634  0.2816
  161SAPE   O1118015   4.763   4.033   6.669  0.0372 -0.6463  0.8354
  161SAPE    C118016   4.629   4.030   6.721 -0.4263 -0.9446 -0.3245
  161SAPE    HA18017   4.570   4.117   6.686 -0.0060 -0.6432 -0.2752
  161SAPE    HB18018   4.572   3.940   6.688 -0.1885 -0.3691 -2.3491
  161SAPE    C218019   4.631   4.035   6.870  0.3675  0.5958 -0.3298
  161SAPE    HS18020   4.658   3.931   6.896 -0.0556  1.0110  1.8837
  161SAPE   O2118021   4.501   4.076   6.910 -0.4797  0.3644 -0.0432
  161SAPE   C2118022   4.441   4.005   7.003 -0.1545  0.2182  0.3101
  161SAPE   O2218023   4.503   3.923   7.070  0.5624 -0.0622  0.3652
  161SAPE   C2218024   4.286   4.039   7.017 -0.2461 -0.4452 -0.5703
  161SAPE   H2R18025   4.273   4.107   7.105  2.5837  1.6880 -1.7393
  161SAPE   H2S18026   4.258   4.097   6.926 -0.8009  1.2201  0.6304
  161SAPE    C318027   4.741   4.136   6.915  0.2238 -0.1946 -0.1947
  161SAPE    HX18028   4.733   4.226   6.851  3.0292  1.1232  1.1951
  161SAPE    HY18029   4.844   4.100   6.895 -0.1915 -1.2663 -0.4144
  161SAPE   O3118030   4.723   4.177   7.051  0.2204  0.0721 -0.1408
  161SAPE   C3118031   4.784   4.095   7.132 -0.2006  0.6389  0.2841
  161SAPE   O3218032   4.858   4.001   7.094  0.5884 -0.1390  0.7768
  161SAPE   C3218033   4.735   4.105   7.277  0.1395 -0.1867  0.5490
  161SAPE   H2X18034   4.646   4.041   7.284 -0.4471  0.4712 -0.6549
  161SAPE   H2Y18035   4.716   4.214   7.292 -0.8240 -0.2354 -0.2963
  161SAPE   C2318036   4.189   3.919   7.034  0.4970 -0.1800 -0.0387
  161SAPE   H3R18037   4.195   3.836   6.961  2.5912  1.0275 -1.2830
  161SAPE   H3S18038   4.088   3.961   7.015 -0.3638 -2.0159  0.3824
  161SAPE   C2418039   4.203   3.868   7.180  0.0044  0.2152 -1.0679
  161SAPE   H4R18040   4.308   3.838   7.200 -0.3518 -1.2546 -1.3059
  161SAPE   H4S18041   4.130   3.785   7.170 -0.9460  1.0139 -0.7565
  161SAPE   C2518042   4.159   3.963   7.287  0.5909 -0.4011  0.4178
  161SAPE   H5R18043   4.049   3.966   7.299  0.6480  0.2299  0.7811
  161SAPE   C2618044   4.225   4.032   7.376 -0.2902  0.7283  0.2575
  161SAPE   H6R18045   4.170   4.079   7.460 -1.3709 -0.8166  0.4459
  161SAPE   C2718046   4.379   4.049   7.387  0.7395 -0.2872 -0.4180
  161SAPE   H7R18047   4.401   4.157   7.368  0.4625  0.0501  1.0612
  161SAPE   H7S18048   4.425   3.997   7.301  2.8172  0.2246  0.3422
  161SAPE   C2818049   4.442   3.992   7.517  0.3181 -0.0499 -0.1222
  161SAPE   H8R18050   4.483   3.890   7.513 -3.3956 -1.5511 -1.8842
  161SAPE   C2918051   4.449   4.062   7.631 -0.1286 -0.4954  0.2890
  161SAPE   H9R18052   4.479   4.012   7.724 -1.6997 -0.7389  0.6598
  161SAPE  C21018053   4.408   4.205   7.647  0.5062 -0.1821 -1.1463
  161SAPE  H10R18054   4.331   4.203   7.727  2.6016  1.2040  0.9660
  161SAPE  H10S18055   4.356   4.249   7.559  1.2943 -0.7742 -1.9118
  161SAPE  C21118056   4.518   4.298   7.678  0.5361 -0.4269  0.6767
  161SAPE  H11R18057   4.607   4.280   7.615 -1.3778 -0.6210 -2.0229
  161SAPE  C21218058   4.504   4.403   7.765  0.6217 -0.8854 -0.8902
  161SAPE  H12R18059   4.591   4.470   7.775 -1.2904  1.5094  0.4476
  161SAPE  C21318060   4.379   4.430   7.847 -0.3786 -0.0100  0.3148
  161SAPE  H13R18061   4.287   4.423   7.785 -0.7578  3.0676  0.4553
  161SAPE  H13S18062   4.384   4.531   7.894  2.7175 -0.5311  1.2239
  161SAPE  C21418063   4.376   4.342   7.972 -0.2722 -0.0059 -0.6709
  161SAPE  H14R18064   4.474   4.334   8.023  1.4455 -0.0299 -3.8439
  161SAPE  C21518065   4.275   4.268   8.016 -0.2175  0.8792 -0.6431
  161SAPE  H15R18066   4.286   4.199   8.101 -0.7018  2.3194  0.5994
  161SAPE  C21618067   4.132   4.260   7.952  0.1954  0.2962 -0.3477
  161SAPE  H16R18068   4.136   4.163   7.897 -1.5691 -1.2078  2.0529
  161SAPE  H16S18069   4.115   4.339   7.876  1.1460 -0.8490 -1.7878
  161SAPE  C21718070   4.016   4.253   8.052 -1.0768  0.2954  0.9039
  161SAPE  H17R18071   4.022   4.155   8.103  0.1527  0.2106  0.6099
  161SAPE  H17S18072   3.916   4.250   8.005 -1.3234  0.8417  1.3844
  161SAPE  C21818073   4.020   4.367   8.149 -0.2006  1.3623  0.1758
  161SAPE  H18R18074   3.915   4.397   8.167 -0.5877  1.2487 -1.7378
  161SAPE  H18S18075   4.069   4.453   8.097  0.1645  2.6436  2.5721
  161SAPE  C21918076   4.091   4.340   8.278 -0.4968  0.5467  0.2590
  161SAPE  H19R18077   4.166   4.260   8.260 -0.7456  0.6573 -1.3541
  161SAPE  H19S18078   4.012   4.310   8.350 -0.3212  0.2745  0.3381
  161SAPE  C22018079   4.166   4.456   8.336 -0.2739 -0.0291  0.2052
  161SAPE  H20R18080   4.096   4.539   8.358 -0.8984  0.0260 -1.8751
  161SAPE  H20S18081   4.242   4.498   8.268  0.6122 -1.9932 -0.0709
  161SAPE  H20T18082   4.208   4.423   8.434  1.2487  0.6775 -0.1979
  161SAPE   C3318083   4.839   4.053   7.367 -0.5054 -0.1557  0.1131
  161SAPE   H3X18084   4.923   4.125   7.368  0.1174 -0.8877  0.2031
  161SAPE   H3Y18085   4.877   3.950   7.349  1.7082  0.9351 -1.7380
  161SAPE   C3418086   4.780   4.049   7.506  0.1812 -0.5091 -0.2458
  161SAPE   H4X18087   4.704   3.970   7.488 -0.3523 -0.0015 -0.2409
  161SAPE   H4Y18088   4.730   4.145   7.530  0.1998 -0.4540 -0.4253
  161SAPE   C3518089   4.887   4.025   7.612  0.5215  0.3913 -0.1320
  161SAPE   H5X18090   4.986   4.074   7.597  0.8738  0.0125  0.8735
  161SAPE   H5Y18091   4.902   3.915   7.614  1.2007  0.4936  1.9242
  161SAPE   C3618092   4.832   4.060   7.747 -0.4626 -0.0311 -0.7495
  161SAPE   H6X18093   4.753   3.982   7.753 -0.7230 -0.2900 -5.6171
  161SAPE   H6Y18094   4.788   4.162   7.748 -0.6241 -0.0777  2.2861
  161SAPE   C3718095   4.902   4.044   7.875 -0.1384  0.3066 -0.2361
  161SAPE   H7X18096   5.007   4.082   7.875 -0.3102  0.7820 -0.1317
  161SAPE   H7Y18097   4.917   3.934   7.882 -1.4322  0.1942  0.8802
  161SAPE   C3818098   4.840   4.097   7.999  0.3845 -0.5847 -0.2646
  161SAPE   H8X18099   4.821   4.206   7.988  2.5093 -0.3738 -2.1816
  161SAPE   H8Y18100   4.914   4.079   8.079  2.3199  1.0783 -1.6307
  161SAPE   C3918101   4.694   4.041   8.017 -0.3608 -0.4634 -0.0085
  161SAPE   H9X18102   4.685   3.931   8.016  0.4162 -0.5325  0.4696
  161SAPE   H9Y18103   4.628   4.080   7.936  0.2065 -2.9899 -1.7543
  161SAPE  C31018104   4.630   4.095   8.145  0.3628 -0.4953 -0.2002
  161SAPE  H10X18105   4.539   4.035   8.170 -0.7181  1.2181  0.0531
  161SAPE  H10Y18106   4.598   4.200   8.127 -0.0237 -0.2554  1.7806
  161SAPE  C31118107   4.722   4.087   8.271 -0.4577  0.9823  0.1345
  161SAPE  H11X18108   4.811   4.143   8.235 -0.3157  0.5732 -0.1569
  161SAPE  H11Y18109   4.757   3.983   8.285  0.7313  1.4958  1.0491
  161SAPE  C31218110   4.648   4.124   8.398 -0.2676 -0.4637  0.0505
  161SAPE  H12X18111   4.560   4.055   8.402 -0.0706 -0.6569  1.6078
  161SAPE  H12Y18112   4.625   4.226   8.362 -0.8169 -1.3504 -2.2179
  161SAPE  C31318113   4.737   4.131   8.525  0.4610  0.8313  0.3589
  161SAPE  H13X18114   4.679   4.155   8.617  1.3261  0.7780  0.9250
  161SAPE  H13Y18115   4.828   4.195   8.522  1.7494 -0.9448  1.1401
  161SAPE  C31418116   4.791   3.983   8.548 -0.0753 -1.1069  0.1006
  161SAPE  H14X18117   4.868   3.996   8.627 -0.4083  0.3184  0.1935
  161SAPE  H14Y18118   4.846   3.940   8.461 -0.2248  1.6906 -1.4343
  161SAPE  C31518119   4.681   3.888   8.592  0.2105 -0.3026 -0.1201
  161SAPE  H15X18120   4.694   3.787   8.549  0.3762 -0.9570  1.4244
  161SAPE  H15Y18121   4.582   3.928   8.559 -0.7037 -0.8763  1.8320
  161SAPE  C31618122   4.687   3.881   8.746  0.3607  0.6003  0.1012
  161SAPE  H16X18123   4.645   3.970   8.797 -1.3148  1.0052 -1.9465
  161SAPE  H16Y18124   4.795   3.875   8.774  0.7989  0.6816 -1.5367
  161SAPE  C31718125   4.614   3.753   8.798  0.5113  0.0613 -0.5256
  161SAPE  H17X18126   4.603   3.762   8.908  2.1614 -2.0870 -0.1542
  161SAPE  H17Y18127   4.683   3.667   8.780  0.2300 -0.6061  1.5038
  161SAPE  C31818128   4.479   3.731   8.746 -0.8403 -0.2944  1.0294
  161SAPE  H18X18129   4.411   3.812   8.780 -1.1563  0.4306 -1.2747
  161SAPE  H18Y18130   4.436   3.636   8.784 -3.4489  0.3715 -0.1694
  161SAPE  H18Z18131   4.471   3.723   8.636 -0.1838 -1.4959  1.0518
  162SAPE     N18132   4.469   5.923   6.387 -1.1055 -0.5247 -0.0551
  162SAPE   HN118133   4.367   5.936   6.375 -0.9091  0.8444 -0.2985
  162SAPE   HN218134   4.513   5.923   6.293 -1.2616 -2.9837 -0.1561
  162SAPE   HN318135   4.481   5.826   6.424  1.1138 -0.3064 -0.1431
  162SAPE   C1218136   4.543   6.028   6.468  0.1667 -0.3717  0.0911
  162SAPE  H12A18137   4.651   6.025   6.444  0.5619 -0.5170  1.7843
  162SAPE  H12B18138   4.525   5.992   6.572  1.2738 -0.1324  0.3731
  162SAPE   C1118139   4.467   6.156   6.448 -0.6430  0.0773 -0.3873
  162SAPE  H11A18140   4.530   6.234   6.497  1.3029 -0.9932 -1.1197
  162SAPE  H11B18141   4.377   6.148   6.512  0.4351  0.9702  1.2900
  162SAPE     P18142   4.514   6.267   6.212  0.1891 -0.1671  0.5172
  162SAPE   O1318143   4.646   6.199   6.173  0.8060 -0.3463 -0.1090
  162SAPE   O1418144   4.420   6.299   6.100  0.1751 -0.1725 -0.8638
  162SAPE   O1218145   4.429   6.178   6.312 -0.0953  0.6471  0.5666
  162SAPE   O1118146   4.529   6.400   6.293 -0.0491  0.4251  0.3545
  162SAPE    C118147   4.408   6.462   6.353  0.8452  0.7931 -0.5696
  162SAPE    HA18148   4.316   6.454   6.291  0.6975 -0.9756 -0.1512
  162SAPE    HB18149   4.385   6.408   6.447  1.1973  0.0224 -0.9278
  162SAPE    C218150   4.439   6.611   6.392 -0.1982  0.5455  0.0954
  162SAPE    HS18151   4.487   6.648   6.298 -0.4973  1.2226  0.2045
  162SAPE   O2118152   4.519   6.618   6.511 -0.0850 -0.3277 -0.1740
  162SAPE   C2118153   4.583   6.737   6.535  0.0095  0.3800  0.5551
  162SAPE   O2218154   4.570   6.834   6.463 -0.3180  0.1261 -0.0957
  162SAPE   C2218155   4.676   6.719   6.654  0.0340 -0.8816  0.4541
  162SAPE   H2R18156   4.622   6.679   6.742  1.8428 -1.6696  1.2271
  162SAPE   H2S18157   4.762   6.649   6.653 -0.1366 -1.1032  1.0331
  162SAPE    C318158   4.311   6.690   6.433  0.0474 -0.1619  0.4095
  162SAPE    HX18159   4.238   6.679   6.349  2.1483  0.8838 -1.6166
  162SAPE    HY18160   4.330   6.798   6.448 -0.0302  0.1016 -1.3168
  162SAPE   O3118161   4.246   6.630   6.548 -0.1065 -0.1847  0.2435
  162SAPE   C3118162   4.180   6.724   6.623 -1.2542  0.0338 -0.0120
  162SAPE   O3218163   4.186   6.840   6.600  0.1675 -0.0114 -0.4435
  162SAPE   C3218164   4.116   6.667   6.744 -0.2556 -0.2066  0.0254
  162SAPE   H2X18165   4.061   6.576   6.712  0.9330 -0.7967 -0.3903
  162SAPE   H2Y18166   4.053   6.751   6.782 -0.5036 -0.8807  1.1372
  162SAPE   C2318167   4.714   6.858   6.699 -0.8225  0.0253 -0.4358
  162SAPE   H3R18168   4.632   6.932   6.711 -0.2152  0.3404  1.8983
  162SAPE   H3S18169   4.774   6.907   6.619  1.6936  0.2414  1.5500
  162SAPE   C2418170   4.792   6.840   6.828  0.1395  0.2917 -0.6293
  162SAPE   H4R18171   4.876   6.772   6.807 -0.8739 -1.9482  2.1147
  162SAPE   H4S18172   4.733   6.778   6.899 -1.9422  1.0060 -1.6910
  162SAPE   C2518173   4.845   6.953   6.911 -0.3817  0.3912 -0.1744
  162SAPE   H5R18174   4.775   7.038   6.912  0.8382  1.3842  0.2937
  162SAPE   C2618175   4.970   6.972   6.966 -0.6250 -0.0368  0.2446
  162SAPE   H6R18176   4.997   7.058   7.030 -0.2637 -1.5906  2.2485
  162SAPE   C2718177   5.085   6.870   6.953 -0.1694  0.0115 -0.0208
  162SAPE   H7R18178   5.171   6.930   6.916  0.6199 -1.6931 -0.9950
  162SAPE   H7S18179   5.063   6.818   6.858  2.3997  0.9207 -1.1806
  162SAPE   C2818180   5.122   6.788   7.077 -0.3721 -0.7916 -0.3241
  162SAPE   H8R18181   5.083   6.685   7.079  2.8888 -2.0540  1.2672
  162SAPE   C2918182   5.206   6.831   7.171  0.6848  0.1943 -0.4066
  162SAPE   H9R18183   5.221   6.760   7.254 -2.6200 -2.1033 -1.6768
  162SAPE  C21018184   5.285   6.959   7.191 -0.4552  0.5120  0.0906
  162SAPE  H10R18185   5.294   7.015   7.096  0.3112  0.4608  0.1247
  162SAPE  H10S18186   5.388   6.936   7.226 -0.2448  0.3997 -0.5970
  162SAPE  C21118187   5.228   7.062   7.289  0.1055 -0.2607 -0.1161
  162SAPE  H11R18188   5.139   7.117   7.254  0.3796  0.3067  0.0793
  162SAPE  C21218189   5.258   7.083   7.418 -0.0231 -0.7776  0.4113
  162SAPE  H12R18190   5.215   7.172   7.466 -2.3737 -0.1413 -2.7515
  162SAPE  C21318191   5.354   7.006   7.494  0.0244 -0.0652 -0.0500
  162SAPE  H13R18192   5.434   7.079   7.520  0.4803  0.0601 -1.7320
  162SAPE  H13S18193   5.398   6.920   7.439  0.8434  0.7291 -0.6475
  162SAPE  C21418194   5.299   6.976   7.627  0.5991  0.2986  0.3363
  162SAPE  H14R18195   5.311   7.061   7.696 -0.7878  1.7628 -1.2080
  162SAPE  C21518196   5.233   6.865   7.665 -0.3898 -0.6543  0.0803
  162SAPE  H15R18197   5.204   6.852   7.770  0.3480 -0.7629  0.2732
  162SAPE  C21618198   5.207   6.745   7.580  0.6716  0.1315 -0.1621
  162SAPE  H16R18199   5.257   6.663   7.636  0.3523 -0.2236 -0.3924
  162SAPE  H16S18200   5.252   6.765   7.481 -2.3277 -2.3982 -2.1248
  162SAPE  C21718201   5.061   6.702   7.553  0.3142  0.0636  0.8123
  162SAPE  H17R18202   5.004   6.694   7.648 -1.2892  1.0810 -0.0453
  162SAPE  H17S18203   5.057   6.612   7.488 -0.4448  1.2047 -0.7505
  162SAPE  C21818204   4.974   6.799   7.462 -0.3772 -0.0431 -0.5644
  162SAPE  H18R18205   5.025   6.824   7.367  2.1377  3.1068  1.5089
  162SAPE  H18S18206   4.968   6.891   7.524  1.1142 -0.3729  0.1025
  162SAPE  C21918207   4.840   6.737   7.429  1.3174  1.1539 -0.2195
  162SAPE  H19R18208   4.789   6.767   7.523  2.4563  1.0850  0.4274
  162SAPE  H19S18209   4.849   6.626   7.428  0.7809  1.1082 -0.4849
  162SAPE  C22018210   4.770   6.805   7.309 -0.7244 -0.0028  0.6335
  162SAPE  H20R18211   4.670   6.756   7.305  0.2642 -1.9617 -1.8459
  162SAPE  H20S18212   4.816   6.789   7.209  0.3748  1.3656  0.9083
  162SAPE  H20T18213   4.774   6.915   7.316  1.6283  0.0174 -0.4621
  162SAPE   C3318214   4.216   6.655   6.859  0.5227  0.0589 -0.3449
  162SAPE   H3X18215   4.281   6.567   6.836  1.6280  0.8518 -0.3208
  162SAPE   H3Y18216   4.156   6.615   6.944  2.2161 -2.0120 -0.0541
  162SAPE   C3418217   4.289   6.782   6.905 -0.0435  0.2518  0.9243
  162SAPE   H4X18218   4.209   6.833   6.963 -1.9788 -1.2154 -0.3904
  162SAPE   H4Y18219   4.308   6.843   6.814  0.0476 -1.2275 -0.0513
  162SAPE   C3518220   4.418   6.754   6.975 -0.0616 -0.3762  0.1060
  162SAPE   H5X18221   4.463   6.845   7.020  1.7499 -0.7036 -1.0074
  162SAPE   H5Y18222   4.487   6.725   6.893 -0.7738 -0.4499 -0.4754
  162SAPE   C3618223   4.416   6.640   7.077 -0.1441  0.2113  0.2828
  162SAPE   H6X18224   4.517   6.618   7.118  1.0179  1.6062 -1.7656
  162SAPE   H6Y18225   4.373   6.544   7.041  4.0189 -0.9768 -1.8525
  162SAPE   C3718226   4.319   6.682   7.196 -0.2627  0.8418 -0.3099
  162SAPE   H7X18227   4.214   6.677   7.161 -1.1529 -1.5080  2.5701
  162SAPE   H7Y18228   4.347   6.785   7.228  0.3446  1.1048 -1.6032
  162SAPE   C3818229   4.316   6.577   7.306  0.1045  0.0382 -0.1243
  162SAPE   H8X18230   4.324   6.475   7.262 -0.3001 -0.2318  0.4147
  162SAPE   H8Y18231   4.216   6.576   7.356 -0.0225  0.6851 -0.3676
  162SAPE   C3918232   4.412   6.598   7.416  0.1994 -0.4488  0.4148
  162SAPE   H9X18233   4.503   6.637   7.367 -0.9539  0.5752 -0.9431
  162SAPE   H9Y18234   4.428   6.498   7.462  0.7442 -1.4662 -1.9178
  162SAPE  C31018235   4.362   6.703   7.522 -0.1299  0.1558  0.6670
  162SAPE  H10X18236   4.272   6.655   7.564 -0.2602 -3.3616 -3.3420
  162SAPE  H10Y18237   4.340   6.794   7.461  2.2175  0.8370  0.7684
  162SAPE  C31118238   4.463   6.740   7.627 -0.4865 -0.4208 -0.6150
  162SAPE  H11X18239   4.410   6.779   7.716  2.5516  1.8359  0.2733
  162SAPE  H11Y18240   4.530   6.819   7.586 -1.4861  0.3908 -0.6950
  162SAPE  C31218241   4.542   6.623   7.683 -0.4956  0.4146 -0.2271
  162SAPE  H12X18242   4.619   6.594   7.609  1.5436  2.4543  1.0233
  162SAPE  H12Y18243   4.487   6.531   7.712  0.0555 -0.1005 -0.8067
  162SAPE  C31318244   4.636   6.653   7.801 -0.7969 -0.5149 -0.1203
  162SAPE  H13X18245   4.572   6.682   7.887 -1.1867 -0.0519 -0.5620
  162SAPE  H13Y18246   4.691   6.742   7.764  0.1924 -0.2436  1.9691
  162SAPE  C31418247   4.729   6.534   7.845  0.1801  0.5512 -0.3311
  162SAPE  H14X18248   4.809   6.499   7.777  0.0753 -3.5242  1.4785
  162SAPE  H14Y18249   4.658   6.450   7.863  2.3349 -1.9839 -3.2819
  162SAPE  C31518250   4.805   6.554   7.983  0.3760 -0.2926 -0.7057
  162SAPE  H15X18251   4.868   6.464   7.999  0.8042  0.2101  0.4504
  162SAPE  H15Y18252   4.732   6.559   8.067  1.5124  1.4516  0.1984
  162SAPE  C31618253   4.894   6.680   7.989 -0.6513  0.2761 -0.5262
  162SAPE  H16X18254   4.825   6.767   7.981 -1.9750 -0.6369  0.6961
  162SAPE  H16Y18255   4.954   6.677   7.896 -2.2156 -1.0998 -1.5324
  162SAPE  C31718256   4.982   6.700   8.116 -0.0595  0.0155  0.1074
  162SAPE  H17X18257   4.929   6.660   8.205  1.9323 -0.4986  1.0861
  162SAPE  H17Y18258   4.988   6.811   8.118 -1.2799  0.1362 -1.8116
  162SAPE  C31818259   5.121   6.632   8.104 -0.1629 -0.4996 -0.1757
  162SAPE  H18X18260   5.180   6.658   8.013  1.2063  0.5814  1.0039
  162SAPE  H18Y18261   5.106   6.523   8.118  1.7525 -0.7601 -0.1334
  162SAPE  H18Z18262   5.186   6.662   8.188 -0.5352  0.8217 -0.3390
  163SAPE     N18263   2.460   4.368   6.455 -0.6255  0.0604  0.1450
  163SAPE   HN118264   2.361   4.338   6.452 -0.1424 -1.8711  2.4860
  163SAPE   HN218265   2.467   4.443   6.383 -1.8359  0.1570  0.1129
  163SAPE   HN318266   2.533   4.296   6.439  0.0749  1.2433 -2.2464
  163SAPE   C1218267   2.480   4.425   6.595  0.1526 -0.4653  0.5628
  163SAPE  H12A18268   2.543   4.515   6.583 -1.2516  0.3106 -1.2544
  163SAPE  H12B18269   2.533   4.342   6.647  2.0916  0.0423 -0.5486
  163SAPE   C1118270   2.347   4.469   6.660 -0.0915  0.0082  0.0546
  163SAPE  H11A18271   2.373   4.517   6.756  0.7898  1.6326 -0.9674
  163SAPE  H11B18272   2.304   4.370   6.685 -1.8501  0.4292 -1.1836
  163SAPE     P18273   2.121   4.565   6.600 -0.2635 -0.0069  0.2454
  163SAPE   O1318274   2.090   4.702   6.560  0.1338 -0.4193 -0.1144
  163SAPE   O1418275   2.049   4.462   6.519 -0.0447  0.1731  0.3173
  163SAPE   O1218276   2.269   4.543   6.565  0.4753 -0.0505 -0.2882
  163SAPE   O1118277   2.109   4.548   6.756  0.2667 -0.2694  0.2504
  163SAPE    C118278   2.066   4.657   6.839  0.1810 -1.0918  0.6271
  163SAPE    HA18279   1.966   4.676   6.796  0.7065 -0.2706 -0.2446
  163SAPE    HB18280   2.048   4.619   6.942  1.3246 -1.0486  0.8552
  163SAPE    C218281   2.165   4.777   6.849  0.4105 -0.6364 -0.2089
  163SAPE    HS18282   2.201   4.806   6.748  1.8018 -0.7402  0.2463
  163SAPE   O2118283   2.275   4.751   6.936  0.2508  0.4504  0.0372
  163SAPE   C2118284   2.394   4.809   6.910  0.2590  0.6438  0.2070
  163SAPE   O2218285   2.412   4.885   6.822 -0.2359  0.3015  0.1770
  163SAPE   C2218286   2.506   4.768   7.016 -0.1571  0.1169 -0.3605
  163SAPE   H2R18287   2.488   4.659   7.030 -1.5816  0.0527 -2.4647
  163SAPE   H2S18288   2.605   4.790   6.971  1.1291 -1.3883  1.6226
  163SAPE    C318289   2.092   4.906   6.894 -0.3609  0.5737  0.2011
  163SAPE    HX18290   2.023   4.932   6.812  0.2157  2.2905  0.2587
  163SAPE    HY18291   2.156   4.997   6.900 -1.7034  1.4159  2.5216
  163SAPE   O3118292   2.016   4.878   7.011 -0.2075 -0.2423 -0.0972
  163SAPE   C3118293   2.064   4.923   7.123 -0.3210  0.5890  0.6443
  163SAPE   O3218294   2.161   4.995   7.139 -0.2871 -0.1798  1.2913
  163SAPE   C3218295   1.979   4.865   7.235  1.1024  0.6592  0.4189
  163SAPE   H2X18296   1.944   4.767   7.196 -0.1389  1.1532  0.2831
  163SAPE   H2Y18297   1.896   4.932   7.265  1.5680  1.9342 -1.0553
  163SAPE   C2318298   2.482   4.845   7.142 -0.2036 -0.0257  0.2668
  163SAPE   H3R18299   2.373   4.832   7.158 -0.0534 -0.9525  0.5942
  163SAPE   H3S18300   2.501   4.954   7.128 -0.4721 -0.1435 -0.9904
  163SAPE   C2418301   2.555   4.802   7.273  0.3100 -0.2065  0.5663
  163SAPE   H4R18302   2.518   4.875   7.349 -1.6937  0.6934 -1.2272
  163SAPE   H4S18303   2.664   4.801   7.253 -0.2420 -1.6268 -2.6259
  163SAPE   C2518304   2.527   4.666   7.317  0.6346  0.2832  0.1213
  163SAPE   H5R18305   2.544   4.584   7.245  1.2158  0.3457  0.1876
  163SAPE   C2618306   2.477   4.624   7.432 -0.1789 -0.6797 -0.1999
  163SAPE   H6R18307   2.463   4.515   7.441  0.3156 -0.6886  0.5240
  163SAPE   C2718308   2.440   4.695   7.555 -0.0780  0.8706 -0.2988
  163SAPE   H7R18309   2.382   4.632   7.625  0.1452  1.9886  0.9235
  163SAPE   H7S18310   2.374   4.780   7.528  0.3623  0.9288 -1.2026
  163SAPE   C2818311   2.557   4.754   7.629 -0.3334 -0.9713  0.0389
  163SAPE   H8R18312   2.624   4.819   7.571  0.5632 -1.1272  0.8903
  163SAPE   C2918313   2.579   4.749   7.762 -0.1965  0.1553 -0.0660
  163SAPE   H9R18314   2.678   4.781   7.800 -0.3685 -0.5843  1.0364
  163SAPE  C21018315   2.507   4.687   7.875 -0.2816 -0.0301  0.6893
  163SAPE  H10R18316   2.553   4.587   7.862 -2.1959 -0.8561  0.2100
  163SAPE  H10S18317   2.400   4.664   7.854  0.5102 -2.8420 -0.5562
  163SAPE  C21118318   2.537   4.737   8.010  0.4333  0.4692 -0.1410
  163SAPE  H11R18319   2.629   4.797   8.017  0.5338  0.3599 -0.5089
  163SAPE  C21218320   2.473   4.707   8.123 -0.2085  0.5820  1.1611
  163SAPE  H12R18321   2.497   4.763   8.214  0.3048 -0.4197  1.6353
  163SAPE  C21318322   2.354   4.612   8.116 -0.1726  0.2843  0.3376
  163SAPE  H13R18323   2.381   4.525   8.052 -0.9088  0.3445 -0.0650
  163SAPE  H13S18324   2.262   4.649   8.065  0.7074  1.1771 -0.6481
  163SAPE  C21418325   2.319   4.547   8.249 -0.2371  0.3711 -0.3792
  163SAPE  H14R18326   2.226   4.586   8.295  0.9512  0.6101  1.8848
  163SAPE  C21518327   2.390   4.445   8.315  0.6183 -0.3246 -0.2222
  163SAPE  H15R18328   2.340   4.403   8.403 -0.8409  2.4405  0.3433
  163SAPE  C21618329   2.522   4.389   8.260  0.2469 -0.3831  0.1866
  163SAPE  H16R18330   2.591   4.372   8.345  0.4821 -2.6839 -0.4442
  163SAPE  H16S18331   2.568   4.450   8.179  2.0416  0.1385  1.5598
  163SAPE  C21718332   2.497   4.249   8.197  0.1177 -0.4172  0.1989
  163SAPE  H17R18333   2.584   4.224   8.133  0.5935  1.0394  0.2732
  163SAPE  H17S18334   2.411   4.268   8.129 -0.0514  1.4228  0.9188
  163SAPE  C21818335   2.472   4.121   8.289 -0.8759 -0.4823  0.2920
  163SAPE  H18R18336   2.391   4.146   8.361 -0.6536  2.6500 -0.4615
  163SAPE  H18S18337   2.573   4.106   8.333 -1.2648 -1.7296  0.7829
  163SAPE  C21918338   2.425   3.992   8.218 -0.0440 -0.5074 -0.4111
  163SAPE  H19R18339   2.477   3.991   8.120 -0.6535  2.1317 -0.7833
  163SAPE  H19S18340   2.319   3.976   8.186 -0.2907  0.6466 -0.1970
  163SAPE  C22018341   2.463   3.862   8.293 -0.7540  0.4800  0.2357
  163SAPE  H20R18342   2.437   3.877   8.400 -0.6171  0.5211  0.2628
  163SAPE  H20S18343   2.572   3.850   8.276 -0.7071  0.4795  0.5440
  163SAPE  H20T18344   2.414   3.772   8.250  0.0599  0.0059  0.3121
  163SAPE   C3318345   2.065   4.837   7.366 -0.4900  0.3524 -0.3092
  163SAPE   H3X18346   2.090   4.934   7.413 -0.3342  1.3452 -2.3822
  163SAPE   H3Y18347   2.157   4.780   7.343  0.2278  1.5319 -0.3733
  163SAPE   C3418348   1.979   4.759   7.467 -0.2709 -0.1851 -0.3346
  163SAPE   H4X18349   1.966   4.651   7.442  0.8290  0.1344 -2.4538
  163SAPE   H4Y18350   1.883   4.813   7.480 -0.7515 -1.3609  1.1427
  163SAPE   C3518351   2.055   4.770   7.602 -0.2664  0.2214  0.8578
  163SAPE   H5X18352   2.052   4.879   7.622 -0.4886  0.1697  1.1053
  163SAPE   H5Y18353   2.158   4.733   7.580 -0.9845 -0.5835 -1.3146
  163SAPE   C3618354   1.991   4.673   7.700 -0.3082 -0.2355  0.1315
  163SAPE   H6X18355   1.991   4.571   7.657 -3.1575 -0.2597  0.0904
  163SAPE   H6Y18356   1.881   4.684   7.708 -0.4355 -1.7517  0.5999
  163SAPE   C3718357   2.054   4.693   7.834 -0.6147  0.0541 -0.1729
  163SAPE   H7X18358   2.163   4.710   7.816  0.1123 -0.3688  3.4192
  163SAPE   H7Y18359   2.047   4.598   7.890 -0.4046 -0.8953 -1.7304
  163SAPE   C3818360   2.015   4.814   7.917  0.4959 -0.5181 -0.0605
  163SAPE   H8X18361   1.905   4.831   7.923  0.6574  0.3967  0.4990
  163SAPE   H8Y18362   2.048   4.903   7.861 -0.9660 -0.8749 -1.5157
  163SAPE   C3918363   2.077   4.828   8.058 -0.5696  0.0708 -0.3651
  163SAPE   H9X18364   2.184   4.846   8.033  0.0617  0.5274  2.4627
  163SAPE   H9Y18365   2.060   4.733   8.112 -0.9060 -0.2678 -1.0570
  163SAPE  C31018366   2.025   4.945   8.145  0.6432 -0.0846 -0.1641
  163SAPE  H10X18367   1.920   4.917   8.170 -0.4645  3.2700 -0.8060
  163SAPE  H10Y18368   2.021   5.043   8.094 -2.3907 -0.6082 -1.0098
  163SAPE  C31118369   2.104   4.954   8.270 -0.1022  0.4331  0.9319
  163SAPE  H11X18370   2.210   4.980   8.245  0.2604 -1.8676 -0.0034
  163SAPE  H11Y18371   2.098   4.865   8.335  0.6440  1.1753  2.0424
  163SAPE  C31218372   2.060   5.077   8.348 -0.1687 -0.2208 -0.0268
  163SAPE  H12X18373   1.950   5.074   8.364 -0.6332  1.7854 -2.5844
  163SAPE  H12Y18374   2.088   5.166   8.288  0.2081 -1.7182 -2.1160
  163SAPE  C31318375   2.115   5.078   8.492  0.2339 -0.5474  0.1845
  163SAPE  H13X18376   2.221   5.049   8.509  0.7011  0.3344 -1.1485
  163SAPE  H13Y18377   2.056   4.997   8.540 -0.4834 -0.4917 -0.5955
  163SAPE  C31418378   2.094   5.212   8.557  0.4288 -0.4638 -0.5892
  163SAPE  H14X18379   2.105   5.222   8.667  0.8845 -2.6904 -0.4063
  163SAPE  H14Y18380   1.993   5.254   8.536  1.2998  0.8638 -2.2196
  163SAPE  C31518381   2.185   5.329   8.502  0.4804  1.6635 -0.5056
  163SAPE  H15X18382   2.130   5.425   8.515 -1.2851  0.6484 -0.2215
  163SAPE  H15Y18383   2.188   5.319   8.391  2.5056  1.5392 -0.4544
  163SAPE  C31618384   2.329   5.329   8.556  0.5623  0.2517 -0.6781
  163SAPE  H16X18385   2.360   5.223   8.567 -1.8244 -0.3716  0.5582
  163SAPE  H16Y18386   2.334   5.348   8.666 -0.4539 -1.4860 -0.3070
  163SAPE  C31718387   2.431   5.411   8.487 -0.5048  0.1237  0.8597
  163SAPE  H17X18388   2.402   5.433   8.382  2.0552 -0.4647 -0.0057
  163SAPE  H17Y18389   2.529   5.360   8.480 -0.4391 -0.1743  3.3845
  163SAPE  C31818390   2.467   5.537   8.571  0.1655  0.1683 -0.0421
  163SAPE  H18X18391   2.516   5.509   8.666 -1.3146 -1.5593  0.2454
  163SAPE  H18Y18392   2.377   5.595   8.600  1.4147  2.3038 -0.2839
  163SAPE  H18Z18393   2.540   5.607   8.524  0.9574 -0.0530  0.8704
  164SAPE     N18394   5.840   1.298   6.088  0.3964  0.2940 -0.0355
  164SAPE   HN118395   5.745   1.287   6.049  0.8896 -0.6914 -0.9899
  164SAPE   HN218396   5.888   1.340   6.005 -0.0188  1.7218  0.4438
  164SAPE   HN318397   5.888   1.206   6.100  1.4582  0.8370 -0.0851
  164SAPE   C1218398   5.849   1.390   6.206  0.2952  0.6908 -0.5625
  164SAPE  H12A18399   5.953   1.397   6.245  0.3391  0.2820 -0.5998
  164SAPE  H12B18400   5.787   1.348   6.288  0.0001 -1.4904 -1.8748
  164SAPE   C1118401   5.807   1.526   6.162  0.4318 -0.6480  0.0641
  164SAPE  H11A18402   5.780   1.586   6.252  1.9474 -0.0293  0.1237
  164SAPE  H11B18403   5.711   1.516   6.107  0.7936  2.9787 -1.4204
  164SAPE     P18404   5.894   1.742   6.045 -0.2043 -0.3791 -0.2467
  164SAPE   O1318405   6.011   1.773   5.959  0.1927 -0.4236  0.1190
  164SAPE   O1418406   5.764   1.766   5.991  0.4385  0.2075  0.2220
  164SAPE   O1218407   5.903   1.586   6.073  0.0279 -0.0932  0.5922
  164SAPE   O1118408   5.902   1.812   6.186  0.0527 -0.8679  0.0459
  164SAPE    C118409   5.908   1.954   6.198 -0.3040  0.5670  0.2628
  164SAPE    HA18410   6.005   2.002   6.169  0.4956 -0.6110  0.9571
  164SAPE    HB18411   5.821   2.000   6.146 -0.6554  1.6697  1.7837
  164SAPE    C218412   5.864   2.002   6.340  0.2035  0.1878 -0.5576
  164SAPE    HS18413   5.852   2.110   6.320 -1.6044 -0.1441 -1.3349
  164SAPE   O2118414   5.980   1.989   6.425 -0.4861 -0.4507 -0.1435
  164SAPE   C2118415   5.989   2.081   6.519  0.2466  0.6854  0.2530
  164SAPE   O2218416   5.913   2.174   6.538 -0.7648  0.6106 -0.3753
  164SAPE   C2218417   6.111   2.059   6.600  0.4084  0.2057 -0.2196
  164SAPE   H2R18418   6.166   1.972   6.558 -1.8320 -0.4936 -1.7651
  164SAPE   H2S18419   6.173   2.150   6.585  1.1079 -0.4286 -1.2444
  164SAPE    C318420   5.747   1.912   6.391  0.7804 -0.0286 -0.7450
  164SAPE    HX18421   5.781   1.810   6.418  0.8703  0.3215  0.5017
  164SAPE    HY18422   5.683   1.914   6.300 -1.0005  0.2453  0.5075
  164SAPE   O3118423   5.687   1.960   6.512  0.0903  0.1486 -0.4496
  164SAPE   C3118424   5.590   2.050   6.505 -0.5012 -0.3650  0.1786
  164SAPE   O3218425   5.548   2.105   6.402 -0.1280  0.3252  0.3794
  164SAPE   C3218426   5.545   2.092   6.647 -0.0036 -0.6979  0.0324
  164SAPE   H2X18427   5.444   2.045   6.657  0.4204 -2.2073 -2.2790
  164SAPE   H2Y18428   5.544   2.202   6.655  0.2354 -0.6239 -0.9217
  164SAPE   C2318429   6.083   2.039   6.747 -0.1706 -0.2774 -0.0383
  164SAPE   H3R18430   6.040   2.134   6.784 -0.6263 -0.1651 -0.8391
  164SAPE   H3S18431   6.172   2.019   6.810  0.6287  0.9269 -0.7763
  164SAPE   C2418432   5.995   1.909   6.770  0.1532 -0.5578  0.1278
  164SAPE   H4R18433   5.899   1.912   6.713  0.0108 -1.3209  0.3126
  164SAPE   H4S18434   5.959   1.911   6.875  0.0635 -0.5011  0.0957
  164SAPE   C2518435   6.067   1.780   6.741  0.6541 -0.1135 -0.0508
  164SAPE   H5R18436   6.054   1.729   6.645 -1.3087 -0.1659  0.2293
  164SAPE   C2618437   6.151   1.721   6.828 -0.0456  0.6308 -0.1957
  164SAPE   H6R18438   6.189   1.624   6.793  1.3377  1.5340 -1.2838
  164SAPE   C2718439   6.203   1.766   6.966 -0.5278 -0.2931  0.5831
  164SAPE   H7R18440   6.136   1.727   7.047 -0.5653 -2.9522 -0.6740
  164SAPE   H7S18441   6.190   1.876   6.971  3.4282  0.2601 -0.3465
  164SAPE   C2818442   6.346   1.732   6.986  0.6543  0.0173 -0.1442
  164SAPE   H8R18443   6.406   1.743   6.894  2.2007  0.2856  0.8872
  164SAPE   C2918444   6.400   1.665   7.090  0.5549  0.3183  0.0086
  164SAPE   H9R18445   6.503   1.627   7.087 -0.2322 -1.9480  1.1152
  164SAPE  C21018446   6.342   1.627   7.217 -0.1426 -0.3097 -0.1603
  164SAPE  H10R18447   6.389   1.528   7.238  1.9534  0.4066 -1.3828
  164SAPE  H10S18448   6.232   1.613   7.211 -0.1291  0.2042 -1.5873
  164SAPE  C21118449   6.386   1.721   7.327  0.5295  0.4016  0.3095
  164SAPE  H11R18450   6.477   1.779   7.311 -0.1054  0.8238 -2.0488
  164SAPE  C21218451   6.331   1.741   7.451  0.2394 -0.1201 -0.3490
  164SAPE  H12R18452   6.389   1.809   7.515 -2.0505 -0.4498  2.1340
  164SAPE  C21318453   6.208   1.678   7.514  0.3868  0.0750  0.1458
  164SAPE  H13R18454   6.158   1.601   7.453  0.0373 -0.4842  1.1354
  164SAPE  H13S18455   6.133   1.758   7.534  0.9184  1.3678 -2.6798
  164SAPE  C21418456   6.252   1.609   7.643 -0.1354  0.0412  0.3801
  164SAPE  H14R18457   6.293   1.508   7.628  2.0644  0.8674  0.6254
  164SAPE  C21518458   6.238   1.653   7.770 -0.0385 -0.3540 -0.2315
  164SAPE  H15R18459   6.258   1.576   7.846 -0.7801 -1.4632 -1.1568
  164SAPE  C21618460   6.178   1.781   7.833 -0.3369  0.0675  0.4177
  164SAPE  H16R18461   6.081   1.760   7.882 -1.6467  0.3244 -1.9587
  164SAPE  H16S18462   6.135   1.853   7.760 -0.9362 -1.9772 -1.3286
  164SAPE  C21718463   6.278   1.850   7.930  0.0305  0.6605  0.0252
  164SAPE  H17R18464   6.236   1.951   7.951 -2.1883  0.8526 -4.7659
  164SAPE  H17S18465   6.373   1.857   7.874 -1.1179 -1.2971 -2.2075
  164SAPE  C21818466   6.300   1.767   8.060 -0.0708 -0.2702 -0.6608
  164SAPE  H18R18467   6.389   1.800   8.118  0.1264  1.9050 -2.1613
  164SAPE  H18S18468   6.337   1.668   8.025  1.0370  0.1376 -0.6574
  164SAPE  C21918469   6.197   1.758   8.168 -0.0028  0.2250  0.2121
  164SAPE  H19R18470   6.104   1.740   8.111  0.7727  1.6521 -1.5542
  164SAPE  H19S18471   6.200   1.842   8.242  0.2996  1.2314 -0.9280
  164SAPE  C22018472   6.210   1.637   8.260  0.3651 -0.4468 -0.3831
  164SAPE  H20R18473   6.294   1.637   8.334 -0.6593 -2.3532  0.8140
  164SAPE  H20S18474   6.224   1.541   8.207  0.2388 -1.4388  1.3453
  164SAPE  H20T18475   6.120   1.628   8.324  0.5962 -1.2361 -0.1600
  164SAPE   C3318476   5.645   2.051   6.762 -0.3403  0.6596 -0.3128
  164SAPE   H3X18477   5.736   2.110   6.738  0.9351 -0.7228  1.0532
  164SAPE   H3Y18478   5.664   1.942   6.751 -5.3454 -0.5103  1.3620
  164SAPE   C3418479   5.591   2.076   6.903  0.9654 -0.1344  0.0283
  164SAPE   H4X18480   5.497   2.017   6.906 -0.9332  2.7552 -0.4406
  164SAPE   H4Y18481   5.556   2.180   6.920 -1.8385 -1.0701  0.2196
  164SAPE   C3518482   5.680   2.032   7.009  0.5082 -0.3522  0.2550
  164SAPE   H5X18483   5.770   2.097   7.010  0.4497 -0.2579 -0.2220
  164SAPE   H5Y18484   5.709   1.926   6.992 -0.6111 -0.9486  2.0092
  164SAPE   C3618485   5.617   2.045   7.153  0.4556 -0.4492  0.6763
  164SAPE   H6X18486   5.507   2.039   7.149  0.5163  0.0482 -3.0677
  164SAPE   H6Y18487   5.642   2.143   7.199  0.8803 -0.3530  0.2483
  164SAPE   C3718488   5.669   1.938   7.243  0.4434  0.7262 -0.4093
  164SAPE   H7X18489   5.779   1.932   7.224  0.7972 -0.4365  1.8296
  164SAPE   H7Y18490   5.636   1.838   7.210 -0.6572  1.3163 -1.1098
  164SAPE   C3818491   5.623   1.967   7.385 -0.3793 -0.2560 -0.1114
  164SAPE   H8X18492   5.512   1.969   7.382 -0.3352  3.1515 -1.2973
  164SAPE   H8Y18493   5.656   2.067   7.419 -1.3385  0.1641 -0.4157
  164SAPE   C3918494   5.661   1.853   7.485 -0.3980 -1.2411 -0.9540
  164SAPE   H9X18495   5.754   1.797   7.465  1.3561  0.8047  1.2526
  164SAPE   H9Y18496   5.583   1.776   7.469 -0.5781 -1.5381  1.1518
  164SAPE  C31018497   5.684   1.897   7.630 -0.5129  0.7395  0.5245
  164SAPE  H10X18498   5.595   1.950   7.671  0.6290  1.6857  1.8284
  164SAPE  H10Y18499   5.760   1.976   7.646  0.9415 -0.3769 -0.6922
  164SAPE  C31118500   5.729   1.783   7.719 -0.1863 -0.1523  0.5956
  164SAPE  H11X18501   5.835   1.752   7.710 -0.4226 -0.9696  0.5663
  164SAPE  H11Y18502   5.676   1.697   7.673  0.3855  1.1281 -2.5787
  164SAPE  C31218503   5.703   1.813   7.867  0.3637  0.6824 -0.2547
  164SAPE  H12X18504   5.698   1.716   7.921  2.8049  0.3514 -0.5327
  164SAPE  H12Y18505   5.613   1.878   7.872 -0.8823 -0.9145 -1.4578
  164SAPE  C31318506   5.821   1.882   7.940 -0.5862  0.3401 -0.1772
  164SAPE  H13X18507   5.879   1.949   7.872  0.7419 -0.2678  0.3428
  164SAPE  H13Y18508   5.876   1.791   7.970 -0.8308 -0.2516 -1.4501
  164SAPE  C31418509   5.776   1.957   8.061 -0.1611  0.3920 -0.0456
  164SAPE  H14X18510   5.722   1.875   8.114 -2.1373  1.3338 -0.5408
  164SAPE  H14Y18511   5.707   2.038   8.028 -0.7025  0.1022  0.3583
  164SAPE  C31518512   5.890   2.005   8.156  0.7001  0.0037 -0.4258
  164SAPE  H15X18513   5.950   2.085   8.109 -2.1263  1.4386 -1.6541
  164SAPE  H15Y18514   5.962   1.919   8.160 -0.8930 -1.3112  0.7005
  164SAPE  C31618515   5.849   2.043   8.299  0.3156 -0.8826  0.3112
  164SAPE  H16X18516   5.753   2.098   8.301  1.5497  1.3595 -0.0109
  164SAPE  H16Y18517   5.924   2.109   8.348 -0.3392  0.1285 -0.0331
  164SAPE  C31718518   5.837   1.914   8.384  0.1182 -0.6922 -0.1020
  164SAPE  H17X18519   5.940   1.880   8.410 -0.5809 -1.0314  2.3423
  164SAPE  H17Y18520   5.790   1.838   8.317 -1.8057  1.0942 -0.8017
  164SAPE  C31818521   5.751   1.952   8.499  0.5772  0.1024 -0.2116
  164SAPE  H18X18522   5.651   1.991   8.469  0.4526  1.2423  1.5872
  164SAPE  H18Y18523   5.798   2.036   8.555 -1.7409  0.8238  0.7193
  164SAPE  H18Z18524   5.746   1.871   8.574 -0.7417  1.0102  0.7117
  165SAPE     N18525   6.086   4.519   6.548 -0.1320  0.6102  0.2645
  165SAPE   HN118526   6.081   4.620   6.571 -0.0679 -0.2054  4.2119
  165SAPE   HN218527   5.996   4.474   6.573  0.6477 -1.7251 -0.8983
  165SAPE   HN318528   6.152   4.477   6.617  0.2494  0.5481 -0.1350
  165SAPE   C1218529   6.124   4.482   6.401 -0.1800  0.0606  0.1684
  165SAPE  H12A18530   6.131   4.371   6.394 -2.0340 -0.1022  0.7438
  165SAPE  H12B18531   6.222   4.529   6.375  0.6827 -1.7122  0.1161
  165SAPE   C1118532   6.013   4.533   6.304 -0.1220  0.5167  0.6015
  165SAPE  H11A18533   5.909   4.510   6.335 -0.6786  1.2733 -0.6803
  165SAPE  H11B18534   6.017   4.474   6.209 -1.2788 -0.3229  1.0535
  165SAPE     P18535   5.925   4.779   6.318 -0.0567  0.1597 -0.2745
  165SAPE   O1318536   5.993   4.913   6.302 -0.5349  0.4417 -0.1125
  165SAPE   O1418537   5.797   4.758   6.246 -0.2497 -0.2904 -0.6316
  165SAPE   O1218538   6.027   4.670   6.270 -0.2099 -0.2968  0.0202
  165SAPE   O1118539   5.904   4.746   6.470 -0.6070  0.2525  0.6961
  165SAPE    C118540   5.874   4.849   6.567 -0.4372 -0.3293 -0.1206
  165SAPE    HA18541   5.961   4.915   6.586 -0.7641 -0.3974  1.7685
  165SAPE    HB18542   5.798   4.916   6.522  1.0179  1.6520  0.2797
  165SAPE    C218543   5.825   4.795   6.706 -0.5336  0.0423 -1.6495
  165SAPE    HS18544   5.808   4.877   6.779  1.2965  0.0543 -1.2296
  165SAPE   O2118545   5.915   4.697   6.761  0.1404 -0.6168 -0.0490
  165SAPE   C2118546   5.915   4.686   6.897  0.1244 -0.2617 -0.0026
  165SAPE   O2218547   5.868   4.762   6.976 -0.6367 -0.0050 -0.5324
  165SAPE   C2218548   5.989   4.558   6.933 -0.4670 -0.7051 -0.1619
  165SAPE   H2R18549   6.063   4.529   6.855 -0.6481 -2.7198  0.3889
  165SAPE   H2S18550   6.049   4.581   7.024 -0.9546  1.4896 -0.3761
  165SAPE    C318551   5.680   4.731   6.701 -0.2000 -0.2817  0.2068
  165SAPE    HX18552   5.691   4.639   6.640  1.4071  0.4644 -0.6388
  165SAPE    HY18553   5.617   4.802   6.644  0.1828 -0.8711 -0.9696
  165SAPE   O3118554   5.627   4.700   6.838 -0.7096  0.3669 -0.0526
  165SAPE   C3118555   5.553   4.804   6.888 -0.6973  0.0048  0.4233
  165SAPE   O3218556   5.548   4.917   6.843  0.2131 -0.2194  0.1026
  165SAPE   C3218557   5.458   4.747   6.994 -0.1919 -0.1073 -0.9838
  165SAPE   H2X18558   5.510   4.667   7.051 -0.6393  1.7747  2.1967
  165SAPE   H2Y18559   5.370   4.701   6.945 -0.2066 -2.9222  1.5644
  165SAPE   C2318560   5.898   4.440   6.934  0.1503  0.0727 -0.4804
  165SAPE   H3R18561   5.960   4.349   6.918 -0.0972  0.0780 -1.5364
  165SAPE   H3S18562   5.829   4.440   6.847  0.0205  0.0709 -0.3770
  165SAPE   C2418563   5.844   4.414   7.078 -0.2238  0.2588 -0.0781
  165SAPE   H4R18564   5.759   4.342   7.072  0.7135 -0.8759  0.0480
  165SAPE   H4S18565   5.789   4.502   7.118 -0.1213  0.3180 -0.0684
  165SAPE   C2518566   5.950   4.366   7.175 -0.3641  0.3027  0.1748
  165SAPE   H5R18567   6.008   4.287   7.126 -0.7262 -1.3825  2.3734
  165SAPE   C2618568   5.969   4.391   7.304 -0.8506 -1.0517  0.3523
  165SAPE   H6R18569   6.062   4.347   7.342 -1.1905 -0.4289  1.9043
  165SAPE   C2718570   5.883   4.475   7.393 -0.2525 -0.4697  0.3376
  165SAPE   H7R18571   5.823   4.405   7.455  1.1633 -2.3788 -0.3659
  165SAPE   H7S18572   5.810   4.526   7.327 -0.6307 -0.0804  1.0575
  165SAPE   C2818573   5.971   4.577   7.466 -0.3573 -0.7956  0.0927
  165SAPE   H8R18574   6.014   4.653   7.399 -1.2927 -0.3866 -0.0374
  165SAPE   C2918575   5.995   4.592   7.600  0.1795 -0.9609  0.5563
  165SAPE   H9R18576   6.063   4.677   7.618 -2.4946  1.5565 -0.6929
  165SAPE  C21018577   5.952   4.510   7.714 -0.4330 -0.2337  0.0716
  165SAPE  H10R18578   6.038   4.484   7.778 -0.9235  0.4641  1.0354
  165SAPE  H10S18579   5.911   4.416   7.673  0.8000 -1.4074  1.4914
  165SAPE  C21118580   5.847   4.561   7.807  0.0048 -0.1445 -0.6577
  165SAPE  H11R18581   5.751   4.510   7.788 -0.1109 -0.5206  0.8385
  165SAPE  C21218582   5.861   4.653   7.906 -0.1422 -1.3556 -0.0605
  165SAPE  H12R18583   5.775   4.679   7.969 -0.6093 -0.9593 -0.8539
  165SAPE  C21318584   5.987   4.731   7.944 -0.7570 -0.2949  0.4288
  165SAPE  H13R18585   5.962   4.808   8.019 -2.2674 -0.4672  0.1271
  165SAPE  H13S18586   6.018   4.785   7.852 -0.2290 -0.4386  0.5193
  165SAPE  C21418587   6.090   4.645   8.017  0.0883  0.0372  0.2884
  165SAPE  H14R18588   6.174   4.613   7.953  1.5835  0.6542  1.9001
  165SAPE  C21518589   6.101   4.614   8.147 -0.7386 -0.2155 -0.1817
  165SAPE  H15R18590   6.192   4.558   8.172 -0.8683 -0.2015  0.3223
  165SAPE  C21618591   6.009   4.642   8.255  0.4012 -0.0683 -0.1353
  165SAPE  H16R18592   6.011   4.565   8.335 -1.7675 -0.0535 -0.0563
  165SAPE  H16S18593   5.907   4.637   8.211  0.5162 -2.1980 -0.2276
  165SAPE  C21718594   6.028   4.785   8.306  0.4655 -0.2477  0.4457
  165SAPE  H17R18595   6.033   4.859   8.223 -0.7172 -0.8958 -0.2201
  165SAPE  H17S18596   6.118   4.776   8.370  0.6830 -1.7834 -0.0426
  165SAPE  C21818597   5.908   4.821   8.394 -0.9436  0.0722  0.5701
  165SAPE  H18R18598   5.912   4.759   8.487 -0.1698  0.6929  0.9570
  165SAPE  H18S18599   5.813   4.795   8.344 -0.9815 -0.5166  0.9318
  165SAPE  C21918600   5.919   4.972   8.430  0.2693  0.4682 -0.2083
  165SAPE  H19R18601   5.918   5.030   8.335 -2.9398 -1.0622 -1.1901
  165SAPE  H19S18602   6.011   4.997   8.487 -0.2686  1.2020  0.3454
  165SAPE  C22018603   5.798   5.017   8.510  0.4994 -0.1373 -0.0424
  165SAPE  H20R18604   5.709   5.006   8.444  1.0886  0.8480 -1.0025
  165SAPE  H20S18605   5.822   5.124   8.528 -3.3831  0.5361  1.5865
  165SAPE  H20T18606   5.782   4.960   8.604 -0.1865 -2.5536 -1.5634
  165SAPE   C3318607   5.411   4.854   7.092  0.1168 -0.2242 -0.5587
  165SAPE   H3X18608   5.341   4.921   7.037  0.5783  0.4457 -0.3368
  165SAPE   H3Y18609   5.498   4.912   7.130 -1.0426  0.4629  1.1161
  165SAPE   C3418610   5.341   4.800   7.218  0.1925 -0.3684 -0.0898
  165SAPE   H4X18611   5.245   4.744   7.214  1.5590 -2.8205  0.7128
  165SAPE   H4Y18612   5.317   4.894   7.273  1.4117 -0.6132  0.9040
  165SAPE   C3518613   5.434   4.720   7.310  0.1078  0.2492 -0.1826
  165SAPE   H5X18614   5.535   4.765   7.318  0.2795 -0.1080 -0.3304
  165SAPE   H5Y18615   5.451   4.622   7.260 -1.4375 -0.9545  1.5473
  165SAPE   C3618616   5.373   4.707   7.445  0.2074  1.0834  0.1136
  165SAPE   H6X18617   5.267   4.671   7.441  0.6506 -0.5929  2.2969
  165SAPE   H6Y18618   5.360   4.801   7.502  0.0690  0.8987  0.3912
  165SAPE   C3718619   5.459   4.608   7.535  0.5933 -0.3162  0.2218
  165SAPE   H7X18620   5.564   4.644   7.528 -0.1250  2.0101  0.8040
  165SAPE   H7Y18621   5.447   4.514   7.477  0.8216 -0.0422 -0.2756
  165SAPE   C3818622   5.427   4.608   7.684  0.4248 -0.3330  0.4328
  165SAPE   H8X18623   5.475   4.525   7.740 -1.7622 -1.4113  0.7201
  165SAPE   H8Y18624   5.320   4.579   7.689  0.0898  0.5409 -1.2316
  165SAPE   C3918625   5.469   4.741   7.753  0.7436  0.3060 -0.6467
  165SAPE   H9X18626   5.402   4.823   7.718 -2.5813 -1.9285  0.2715
  165SAPE   H9Y18627   5.575   4.768   7.736  0.4258  2.5168  0.7166
  165SAPE  C31018628   5.438   4.726   7.907 -0.6845 -0.1150 -0.0665
  165SAPE  H10X18629   5.501   4.639   7.937  1.0235  0.8865 -0.7141
  165SAPE  H10Y18630   5.329   4.715   7.925 -0.9389  0.9762 -0.8819
  165SAPE  C31118631   5.487   4.850   7.978 -0.8708  0.2335 -0.2508
  165SAPE  H11X18632   5.430   4.941   7.952 -0.1692  0.9427  0.6357
  165SAPE  H11Y18633   5.593   4.867   7.949 -0.7198 -1.1543 -0.5820
  165SAPE  C31218634   5.476   4.836   8.129  0.9143 -0.0658 -0.3264
  165SAPE  H12X18635   5.529   4.744   8.160  1.7603  0.5321  0.0098
  165SAPE  H12Y18636   5.365   4.833   8.141  0.5095 -0.5642 -3.5823
  165SAPE  C31318637   5.518   4.958   8.207 -1.0274 -0.3492 -0.2919
  165SAPE  H13X18638   5.491   5.047   8.147 -4.0142  1.1119  3.0194
  165SAPE  H13Y18639   5.628   4.951   8.224 -0.9584 -0.9017 -0.9271
  165SAPE  C31418640   5.465   4.975   8.347  0.4435  0.1276 -0.2942
  165SAPE  H14X18641   5.365   5.022   8.335  0.6798  1.1984  1.7252
  165SAPE  H14Y18642   5.524   5.055   8.396  2.0957 -0.4401 -1.3077
  165SAPE  C31518643   5.459   4.842   8.419 -0.3985 -0.5725  0.1804
  165SAPE  H15X18644   5.556   4.790   8.405 -1.6825 -2.4174 -2.3653
  165SAPE  H15Y18645   5.383   4.770   8.380  0.4289 -2.0094  1.1683
  165SAPE  C31618646   5.426   4.859   8.571  0.1037  0.9547  0.0587
  165SAPE  H16X18647   5.318   4.865   8.593 -0.2419 -0.9635 -0.9639
  165SAPE  H16Y18648   5.482   4.949   8.604  1.8485  0.5433 -1.6616
  165SAPE  C31718649   5.485   4.738   8.646 -0.0117 -0.1991 -0.1925
  165SAPE  H17X18650   5.594   4.729   8.626  0.1144  0.2777  0.2711
  165SAPE  H17Y18651   5.441   4.640   8.617 -0.3638 -0.2127  0.3730
  165SAPE  C31818652   5.468   4.756   8.798  0.1264  0.4569 -1.4277
  165SAPE  H18X18653   5.544   4.706   8.861 -1.2875 -0.1279 -0.1578
  165SAPE  H18Y18654   5.373   4.719   8.840 -0.1042  1.3922 -1.1089
  165SAPE  H18Z18655   5.482   4.863   8.825  0.1403 -0.4419  2.4733
  166SAPE     N18656   5.444   1.188   5.593 -0.7862 -0.3660 -0.0535
  166SAPE   HN118657   5.524   1.175   5.529  0.4616  1.3404  1.0977
  166SAPE   HN218658   5.475   1.143   5.681 -1.2418  0.1258  0.3673
  166SAPE   HN318659   5.368   1.127   5.558 -1.1625  0.6278 -0.9915
  166SAPE   C1218660   5.434   1.340   5.598  0.8603  0.4275  0.1605
  166SAPE  H12A18661   5.378   1.364   5.505 -2.0437 -0.8862  1.5001
  166SAPE  H12B18662   5.538   1.380   5.591  0.8300  0.2547 -1.5411
  166SAPE   C1118663   5.349   1.388   5.713  0.1243  1.2864  0.0469
  166SAPE  H11A18664   5.248   1.355   5.681  0.5490 -0.4859  0.4661
  166SAPE  H11B18665   5.346   1.499   5.716  0.9058  1.2922  1.1531
  166SAPE     P18666   5.532   1.382   5.912  0.3715 -0.0755  0.2104
  166SAPE   O1318667   5.597   1.261   5.957 -0.9654 -0.7973 -0.4240
  166SAPE   O1418668   5.615   1.467   5.821  0.7761 -0.1081 -0.6065
  166SAPE   O1218669   5.397   1.337   5.838  0.0055  0.0388 -0.6639
  166SAPE   O1118670   5.487   1.465   6.038  0.2354  0.4028  0.5470
  166SAPE    C118671   5.364   1.439   6.112 -0.4802 -0.1543 -0.5387
  166SAPE    HA18672   5.318   1.537   6.136 -0.4495 -0.0808 -0.7759
  166SAPE    HB18673   5.291   1.376   6.056  0.4926  0.6648 -2.7683
  166SAPE    C218674   5.386   1.370   6.255 -0.2863 -0.0814  0.2666
  166SAPE    HS18675   5.289   1.359   6.309 -2.0109 -0.8341 -2.8621
  166SAPE   O2118676   5.489   1.449   6.325  0.1480 -0.5286 -0.4901
  166SAPE   C2118677   5.447   1.541   6.405  0.3702  0.0749 -0.1601
  166SAPE   O2218678   5.330   1.570   6.428  0.6742 -0.2974  0.1412
  166SAPE   C2218679   5.558   1.621   6.480  0.1000 -0.3156  0.4972
  166SAPE   H2R18680   5.636   1.547   6.507  0.2248 -0.8295 -1.1741
  166SAPE   H2S18681   5.607   1.696   6.414 -1.3999  0.1767 -0.1041
  166SAPE    C318682   5.453   1.229   6.237  0.4033 -0.4774  0.6933
  166SAPE    HX18683   5.561   1.251   6.222  0.1385  0.9202  0.7736
  166SAPE    HY18684   5.401   1.173   6.156  1.8614 -2.3371  1.0341
  166SAPE   O3118685   5.441   1.166   6.364 -0.5310 -1.2792  0.1328
  166SAPE   C3118686   5.543   1.162   6.443  0.0566 -0.6179  0.3252
  166SAPE   O3218687   5.659   1.171   6.416  0.3992  0.1953  0.5414
  166SAPE   C3218688   5.484   1.145   6.587  1.3921  0.6357 -0.8305
  166SAPE   H2X18689   5.398   1.077   6.572 -0.1010  1.9199  1.5500
  166SAPE   H2Y18690   5.455   1.243   6.632  1.8666  1.5642 -2.4839
  166SAPE   C2318691   5.511   1.681   6.609  0.3193  0.2535  1.0518
  166SAPE   H3R18692   5.429   1.749   6.581  0.6501  0.1967 -0.0851
  166SAPE   H3S18693   5.581   1.755   6.653 -0.4317  0.2391  2.2894
  166SAPE   C2418694   5.447   1.605   6.723  0.2670  0.9617 -0.1657
  166SAPE   H4R18695   5.345   1.569   6.695  1.0286 -0.1987 -1.5547
  166SAPE   H4S18696   5.422   1.681   6.800  2.1395  2.1719 -0.7326
  166SAPE   C2518697   5.526   1.489   6.788 -0.3469 -0.3204 -0.3772
  166SAPE   H5R18698   5.481   1.391   6.766 -0.6777 -0.6402  1.6486
  166SAPE   C2618699   5.624   1.502   6.876  0.3164  0.2288 -0.1996
  166SAPE   H6R18700   5.665   1.412   6.926  1.3346  1.1751  0.6801
  166SAPE   C2718701   5.676   1.636   6.919 -0.2097 -0.3159 -0.6175
  166SAPE   H7R18702   5.595   1.698   6.963  2.3804  1.6408  1.6375
  166SAPE   H7S18703   5.704   1.688   6.825  0.6324 -0.6030 -0.5314
  166SAPE   C2818704   5.797   1.646   7.006 -0.1708  0.8378 -0.3639
  166SAPE   H8R18705   5.874   1.710   6.960 -1.6633  2.3605 -0.8143
  166SAPE   C2918706   5.818   1.607   7.138  0.1406  0.0655 -0.5542
  166SAPE   H9R18707   5.916   1.618   7.186 -0.0886 -2.3981  0.5629
  166SAPE  C21018708   5.718   1.531   7.224  0.2280  0.6386 -0.3448
  166SAPE  H10R18709   5.615   1.527   7.182 -0.2278  2.2993  0.5478
  166SAPE  H10S18710   5.705   1.591   7.316 -0.4198  0.0926 -0.0834
  166SAPE  C21118711   5.763   1.386   7.256  0.5274  0.8870  0.4838
  166SAPE  H11R18712   5.758   1.315   7.173  2.0590 -0.2636  1.3585
  166SAPE  C21218713   5.809   1.342   7.379 -0.2272 -0.4861  0.4505
  166SAPE  H12R18714   5.841   1.238   7.393  1.4834  0.0630  0.7217
  166SAPE  C21318715   5.823   1.431   7.499 -0.4230  1.0024 -0.3026
  166SAPE  H13R18716   5.734   1.412   7.564 -0.4451 -2.6139 -1.2648
  166SAPE  H13S18717   5.836   1.537   7.471  1.2498  0.8980  0.0560
  166SAPE  C21418718   5.945   1.399   7.590  0.6407 -0.5776 -0.0276
  166SAPE  H14R18719   6.035   1.377   7.531  0.1164 -1.7980 -0.3682
  166SAPE  C21518720   5.954   1.406   7.724  0.7514 -0.0141  0.0130
  166SAPE  H15R18721   6.050   1.393   7.777 -0.2546 -2.1731  1.3786
  166SAPE  C21618722   5.854   1.438   7.828  0.0353  0.2492  0.6343
  166SAPE  H16R18723   5.755   1.467   7.786  0.3037  1.1826  0.6408
  166SAPE  H16S18724   5.889   1.529   7.881 -1.3169  1.6007 -0.7073
  166SAPE  C21718725   5.826   1.328   7.928 -0.2661  0.5594 -0.5092
  166SAPE  H17R18726   5.927   1.310   7.968 -1.4119 -0.7994  1.8860
  166SAPE  H17S18727   5.802   1.228   7.885  1.4333 -1.3998  2.9534
  166SAPE  C21818728   5.726   1.374   8.038 -0.4687  0.3581  0.2001
  166SAPE  H18R18729   5.683   1.284   8.085  0.5940 -0.0144  0.4856
  166SAPE  H18S18730   5.645   1.440   8.000 -1.8437 -2.0424 -1.0876
  166SAPE  C21918731   5.793   1.456   8.145 -0.0441 -0.0126 -0.8147
  166SAPE  H19R18732   5.821   1.558   8.111  0.5522 -0.0573 -0.4550
  166SAPE  H19S18733   5.868   1.408   8.211 -1.0381 -1.0283 -0.4175
  166SAPE  C22018734   5.684   1.492   8.246  0.5080  0.0084 -0.3484
  166SAPE  H20R18735   5.635   1.405   8.295 -2.1501  2.2742  1.1639
  166SAPE  H20S18736   5.597   1.542   8.198 -0.7383 -0.1063  1.7225
  166SAPE  H20T18737   5.711   1.562   8.328 -0.3791 -0.6082  0.4812
  166SAPE   C3318738   5.590   1.080   6.677 -0.2151 -0.8692 -0.1617
  166SAPE   H3X18739   5.685   1.137   6.672 -0.5427 -0.2183  0.7774
  166SAPE   H3Y18740   5.615   0.978   6.642  0.8618  0.1956 -2.5503
  166SAPE   C3418741   5.549   1.078   6.826  0.4494  0.7114  0.5413
  166SAPE   H4X18742   5.463   1.009   6.837  2.3030 -2.1557 -2.1844
  166SAPE   H4Y18743   5.514   1.182   6.844  0.6931  0.8694  0.0919
  166SAPE   C3518744   5.662   1.040   6.929  0.1386 -0.3570 -0.2125
  166SAPE   H5X18745   5.752   1.103   6.908  0.2390 -0.3887  0.1225
  166SAPE   H5Y18746   5.683   0.934   6.902 -1.3990 -1.0453  1.2412
  166SAPE   C3618747   5.612   1.045   7.072  0.2338 -0.0793  0.4263
  166SAPE   H6X18748   5.534   0.966   7.084  1.1354 -1.2600 -1.1516
  166SAPE   H6Y18749   5.577   1.144   7.108 -1.2230 -0.3664 -0.1532
  166SAPE   C3718750   5.726   1.015   7.174 -0.2926 -0.1597  0.7016
  166SAPE   H7X18751   5.807   1.091   7.171 -1.6849  1.2793 -1.1676
  166SAPE   H7Y18752   5.776   0.919   7.148 -0.0861  0.5541 -1.6472
  166SAPE   C3818753   5.675   1.001   7.316  0.3575 -0.5406 -0.0625
  166SAPE   H8X18754   5.582   0.940   7.324  0.4629 -0.5483  1.1716
  166SAPE   H8Y18755   5.650   1.101   7.359  0.6267 -1.3769  2.0733
  166SAPE   C3918756   5.775   0.943   7.404  0.5058  0.3631  0.0697
  166SAPE   H9X18757   5.878   0.978   7.380 -0.3619  2.1496 -1.1681
  166SAPE   H9Y18758   5.776   0.832   7.400  1.0507  0.2068  3.1749
  166SAPE  C31018759   5.755   0.982   7.555  0.3824  0.0342 -0.9044
  166SAPE  H10X18760   5.656   0.944   7.586 -0.2445  1.4340 -1.1542
  166SAPE  H10Y18761   5.758   1.093   7.569 -1.0624 -0.2094  1.4148
  166SAPE  C31118762   5.867   0.911   7.634  0.2879 -0.6177  0.4562
  166SAPE  H11X18763   5.963   0.947   7.591 -0.9047  1.9764 -0.1680
  166SAPE  H11Y18764   5.875   0.805   7.603 -0.0736 -1.4182  3.0047
  166SAPE  C31218765   5.874   0.937   7.783  0.8156 -0.0073  0.2213
  166SAPE  H12X18766   5.772   0.904   7.813  0.5077  0.6976 -0.0366
  166SAPE  H12Y18767   5.887   1.043   7.815 -0.0819 -0.2806  1.5504
  166SAPE  C31318768   5.974   0.849   7.862 -0.1570  0.0441  0.2075
  166SAPE  H13X18769   6.079   0.864   7.828 -0.0318  1.4129  1.1615
  166SAPE  H13Y18770   5.951   0.741   7.847 -0.6625 -0.1032  1.9643
  166SAPE  C31418771   5.966   0.874   8.013  0.1307 -0.4461  0.1444
  166SAPE  H14X18772   5.869   0.842   8.056  0.8315  1.4980  3.3090
  166SAPE  H14Y18773   5.973   0.985   8.021  2.1049 -0.3454 -2.2849
  166SAPE  C31518774   6.076   0.788   8.095  0.1860 -0.1062  0.1287
  166SAPE  H15X18775   6.176   0.788   8.047 -0.1466  0.0119 -0.5636
  166SAPE  H15Y18776   6.032   0.686   8.091  1.2609 -0.7252  2.8938
  166SAPE  C31618777   6.090   0.819   8.247 -0.2297 -0.1768 -0.4494
  166SAPE  H16X18778   6.000   0.782   8.301  0.5765 -0.4908  0.7138
  166SAPE  H16Y18779   6.104   0.929   8.252  1.1209 -0.3553  0.0266
  166SAPE  C31718780   6.212   0.741   8.307  0.0670 -0.5859 -0.2206
  166SAPE  H17X18781   6.307   0.797   8.289 -0.7619  0.7298 -0.6192
  166SAPE  H17Y18782   6.221   0.650   8.245 -1.3231 -0.0619 -1.2169
  166SAPE  C31818783   6.190   0.709   8.455  0.5046 -0.4340  0.1032
  166SAPE  H18X18784   6.263   0.635   8.493  1.5499 -1.1360 -3.1271
  166SAPE  H18Y18785   6.099   0.645   8.459  0.9103 -0.9067  2.0353
  166SAPE  H18Z18786   6.182   0.799   8.520 -2.4089 -0.2203 -0.4676
  167SAPE     N18787   6.780   0.387   6.151 -0.3660 -0.6411  0.1912
  167SAPE   HN118788   6.858   0.336   6.196  2.2518  1.6426 -1.6026
  167SAPE   HN218789   6.697   0.377   6.213 -1.1657 -2.2672 -1.0924
  167SAPE   HN318790   6.763   0.339   6.060 -4.7935  1.5365 -0.2343
  167SAPE   C1218791   6.818   0.526   6.121  0.3874  0.2402  0.5072
  167SAPE  H12A18792   6.876   0.527   6.026 -1.9744 -1.7451 -0.9862
  167SAPE  H12B18793   6.892   0.553   6.200 -0.2268 -3.6166  2.4866
  167SAPE   C1118794   6.690   0.610   6.105 -0.2136 -0.2039  0.3121
  167SAPE  H11A18795   6.615   0.589   6.184 -0.7101 -2.7154 -0.7672
  167SAPE  H11B18796   6.633   0.582   6.014 -0.1002  0.2162  0.1072
  167SAPE     P18797   6.626   0.864   6.051 -0.2045 -0.7679  0.1160
  167SAPE   O1318798   6.698   0.914   5.933  0.3154  0.0012 -0.3901
  167SAPE   O1418799   6.491   0.815   6.019  0.1304 -0.1311 -0.0069
  167SAPE   O1218800   6.715   0.748   6.109 -0.8416 -0.1308 -0.3014
  167SAPE   O1118801   6.627   0.974   6.172 -0.1613 -0.6527  0.0340
  167SAPE    C118802   6.592   0.936   6.307  0.4929 -0.1871  0.3677
  167SAPE    HA18803   6.556   0.832   6.314 -0.0371 -0.0970 -0.8660
  167SAPE    HB18804   6.688   0.938   6.362  0.4280  1.2034  0.4539
  167SAPE    C218805   6.487   1.022   6.383  0.8885  0.1519  0.9360
  167SAPE    HS18806   6.400   1.038   6.316  1.1133  1.0229  0.8410
  167SAPE   O2118807   6.536   1.151   6.409 -0.2256  0.2006 -0.7828
  167SAPE   C2118808   6.447   1.239   6.441 -0.3070 -0.6270 -0.3950
  167SAPE   O2218809   6.327   1.228   6.430  0.2759  0.3111  0.1761
  167SAPE   C2218810   6.528   1.360   6.489 -0.7860 -0.3503 -0.9606
  167SAPE   H2R18811   6.638   1.343   6.480 -0.8496 -0.4297 -1.6499
  167SAPE   H2S18812   6.508   1.435   6.409  0.1232  0.3941 -0.4976
  167SAPE    C318813   6.438   0.945   6.507  0.0120  0.4371  0.4460
  167SAPE    HX18814   6.410   0.841   6.479 -2.4679  0.0323  3.9986
  167SAPE    HY18815   6.338   0.987   6.530  0.1552  1.5713 -0.9357
  167SAPE   O3118816   6.535   0.950   6.611 -0.0271 -1.2099 -0.5957
  167SAPE   C3118817   6.506   0.863   6.710  0.5022  0.0484  0.2471
  167SAPE   O3218818   6.423   0.776   6.700  0.1003  0.4993 -0.8663
  167SAPE   C3218819   6.597   0.875   6.830 -0.3132 -1.1893  0.9465
  167SAPE   H2X18820   6.660   0.967   6.822 -0.8339 -0.9901 -0.9656
  167SAPE   H2Y18821   6.665   0.788   6.819  0.8279 -0.2295  0.1922
  167SAPE   C2318822   6.476   1.403   6.625  0.4642 -0.9211  0.5171
  167SAPE   H3R18823   6.370   1.434   6.616  1.6791  2.7988 -2.1559
  167SAPE   H3S18824   6.536   1.494   6.647  0.2856 -0.8458  0.6960
  167SAPE   C2418825   6.502   1.296   6.734  0.6613  0.5346  0.0874
  167SAPE   H4R18826   6.608   1.265   6.729  0.6411  0.2381  1.3516
  167SAPE   H4S18827   6.442   1.207   6.705  0.9083  0.1738  0.6885
  167SAPE   C2518828   6.446   1.330   6.869 -0.2870  0.3293  0.3420
  167SAPE   H5R18829   6.342   1.368   6.875  0.5008  2.8775 -1.3358
  167SAPE   C2618830   6.515   1.354   6.976  0.2852 -0.2773 -0.4691
  167SAPE   H6R18831   6.468   1.372   7.074  0.2083 -3.1227  0.0740
  167SAPE   C2718832   6.660   1.342   7.007 -0.4399  0.1104  0.5013
  167SAPE   H7R18833   6.708   1.269   6.939  1.5403  0.0107  1.9655
  167SAPE   H7S18834   6.680   1.284   7.099  1.1039  1.5963  1.1422
  167SAPE   C2818835   6.736   1.468   7.001  0.2756  0.0170 -0.4939
  167SAPE   H8R18836   6.716   1.523   6.908  0.9564 -0.2786 -0.8201
  167SAPE   C2918837   6.822   1.518   7.094  0.6130  0.2096 -0.1392
  167SAPE   H9R18838   6.848   1.625   7.081  0.6069  0.2371  0.0725
  167SAPE  C21018839   6.849   1.450   7.224 -0.2842 -0.0526 -0.8840
  167SAPE  H10R18840   6.892   1.348   7.213  0.5218  0.2451 -0.5051
  167SAPE  H10S18841   6.750   1.432   7.272 -0.3571 -1.3147 -1.4847
  167SAPE  C21118842   6.943   1.538   7.311 -0.0207  0.4183 -0.1043
  167SAPE  H11R18843   7.029   1.572   7.252  0.6910 -1.1980 -0.0315
  167SAPE  C21218844   6.934   1.566   7.447 -0.1416  0.0604  0.5551
  167SAPE  H12R18845   6.997   1.638   7.499  0.8034 -0.2652 -0.1326
  167SAPE  C21318846   6.830   1.504   7.542  0.0158  0.4703  0.0997
  167SAPE  H13R18847   6.876   1.475   7.638  0.7387 -0.9394 -0.6625
  167SAPE  H13S18848   6.795   1.407   7.501  0.0796  0.2505  0.5720
  167SAPE  C21418849   6.710   1.593   7.565  0.3471  0.5634  0.4802
  167SAPE  H14R18850   6.659   1.630   7.475  1.9756 -4.8928 -2.9063
  167SAPE  C21518851   6.638   1.602   7.680 -0.2553 -0.5924 -0.2034
  167SAPE  H15R18852   6.560   1.680   7.683  1.7951  1.5125 -0.4638
  167SAPE  C21618853   6.674   1.542   7.817 -0.1609  0.0893  0.3889
  167SAPE  H16R18854   6.774   1.494   7.810  0.3989  1.3478 -0.2820
  167SAPE  H16S18855   6.601   1.462   7.842  0.0146 -0.3170 -0.3806
  167SAPE  C21718856   6.694   1.646   7.922 -0.2543 -0.0526  0.2272
  167SAPE  H17R18857   6.625   1.731   7.904 -1.6034 -1.1680 -0.0284
  167SAPE  H17S18858   6.795   1.690   7.923 -0.0810 -0.4541  0.4576
  167SAPE  C21818859   6.672   1.595   8.066  0.3390 -0.3346 -0.3150
  167SAPE  H18R18860   6.755   1.528   8.095 -1.1900 -0.8354  3.2417
  167SAPE  H18S18861   6.580   1.534   8.081 -0.3356  0.4027 -1.3234
  167SAPE  C21918862   6.675   1.709   8.168 -0.0773  0.6461  0.6228
  167SAPE  H19R18863   6.588   1.775   8.147 -1.5599 -1.0502  1.3055
  167SAPE  H19S18864   6.754   1.784   8.149 -1.0734  1.9700  1.5556
  167SAPE  C22018865   6.677   1.673   8.314 -0.2090  0.7769  0.1296
  167SAPE  H20R18866   6.702   1.567   8.335 -0.6570  0.5878 -0.3091
  167SAPE  H20S18867   6.573   1.685   8.351 -1.1049 -2.8942 -0.9923
  167SAPE  H20T18868   6.737   1.740   8.380 -1.0109  0.3813  1.2739
  167SAPE   C3318869   6.523   0.873   6.968 -1.2053 -0.1271 -0.3259
  167SAPE   H3X18870   6.452   0.788   6.975 -0.6077 -0.5083  1.3169
  167SAPE   H3Y18871   6.459   0.964   6.972  1.3952  1.7264  0.2742
  167SAPE   C3418872   6.640   0.883   7.071  0.2310 -0.3202 -0.2431
  167SAPE   H4X18873   6.689   0.982   7.062  1.5054 -1.0130 -1.1583
  167SAPE   H4Y18874   6.721   0.808   7.061  1.2252  0.7032  0.1302
  167SAPE   C3518875   6.597   0.877   7.219 -0.1395  0.0300  0.3147
  167SAPE   H5X18876   6.560   0.776   7.246 -0.0316  0.9547  4.2192
  167SAPE   H5Y18877   6.512   0.948   7.231  1.0714  1.8808 -1.5403
  167SAPE   C3618878   6.705   0.904   7.315  0.0101  0.0699 -0.1814
  167SAPE   H6X18879   6.736   1.011   7.306  2.1274 -0.3822  1.2836
  167SAPE   H6Y18880   6.799   0.844   7.315  2.0814  3.1864  0.8040
  167SAPE   C3718881   6.652   0.911   7.456  0.6871  0.0586  0.1333
  167SAPE   H7X18882   6.596   0.821   7.489 -0.8176 -0.2424 -3.0624
  167SAPE   H7Y18883   6.578   0.994   7.463 -0.8459 -1.1690 -1.0896
  167SAPE   C3818884   6.762   0.939   7.563 -0.4717 -0.0327 -0.4174
  167SAPE   H8X18885   6.864   0.963   7.524 -0.8441  1.9160 -0.2291
  167SAPE   H8Y18886   6.764   0.847   7.625  1.3022 -0.3644 -0.9485
  167SAPE   C3918887   6.723   1.044   7.673 -0.0730  0.4076 -0.5406
  167SAPE   H9X18888   6.634   1.028   7.736  2.1292 -0.4620  2.4770
  167SAPE   H9Y18889   6.718   1.139   7.617  3.8507  0.1109 -1.5697
  167SAPE  C31018890   6.831   1.047   7.786  0.1198 -0.5347  0.0739
  167SAPE  H10X18891   6.934   1.065   7.748 -0.4994  2.4995 -0.3607
  167SAPE  H10Y18892   6.824   0.945   7.829  1.3980 -0.2077  1.0714
  167SAPE  C31118893   6.793   1.142   7.899  0.4227  0.3259 -0.3796
  167SAPE  H11X18894   6.693   1.111   7.936  2.0238 -2.2788  1.9884
  167SAPE  H11Y18895   6.796   1.250   7.875 -0.4235  0.4116 -0.1164
  167SAPE  C31218896   6.868   1.119   8.029  0.0813  0.5252  0.3518
  167SAPE  H12X18897   6.843   1.015   8.059  0.2487  0.4808  0.3356
  167SAPE  H12Y18898   6.835   1.179   8.117 -2.3841 -2.1152  1.3173
  167SAPE  C31318899   7.025   1.132   8.029 -0.1360 -0.4804  0.2376
  167SAPE  H13X18900   7.036   1.241   8.012  0.3583 -0.4162  0.9520
  167SAPE  H13Y18901   7.061   1.072   7.942 -0.5554 -1.2592  0.5973
  167SAPE  C31418902   7.098   1.085   8.161  0.2465 -0.3066 -0.6333
  167SAPE  H14X18903   7.073   0.976   8.161  1.5553 -0.6169  0.4767
  167SAPE  H14Y18904   7.051   1.136   8.248 -1.2602  1.4102 -2.4091
  167SAPE  C31518905   7.254   1.117   8.169  0.6341  0.1792  0.7208
  167SAPE  H15X18906   7.251   1.228   8.172 -1.0639  0.3209 -3.1089
  167SAPE  H15Y18907   7.305   1.072   8.081 -1.1516  1.8913 -1.2675
  167SAPE  C31618908   7.315   1.064   8.299 -0.1890 -0.1272  0.6812
  167SAPE  H16X18909   7.263   1.127   8.374 -1.9825 -2.6916  1.6869
  167SAPE  H16Y18910   7.423   1.086   8.315 -0.1011 -0.3082  0.3464
  167SAPE  C31718911   7.276   0.917   8.331  0.0837  0.1947 -0.2664
  167SAPE  H17X18912   7.290   0.846   8.247 -1.3439 -0.9088  0.4174
  167SAPE  H17Y18913   7.167   0.922   8.352  0.1514  1.6407 -0.1958
  167SAPE  C31818914   7.347   0.861   8.456  0.2433 -0.1413  0.1767
  167SAPE  H18X18915   7.311   0.759   8.483  0.2260 -0.5297 -1.2858
  167SAPE  H18Y18916   7.338   0.929   8.543 -2.7356  0.6168 -0.6926
  167SAPE  H18Z18917   7.456   0.860   8.431  1.0529 -0.9362  3.4971
  168SAPE     N18918   1.024   2.600   6.584  0.4821  0.5982 -0.2730
  168SAPE   HN118919   1.042   2.670   6.659 -1.7905  1.0760 -0.1443
  168SAPE   HN218920   1.107   2.596   6.521  0.8535  1.0319  0.1771
  168SAPE   HN318921   0.942   2.641   6.536 -0.3429 -0.9475 -0.1902
  168SAPE   C1218922   0.988   2.458   6.615 -0.5430  0.0612  0.1175
  168SAPE  H12A18923   0.906   2.454   6.690  0.7380  3.2630  1.8200
  168SAPE  H12B18924   1.081   2.425   6.666  0.6813 -2.7155 -3.7144
  168SAPE   C1118925   0.962   2.381   6.486  0.1409  0.1401 -0.1737
  168SAPE  H11A18926   0.877   2.429   6.432 -0.5506 -1.7140 -0.7612
  168SAPE  H11B18927   0.926   2.280   6.512  1.9359 -0.4309  0.1781
  168SAPE     P18928   1.199   2.267   6.432 -0.1228 -0.0743  0.1231
  168SAPE   O1318929   1.140   2.132   6.432 -0.7334 -0.6439 -0.1505
  168SAPE   O1418930   1.314   2.290   6.338 -0.0940  0.0703 -0.3004
  168SAPE   O1218931   1.080   2.370   6.402  0.8297  0.7155  0.1795
  168SAPE   O1118932   1.245   2.285   6.581  0.2984  0.3622 -0.1697
  168SAPE    C118933   1.368   2.355   6.613  0.7289  0.1503 -0.6568
  168SAPE    HA18934   1.416   2.403   6.525 -0.0667  1.0851 -0.5976
  168SAPE    HB18935   1.357   2.434   6.691  0.0170 -0.1750 -0.4213
  168SAPE    C218936   1.466   2.246   6.667  0.2507  0.5808  0.1869
  168SAPE    HS18937   1.460   2.161   6.595  0.1735  2.6360 -2.3129
  168SAPE   O2118938   1.435   2.210   6.799 -0.5483 -0.2861 -0.6794
  168SAPE   C2118939   1.459   2.090   6.846 -0.7681  0.0804 -0.8012
  168SAPE   O2218940   1.518   2.000   6.788  0.3195  0.5038 -0.0084
  168SAPE   C2218941   1.413   2.066   6.987 -0.3057  0.6805 -0.0122
  168SAPE   H2R18942   1.437   2.157   7.045  1.9811  0.0514  0.0823
  168SAPE   H2S18943   1.305   2.050   6.969 -0.3731  0.9985  0.1135
  168SAPE    C318944   1.610   2.292   6.659 -0.0915  0.3046  0.2507
  168SAPE    HX18945   1.617   2.398   6.691 -2.7416  0.8063 -0.7035
  168SAPE    HY18946   1.633   2.295   6.550  1.7923 -0.7957  0.5908
  168SAPE   O3118947   1.705   2.207   6.722  0.7948  0.1502 -0.0303
  168SAPE   C3118948   1.783   2.269   6.808  0.0024  0.1282 -0.7717
  168SAPE   O3218949   1.777   2.384   6.845 -0.2440  0.0553  0.2275
  168SAPE   C3218950   1.877   2.160   6.858  0.0030  0.0094 -0.0153
  168SAPE   H2X18951   1.972   2.151   6.801 -0.4000  3.6805 -1.4133
  168SAPE   H2Y18952   1.824   2.063   6.847  2.3324 -1.4488  1.3107
  168SAPE   C2318953   1.489   1.940   7.041 -1.1074 -0.0165  0.6052
  168SAPE   H3R18954   1.599   1.949   7.049 -1.1681  1.0745  0.3757
  168SAPE   H3S18955   1.465   1.856   6.974 -0.3976  0.3161 -0.0701
  168SAPE   C2418956   1.428   1.887   7.173  0.2575  0.0451  0.4527
  168SAPE   H4R18957   1.317   1.899   7.165  0.3847  0.1670 -1.5082
  168SAPE   H4S18958   1.457   1.960   7.251 -1.7101 -0.4544  1.6984
  168SAPE   C2518959   1.451   1.744   7.216 -0.7158  0.4784 -0.0338
  168SAPE   H5R18960   1.419   1.663   7.148 -0.4399  0.8950 -0.6535
  168SAPE   C2618961   1.499   1.694   7.338  0.3035 -0.3756  0.0563
  168SAPE   H6R18962   1.510   1.585   7.348  0.2690 -0.4774 -0.8914
  168SAPE   C2718963   1.550   1.774   7.450  0.0177  0.1913 -0.5711
  168SAPE   H7R18964   1.564   1.879   7.415 -0.6193  0.6656  0.5457
  168SAPE   H7S18965   1.645   1.737   7.493 -0.0548 -0.1503 -0.7094
  168SAPE   C2818966   1.448   1.785   7.556  0.8206 -0.6541 -0.6102
  168SAPE   H8R18967   1.367   1.711   7.561  1.5835 -1.4275  0.4426
  168SAPE   C2918968   1.434   1.895   7.640  0.4042 -0.2958 -0.1515
  168SAPE   H9R18969   1.358   1.884   7.720 -1.6237  1.2883 -1.8014
  168SAPE  C21018970   1.521   2.019   7.656 -0.6362 -0.3529  0.4106
  168SAPE  H10R18971   1.626   1.992   7.634 -0.4148  1.7596 -1.2170
  168SAPE  H10S18972   1.515   2.047   7.764  1.3025 -2.1610  1.0399
  168SAPE  C21118973   1.467   2.133   7.573 -0.4265  0.1025  0.5352
  168SAPE  H11R18974   1.363   2.162   7.597 -0.2130 -0.3608  2.1184
  168SAPE  C21218975   1.520   2.196   7.466  0.3329  0.0471  0.7368
  168SAPE  H12R18976   1.456   2.269   7.413 -0.9343 -0.3455  1.7144
  168SAPE  C21318977   1.654   2.162   7.412  1.0525 -0.2262  0.6512
  168SAPE  H13R18978   1.661   2.213   7.313  1.8500 -2.1951 -0.3417
  168SAPE  H13S18979   1.650   2.056   7.378  0.3111 -0.0350  0.1283
  168SAPE  C21418980   1.765   2.190   7.507 -0.2775  0.5579 -0.3764
  168SAPE  H14R18981   1.761   2.287   7.558 -1.9280  0.5740 -0.5149
  168SAPE  C21518982   1.866   2.102   7.530  0.2251 -0.4178  0.4548
  168SAPE  H15R18983   1.949   2.129   7.597  1.1496  0.6145 -1.0735
  168SAPE  C21618984   1.877   1.964   7.465  0.0601 -0.0801 -0.5112
  168SAPE  H16R18985   1.781   1.935   7.417  0.0482  0.3000 -0.7153
  168SAPE  H16S18986   1.916   1.893   7.541 -1.0761  0.5640  0.6962
  168SAPE  C21718987   1.980   1.962   7.355  1.2135  0.5641  0.2061
  168SAPE  H17R18988   2.075   2.004   7.391  0.1019  1.9503  1.5761
  168SAPE  H17S18989   1.946   2.024   7.269  2.3591  1.8041  0.6483
  168SAPE  C21818990   1.992   1.814   7.291 -0.2054  0.4366 -0.2116
  168SAPE  H18R18991   2.023   1.753   7.378  0.6446  0.5086 -0.4664
  168SAPE  H18S18992   2.087   1.807   7.234 -0.3099  1.1144 -0.4847
  168SAPE  C21918993   1.873   1.744   7.223  0.8755 -0.1034  0.1896
  168SAPE  H19R18994   1.786   1.772   7.286  1.0912 -0.1237  0.5015
  168SAPE  H19S18995   1.891   1.634   7.228 -1.7777 -0.5991 -0.5478
  168SAPE  C22018996   1.873   1.777   7.068  0.3672  0.5731 -0.4501
  168SAPE  H20R18997   1.881   1.886   7.050 -1.0794  0.6734 -0.5437
  168SAPE  H20S18998   1.778   1.742   7.022 -1.4305  2.9970  1.2565
  168SAPE  H20T18999   1.953   1.717   7.022 -0.6561 -1.0111 -0.2035
  168SAPE   C3319000   1.899   2.180   7.014  0.5930  0.3783  0.4801
  168SAPE   H3X19001   1.906   2.082   7.065 -2.3349  1.1065  2.3629
  168SAPE   H3Y19002   1.814   2.238   7.055  1.6659  0.7087  2.2879
  168SAPE   C3419003   2.032   2.246   7.051 -1.0031 -0.6949 -0.2212
  168SAPE   H4X19004   2.027   2.339   6.991 -2.4462  0.7490  2.0709
  168SAPE   H4Y19005   2.121   2.187   7.020  2.3869  3.4552  1.1023
  168SAPE   C3519006   2.047   2.280   7.201  0.3331 -0.1925  0.3681
  168SAPE   H5X19007   2.063   2.188   7.261 -1.0524 -2.2766 -2.2880
  168SAPE   H5Y19008   1.964   2.341   7.243 -1.7752 -2.1862 -0.7158
  168SAPE   C3619009   2.170   2.362   7.229  0.6236 -0.3164 -0.2374
  168SAPE   H6X19010   2.135   2.457   7.183 -0.7801  0.2566  1.9435
  168SAPE   H6Y19011   2.261   2.320   7.181  1.7133  2.2971 -0.5801
  168SAPE   C3719012   2.203   2.366   7.377  0.4760 -0.2514 -0.0587
  168SAPE   H7X19013   2.298   2.421   7.385 -0.4253  1.2002  1.0207
  168SAPE   H7Y19014   2.218   2.263   7.417 -3.2433 -1.3117 -1.1305
  168SAPE   C3819015   2.099   2.445   7.461  0.0041 -0.1564  0.5542
  168SAPE   H8X19016   2.002   2.393   7.469  0.0540 -0.5326 -1.0225
  168SAPE   H8Y19017   2.082   2.542   7.409  0.2487 -0.5993 -0.3576
  168SAPE   C3919018   2.147   2.491   7.597 -0.3903 -0.0368 -0.0051
  168SAPE   H9X19019   2.055   2.534   7.643  0.1108  0.7009  0.3280
  168SAPE   H9Y19020   2.230   2.564   7.585 -0.0444 -0.4302 -0.0113
  168SAPE  C31019021   2.185   2.367   7.690 -0.4537 -0.1475  0.0826
  168SAPE  H10X19022   2.291   2.338   7.674 -0.8590 -1.7019  0.1388
  168SAPE  H10Y19023   2.128   2.273   7.678  0.9645 -1.0501  0.2779
  168SAPE  C31119024   2.173   2.407   7.841 -1.0839  0.4030  0.4936
  168SAPE  H11X19025   2.066   2.406   7.869 -1.6084 -2.3138 -1.4375
  168SAPE  H11Y19026   2.215   2.510   7.845 -2.1990  0.8507  0.7594
  168SAPE  C31219027   2.251   2.321   7.936  0.5801  0.5537 -0.0654
  168SAPE  H12X19028   2.361   2.331   7.921  0.6891  0.2118  0.4821
  168SAPE  H12Y19029   2.228   2.213   7.922  0.2428  0.6542 -0.2770
  168SAPE  C31319030   2.227   2.355   8.086  0.5374  0.5639  0.3129
  168SAPE  H13X19031   2.120   2.350   8.117  0.4509  0.2499 -0.0377
  168SAPE  H13Y19032   2.273   2.455   8.102 -0.4853  1.3991 -1.7456
  168SAPE  C31419033   2.301   2.253   8.173  0.3644  0.8099  0.1540
  168SAPE  H14X19034   2.410   2.266   8.161  0.4943  0.4124  0.8479
  168SAPE  H14Y19035   2.277   2.147   8.148  2.4654  0.5123 -0.6635
  168SAPE  C31519036   2.267   2.278   8.324  0.5014 -0.6429  0.0413
  168SAPE  H15X19037   2.158   2.278   8.346  0.5632 -1.4065  0.3640
  168SAPE  H15Y19038   2.308   2.380   8.342 -3.8581  1.6929 -2.4892
  168SAPE  C31619039   2.316   2.161   8.419  0.1679  0.0898 -0.3861
  168SAPE  H16X19040   2.426   2.148   8.421  0.2244  0.6396  0.2479
  168SAPE  H16Y19041   2.275   2.063   8.384  1.1373 -0.7467  0.7702
  168SAPE  C31719042   2.276   2.182   8.566  0.1686  0.5742  0.1629
  168SAPE  H17X19043   2.311   2.282   8.599  0.2976  0.2594  0.9743
  168SAPE  H17Y19044   2.337   2.112   8.626 -0.0428  0.0317 -0.2562
  168SAPE  C31819045   2.129   2.153   8.604  0.0037 -0.5098  0.3687
  168SAPE  H18X19046   2.097   2.047   8.600  1.9001 -1.0147 -2.9734
  168SAPE  H18Y19047   2.063   2.204   8.531  3.0572  2.5753 -0.3616
  168SAPE  H18Z19048   2.111   2.195   8.706 -0.2912  0.5528 -0.1158
  169SAPE     N19049   0.125   4.394   5.903 -0.4355  1.0188  0.2743
  169SAPE   HN119050   0.193   4.472   5.899  1.1611 -0.4453 -1.7389
  169SAPE   HN219051   0.134   4.325   5.826  1.2048 -0.0291  1.3771
  169SAPE   HN319052   0.037   4.434   5.865  0.6043  4.1694  1.0028
  169SAPE   C1219053   0.101   4.329   6.038 -0.7647  0.1478  0.6283
  169SAPE  H12A19054   0.195   4.270   6.050  0.6043  1.9141 -1.0456
  169SAPE  H12B19055   0.003   4.278   6.033 -0.6038  0.0368 -2.5221
  169SAPE   C1119056   0.104   4.434   6.150  0.3653 -0.4834  0.8008
  169SAPE  H11A19057   0.209   4.469   6.166  0.7156 -1.4380  0.6299
  169SAPE  H11B19058   0.076   4.387   6.247 -1.4115  0.1988  0.6280
  169SAPE     P19059  -0.135   4.549   6.154 -0.1979 -0.0953  0.1022
  169SAPE   O1319060  -0.184   4.673   6.096 -0.2649 -0.1720 -0.1745
  169SAPE   O1419061  -0.190   4.418   6.116  0.5524 -0.0027 -0.0627
  169SAPE   O1219062   0.014   4.546   6.116  0.2976  0.3794 -0.2108
  169SAPE   O1119063  -0.128   4.549   6.311 -0.0726 -0.2056 -0.1202
  169SAPE    C119064  -0.247   4.547   6.395  0.2468  0.2146  0.0518
  169SAPE    HA19065  -0.300   4.645   6.388 -2.1272 -0.7041  3.9374
  169SAPE    HB19066  -0.314   4.470   6.351 -0.6701  0.4074  1.1069
  169SAPE    C219067  -0.209   4.530   6.543  0.4301 -0.2714 -0.3863
  169SAPE    HS19068  -0.307   4.529   6.596  1.5928 -0.6712  1.8050
  169SAPE   O2119069  -0.119   4.630   6.584  0.5630 -0.1976 -0.4552
  169SAPE   C2119070  -0.143   4.755   6.565 -0.0259  0.8363  0.0975
  169SAPE   O2219071  -0.250   4.812   6.573 -0.6183  0.3159 -0.3818
  169SAPE   C2219072  -0.011   4.837   6.579 -0.0244  0.2417 -0.2463
  169SAPE   H2R19073   0.042   4.820   6.483  1.2997  0.7513  0.3888
  169SAPE   H2S19074  -0.044   4.943   6.579 -0.3999  0.1462 -1.9950
  169SAPE    C319075  -0.155   4.388   6.582  0.8323 -0.0432  0.7789
  169SAPE    HX19076  -0.066   4.377   6.516 -0.5179 -1.3815 -0.8726
  169SAPE    HY19077  -0.240   4.326   6.546  1.8320 -1.1026  0.2028
  169SAPE   O3119078  -0.128   4.371   6.718 -0.0699  0.1240 -0.5128
  169SAPE   C3119079  -0.001   4.376   6.760 -0.1233 -0.4478  0.5606
  169SAPE   O3219080   0.095   4.380   6.685 -0.5385 -0.0101  0.2927
  169SAPE   C3219081   0.006   4.384   6.908 -0.1781 -0.2592  0.2865
  169SAPE   H2X19082  -0.046   4.291   6.940 -1.3133 -0.7253 -2.7321
  169SAPE   H2Y19083  -0.047   4.478   6.933  1.6005  0.3855  1.6461
  169SAPE   C2319084   0.069   4.799   6.704 -0.3811  1.0558 -0.0574
  169SAPE   H3R19085   0.161   4.862   6.708  0.4120 -0.0053 -1.3468
  169SAPE   H3S19086   0.094   4.691   6.696  1.5565  1.4725  0.1586
  169SAPE   C2419087  -0.015   4.808   6.832  0.2010 -0.0414 -0.3235
  169SAPE   H4R19088   0.054   4.780   6.915  0.7016  1.9911 -0.0074
  169SAPE   H4S19089  -0.105   4.744   6.840  0.0056  0.3542  0.7362
  169SAPE   C2519090  -0.079   4.943   6.865 -0.2129 -0.0850 -0.2247
  169SAPE   H5R19091  -0.094   5.017   6.785 -1.1813 -0.6425 -0.5741
  169SAPE   C2619092  -0.089   5.001   6.987 -0.4400  0.2921 -0.8434
  169SAPE   H6R19093  -0.134   5.101   6.992  0.1112  0.4725  0.4931
  169SAPE   C2719094  -0.051   4.946   7.118 -0.0772 -0.2309  0.0592
  169SAPE   H7R19095  -0.046   4.836   7.109 -0.3548 -0.3821  1.5213
  169SAPE   H7S19096  -0.131   4.963   7.194  1.4052 -0.3283  1.6915
  169SAPE   C2819097   0.076   5.004   7.166 -0.3078  0.0861  0.1366
  169SAPE   H8R19098   0.156   5.025   7.094 -0.1867  0.8038  0.4705
  169SAPE   C2919099   0.112   5.015   7.296 -0.0697 -0.2988  0.0193
  169SAPE   H9R19100   0.216   5.045   7.314  0.1788 -0.9837 -0.2635
  169SAPE  C21019101   0.027   4.978   7.419 -0.6676  0.9402 -0.8032
  169SAPE  H10R19102  -0.082   4.973   7.400 -1.0928  0.7116  1.5526
  169SAPE  H10S19103   0.042   5.068   7.482  1.1372 -0.2499  0.5555
  169SAPE  C21119104   0.075   4.847   7.488  0.4741 -0.1784 -0.5561
  169SAPE  H11R19105   0.076   4.758   7.424 -1.1278 -0.3490 -0.3637
  169SAPE  C21219106   0.087   4.832   7.618 -0.5264 -0.7390  0.0775
  169SAPE  H12R19107   0.108   4.729   7.649 -1.2845 -0.6680  0.8526
  169SAPE  C21319108   0.077   4.935   7.740  0.3446 -0.3451  0.3309
  169SAPE  H13R19109   0.175   4.984   7.759 -0.9020  2.0426  0.7896
  169SAPE  H13S19110   0.069   4.875   7.833  2.3209  0.2517  0.9257
  169SAPE  C21419111  -0.021   5.047   7.740 -0.2340 -0.4011 -0.6857
  169SAPE  H14R19112  -0.091   5.051   7.656  0.5390  2.4918 -1.2363
  169SAPE  C21519113  -0.029   5.147   7.824  0.1544  0.4655 -0.5976
  169SAPE  H15R19114  -0.113   5.217   7.811 -0.6410 -0.6527 -1.5462
  169SAPE  C21619115   0.047   5.173   7.957  0.2468 -0.4293  0.2336
  169SAPE  H16R19116   0.088   5.277   7.962 -1.7599  0.3622  0.9614
  169SAPE  H16S19117   0.138   5.109   7.954  1.7206  1.5808  0.5468
  169SAPE  C21719118  -0.029   5.131   8.087 -0.6046  0.1848 -0.6909
  169SAPE  H17R19119  -0.040   5.020   8.091  1.1163  0.0082 -0.2662
  169SAPE  H17S19120  -0.124   5.188   8.081 -0.7687  0.1034  0.8516
  169SAPE  C21819121   0.052   5.157   8.216 -0.6816  0.2291 -0.5433
  169SAPE  H18R19122   0.152   5.110   8.204 -0.9760 -0.3126 -0.8933
  169SAPE  H18S19123  -0.000   5.105   8.300 -0.5009  1.0674  0.0949
  169SAPE  C21919124   0.051   5.304   8.254 -0.7225  0.7290 -0.2112
  169SAPE  H19R19125  -0.056   5.332   8.265  0.1161  3.2766  2.1240
  169SAPE  H19S19126   0.101   5.356   8.170 -2.0727  0.1122 -1.4310
  169SAPE  C22019127   0.126   5.336   8.388 -0.2211 -0.0069 -0.9096
  169SAPE  H20R19128   0.123   5.443   8.415 -1.1516 -0.4323  0.7695
  169SAPE  H20S19129   0.227   5.292   8.400  0.0247  0.5917 -0.7595
  169SAPE  H20T19130   0.071   5.283   8.469  2.0119  1.4003  1.5971
  169SAPE   C3319131   0.155   4.387   6.957 -0.3863  0.1717 -0.1221
  169SAPE   H3X19132   0.218   4.459   6.901 -0.6719 -0.0214 -0.6931
  169SAPE   H3Y19133   0.188   4.283   6.934  0.0451  0.3094 -0.1265
  169SAPE   C3419134   0.183   4.399   7.113 -0.1934 -0.3361 -0.1792
  169SAPE   H4X19135   0.196   4.503   7.151 -0.1810  0.1123 -1.3916
  169SAPE   H4Y19136   0.287   4.366   7.134  0.0624 -1.2818 -2.8018
  169SAPE   C3519137   0.077   4.336   7.199  0.5720  0.3217 -0.7719
  169SAPE   H5X19138   0.074   4.228   7.172 -2.7846 -0.5083  2.5495
  169SAPE   H5Y19139  -0.024   4.379   7.179  0.7315  1.7095  1.2292
  169SAPE   C3619140   0.110   4.352   7.353 -0.4149  0.1041 -0.0187
  169SAPE   H6X19141   0.154   4.451   7.378  0.4969 -0.2337 -0.2558
  169SAPE   H6Y19142   0.193   4.282   7.381  1.1175  1.9453  0.1597
  169SAPE   C3719143  -0.005   4.311   7.440  0.7675 -0.1466  0.1219
  169SAPE   H7X19144  -0.001   4.201   7.450 -2.3091 -0.5234 -2.2031
  169SAPE   H7Y19145  -0.098   4.331   7.383  0.0557  0.3338  1.4519
  169SAPE   C3819146  -0.002   4.372   7.586  0.0326  0.4205  0.3942
  169SAPE   H8X19147  -0.099   4.342   7.629 -0.4817  1.6347  0.1112
  169SAPE   H8Y19148   0.006   4.483   7.580 -2.3713  0.7520  2.6813
  169SAPE   C3919149   0.102   4.308   7.678  0.0742 -0.7899  0.1758
  169SAPE   H9X19150   0.205   4.311   7.636 -0.9777 -2.8722 -2.7633
  169SAPE   H9Y19151   0.070   4.201   7.678 -0.9946 -0.4855  0.5966
  169SAPE  C31019152   0.112   4.352   7.825  0.5118  0.0764  0.1596
  169SAPE  H10X19153   0.013   4.365   7.873  0.6079  0.0208  0.3719
  169SAPE  H10Y19154   0.173   4.444   7.828  0.1216  0.2786  2.9969
  169SAPE  C31119155   0.195   4.250   7.908  0.2167 -0.5991  0.0161
  169SAPE  H11X19156   0.300   4.275   7.885  0.7506 -2.2245  0.6371
  169SAPE  H11Y19157   0.175   4.146   7.873  0.1218 -1.2718  2.0085
  169SAPE  C31219158   0.174   4.277   8.059  0.8298 -0.1717 -0.1101
  169SAPE  H12X19159   0.068   4.299   8.084  0.1950 -2.2528 -0.8774
  169SAPE  H12Y19160   0.242   4.364   8.074  2.5170 -1.3047 -1.0026
  169SAPE  C31319161   0.236   4.165   8.147 -0.4029  0.1762 -0.0316
  169SAPE  H13X19162   0.342   4.156   8.115  0.1516 -0.4977  1.8905
  169SAPE  H13Y19163   0.170   4.076   8.136  0.4171 -0.2927 -1.2167
  169SAPE  C31419164   0.243   4.215   8.293 -0.3264  0.0769  0.3129
  169SAPE  H14X19165   0.147   4.245   8.339  0.0790 -0.7537  1.7496
  169SAPE  H14Y19166   0.304   4.307   8.300 -2.8607  1.6640  2.2075
  169SAPE  C31519167   0.307   4.105   8.382  0.2977 -0.4693  0.2658
  169SAPE  H15X19168   0.392   4.062   8.326  0.5043 -1.0603  1.0415
  169SAPE  H15Y19169   0.239   4.023   8.413  0.6453 -0.9038 -0.1267
  169SAPE  C31619170   0.352   4.175   8.507  0.0233  0.4614 -0.4572
  169SAPE  H16X19171   0.287   4.257   8.544 -1.5170 -0.6643 -0.6143
  169SAPE  H16Y19172   0.450   4.217   8.477  1.7955 -1.0741  2.9051
  169SAPE  C31719173   0.369   4.076   8.629  0.0573 -0.1754 -0.5045
  169SAPE  H17X19174   0.269   4.047   8.667 -0.2198  0.3929 -0.8004
  169SAPE  H17Y19175   0.418   4.142   8.704  2.5162 -1.0997 -1.2229
  169SAPE  C31819176   0.455   3.960   8.595 -0.3174  0.1416 -0.2264
  169SAPE  H18X19177   0.467   3.897   8.686 -3.2170  0.7407  0.6528
  169SAPE  H18Y19178   0.540   3.986   8.529 -0.6115  0.1798 -0.5915
  169SAPE  H18Z19179   0.405   3.892   8.522 -1.4834 -1.0312  1.6107
  170SAPE     N19180   1.473   1.588   6.256 -0.7907  0.1936 -0.2896
  170SAPE   HN119181   1.489   1.690   6.270  2.4207 -0.3483  0.1715
  170SAPE   HN219182   1.554   1.547   6.206  1.1471  4.0286 -0.4982
  170SAPE   HN319183   1.394   1.577   6.189 -0.6871  1.2157 -0.5930
  170SAPE   C1219184   1.431   1.507   6.379  0.1112  0.6114  1.0056
  170SAPE  H12A19185   1.339   1.557   6.417 -0.8506 -0.2627 -0.1461
  170SAPE  H12B19186   1.505   1.494   6.461 -0.2592 -0.7317  1.1336
  170SAPE   C1119187   1.399   1.372   6.323 -0.2167  0.1797  0.8620
  170SAPE  H11A19188   1.362   1.315   6.410 -1.0738 -0.0910  0.3263
  170SAPE  H11B19189   1.493   1.319   6.294 -0.7157 -0.5892  0.6371
  170SAPE     P19190   1.176   1.280   6.224  0.1804 -0.5624 -0.2267
  170SAPE   O1319191   1.078   1.317   6.119 -0.2205 -0.0880 -0.0572
  170SAPE   O1419192   1.232   1.147   6.226  0.5893  0.5718  0.0277
  170SAPE   O1219193   1.304   1.376   6.220 -0.2889  0.0351  0.5127
  170SAPE   O1119194   1.109   1.318   6.361 -0.6835  0.0616  0.7012
  170SAPE    C119195   1.113   1.221   6.466 -0.0020  0.2433 -0.1054
  170SAPE    HA19196   1.105   1.119   6.423  2.1110  0.2861 -0.6901
  170SAPE    HB19197   1.205   1.223   6.528  1.1951  0.8651 -1.8411
  170SAPE    C219198   1.006   1.249   6.574 -0.4861 -0.1317 -0.7808
  170SAPE    HS19199   0.906   1.268   6.530  0.2145  2.9858 -1.1322
  170SAPE   O2119200   1.070   1.358   6.648 -0.3444  0.1803  0.5360
  170SAPE   C2119201   0.980   1.455   6.685 -0.4615 -1.4859 -0.9190
  170SAPE   O2219202   0.863   1.459   6.658 -0.4827  0.4341  0.2651
  170SAPE   C2219203   1.055   1.562   6.751  0.0819 -0.8106 -0.2055
  170SAPE   H2R19204   1.149   1.575   6.693 -0.9823  0.3017 -1.7203
  170SAPE   H2S19205   1.009   1.663   6.748 -1.9004 -1.7026 -0.5579
  170SAPE    C319206   0.992   1.129   6.667  0.1302 -0.0381 -0.2641
  170SAPE    HX19207   1.087   1.076   6.690  0.1239 -0.6856 -1.6529
  170SAPE    HY19208   0.943   1.054   6.601 -1.4514  0.8790 -0.1269
  170SAPE   O3119209   0.909   1.171   6.779 -0.3693 -0.0696 -0.0701
  170SAPE   C3119210   0.796   1.108   6.799  0.2184  0.1578  0.0591
  170SAPE   O3219211   0.741   1.030   6.716 -0.2979 -0.4908 -0.6703
  170SAPE   C3219212   0.733   1.151   6.932  0.5539 -0.0267  0.2194
  170SAPE   H2X19213   0.692   1.254   6.918 -0.0205 -0.1726  0.7736
  170SAPE   H2Y19214   0.820   1.163   7.001  2.3859  2.0561 -2.3469
  170SAPE   C2319215   1.099   1.526   6.899 -0.5759  0.0002 -0.5260
  170SAPE   H3R19216   1.174   1.602   6.931 -0.4585 -0.5115  0.4276
  170SAPE   H3S19217   1.154   1.430   6.894  0.6120  0.7457 -2.0509
  170SAPE   C2419218   0.986   1.506   7.010  0.1887 -0.2586 -0.0044
  170SAPE   H4R19219   1.041   1.470   7.099  0.3667  0.2915  0.1106
  170SAPE   H4S19220   0.918   1.428   6.969 -0.2281  0.3419 -0.4683
  170SAPE   C2519221   0.910   1.625   7.065 -0.3014 -0.6840  0.2803
  170SAPE   H5R19222   0.850   1.668   6.984  0.3441 -2.9882 -1.4528
  170SAPE   C2619223   0.903   1.680   7.188  0.3495 -0.3574  0.3474
  170SAPE   H6R19224   0.846   1.772   7.208 -1.6018 -1.5595  0.4550
  170SAPE   C2719225   0.967   1.627   7.311  0.1748 -0.1971  0.0054
  170SAPE   H7R19226   0.994   1.520   7.307 -1.8887 -0.7318 -0.4303
  170SAPE   H7S19227   0.887   1.618   7.389  1.0755  0.5750  1.0441
  170SAPE   C2819228   1.082   1.717   7.352 -0.6923 -0.3177  0.5087
  170SAPE   H8R19229   1.184   1.692   7.317 -1.5392  0.6243 -2.7985
  170SAPE   C2919230   1.083   1.820   7.440  0.1809 -0.7688  0.1094
  170SAPE   H9R19231   1.181   1.865   7.460 -0.0945 -0.1699  0.1347
  170SAPE  C21019232   0.969   1.893   7.518  0.5941 -0.1831  0.2848
  170SAPE  H10R19233   0.896   1.929   7.442  1.8557 -0.6968 -1.2072
  170SAPE  H10S19234   1.009   1.990   7.556 -1.1635  0.4637  0.5431
  170SAPE  C21119235   0.904   1.802   7.630  0.2879  0.4693  0.3791
  170SAPE  H11R19236   0.834   1.723   7.600  1.3341 -0.1484 -0.4346
  170SAPE  C21219237   0.917   1.811   7.768  0.4080  0.1783 -0.2435
  170SAPE  H12R19238   0.862   1.743   7.835  0.6220 -0.4713 -0.7210
  170SAPE  C21319239   1.005   1.912   7.836  0.2003  0.9310 -0.3713
  170SAPE  H13R19240   0.947   1.964   7.915 -4.6679 -1.3452 -2.2882
  170SAPE  H13S19241   1.035   1.989   7.762 -0.5694  0.3432 -1.2988
  170SAPE  C21419242   1.139   1.853   7.880  0.3691  0.3165 -0.1498
  170SAPE  H14R19243   1.167   1.773   7.809  0.4836 -1.0420  1.4092
  170SAPE  C21519244   1.211   1.885   7.983 -0.8357  0.8274  0.2851
  170SAPE  H15R19245   1.305   1.835   8.011  0.2757  2.8680  0.2751
  170SAPE  C21619246   1.170   1.991   8.080 -0.5934  0.6195 -0.2957
  170SAPE  H16R19247   1.088   2.054   8.039 -1.8147 -0.5677  0.2797
  170SAPE  H16S19248   1.256   2.060   8.093 -1.0027  0.9251  0.8232
  170SAPE  C21719249   1.132   1.947   8.220 -0.0347  0.3672  0.6241
  170SAPE  H17R19250   1.196   1.863   8.255  0.1829  0.1088 -0.3618
  170SAPE  H17S19251   1.027   1.912   8.225  0.8012 -2.0658  2.1690
  170SAPE  C21819252   1.143   2.054   8.331 -0.0806 -0.4298 -0.2778
  170SAPE  H18R19253   1.088   2.145   8.298 -0.2207  0.1027  1.3739
  170SAPE  H18S19254   1.251   2.072   8.348  0.2315 -2.4310 -0.0441
  170SAPE  C21919255   1.078   2.005   8.464 -0.0407 -0.5995  0.3000
  170SAPE  H19R19256   1.140   1.916   8.490 -1.1190 -1.6889 -0.7509
  170SAPE  H19S19257   0.971   1.985   8.443 -0.7394  2.2340  0.9859
  170SAPE  C22019258   1.099   2.101   8.583  0.4071  0.1177 -1.3088
  170SAPE  H20R19259   1.059   2.203   8.569  0.3725  0.8074  3.0360
  170SAPE  H20S19260   1.206   2.094   8.614  0.1334 -0.8787 -0.5533
  170SAPE  H20T19261   1.040   2.064   8.670  3.2398 -0.2324  0.5291
  170SAPE   C3319262   0.621   1.053   6.978 -0.0845 -0.7838  0.2742
  170SAPE   H3X19263   0.556   1.044   6.888 -1.9619  1.0732  1.4236
  170SAPE   H3Y19264   0.570   1.118   7.051  0.3500 -0.1802  0.0478
  170SAPE   C3419265   0.666   0.918   7.043 -0.4577 -0.1834 -0.3030
  170SAPE   H4X19266   0.702   0.843   6.970  2.2618  1.3565 -0.5963
  170SAPE   H4Y19267   0.583   0.867   7.096 -0.1943  0.4889  0.7849
  170SAPE   C3519268   0.777   0.949   7.139 -0.1327 -0.6701 -0.3009
  170SAPE   H5X19269   0.872   0.985   7.094 -0.1976  0.2161  0.2587
  170SAPE   H5Y19270   0.817   0.854   7.180  0.0040 -0.8543 -0.8578
  170SAPE   C3619271   0.730   1.028   7.258  0.1976 -0.1315 -0.0115
  170SAPE   H6X19272   0.640   0.986   7.308  1.9234 -0.2414  3.1048
  170SAPE   H6Y19273   0.696   1.133   7.244  0.1337 -0.1724 -0.1684
  170SAPE   C3719274   0.844   1.040   7.366  0.5286 -0.5260 -0.1273
  170SAPE   H7X19275   0.918   1.118   7.336  0.8390 -0.1939  1.4248
  170SAPE   H7Y19276   0.901   0.946   7.381 -1.5932 -1.8032  0.0093
  170SAPE   C3819277   0.779   1.087   7.498 -0.0906  0.4527  0.0557
  170SAPE   H8X19278   0.711   1.009   7.538  3.0489 -1.7795  1.3304
  170SAPE   H8Y19279   0.709   1.171   7.483  0.3724  0.7884 -0.2425
  170SAPE   C3919280   0.880   1.114   7.620 -0.4480  0.4297  0.3808
  170SAPE   H9X19281   0.946   1.200   7.593 -3.2113  2.4389 -0.2170
  170SAPE   H9Y19282   0.948   1.026   7.619 -0.5685  0.3196  1.4049
  170SAPE  C31019283   0.823   1.147   7.754 -0.1217 -0.2909  0.0434
  170SAPE  H10X19284   0.811   1.055   7.815 -0.9900  0.9373  1.8052
  170SAPE  H10Y19285   0.726   1.201   7.752  0.2395  0.3833  0.3430
  170SAPE  C31119286   0.914   1.235   7.842 -0.5545  0.4740  0.6791
  170SAPE  H11X19287   0.905   1.337   7.800  1.2965 -0.7798 -3.0748
  170SAPE  H11Y19288   1.021   1.208   7.830  0.0577  3.0872 -0.0572
  170SAPE  C31219289   0.861   1.240   7.985 -0.1788 -0.6634 -0.2071
  170SAPE  H12X19290   0.802   1.148   8.004 -2.2673  1.0026  1.7039
  170SAPE  H12Y19291   0.807   1.336   7.997  0.9218 -0.1250  0.5575
  170SAPE  C31319292   0.974   1.243   8.096  0.0881 -0.3929  0.2454
  170SAPE  H13X19293   1.032   1.337   8.084 -1.2989  0.6189  1.2367
  170SAPE  H13Y19294   1.049   1.162   8.084  0.6157  0.1452 -0.1213
  170SAPE  C31419295   0.921   1.238   8.249  0.0171  0.4709 -0.0478
  170SAPE  H14X19296   0.858   1.148   8.265 -0.3700  0.8810  0.7655
  170SAPE  H14Y19297   0.844   1.318   8.258  0.4644  0.8921  0.0746
  170SAPE  C31519298   1.035   1.251   8.347 -0.1013 -0.1604  0.2027
  170SAPE  H15X19299   0.995   1.299   8.439  3.6556  1.6069  0.9903
  170SAPE  H15Y19300   1.104   1.326   8.303 -1.1241  0.6574 -0.0365
  170SAPE  C31619301   1.103   1.115   8.383 -0.6199  0.7286  0.1504
  170SAPE  H16X19302   1.148   1.065   8.294 -0.4044  0.6184  0.3210
  170SAPE  H16Y19303   1.027   1.042   8.417 -1.9370  2.5501  1.2208
  170SAPE  C31719304   1.204   1.125   8.501 -0.8200  0.0850 -0.5496
  170SAPE  H17X19305   1.172   1.197   8.579 -2.5890 -2.0643  0.7583
  170SAPE  H17Y19306   1.293   1.175   8.456  0.0905 -0.5203  0.5517
  170SAPE  C31819307   1.240   0.982   8.547  0.8603  0.4681 -0.2837
  170SAPE  H18X19308   1.250   0.916   8.459 -1.5457  0.2705 -0.4455
  170SAPE  H18Y19309   1.162   0.941   8.614  0.8115 -0.6270 -0.9953
  170SAPE  H18Z19310   1.334   0.984   8.607  0.6287  1.1053  0.0591
  171SAPE     N19311   2.788   2.459   6.250  0.1689 -0.7526 -0.2362
  171SAPE   HN119312   2.744   2.541   6.204 -0.1162  0.3678  1.9799
  171SAPE   HN219313   2.890   2.451   6.228  0.5544  1.2151  0.6956
  171SAPE   HN319314   2.751   2.365   6.227 -0.2725 -0.7145  0.3237
  171SAPE   C1219315   2.777   2.474   6.399  0.1284 -0.3292  0.0460
  171SAPE  H12A19316   2.671   2.453   6.427  0.0260  0.7719  0.5114
  171SAPE  H12B19317   2.815   2.576   6.421 -0.5747 -0.0427 -0.0335
  171SAPE   C1119318   2.867   2.374   6.474 -0.1966  0.0494 -0.0196
  171SAPE  H11A19319   2.818   2.277   6.497 -0.2352  0.5111  1.8948
  171SAPE  H11B19320   2.890   2.420   6.572  1.5901  1.3012 -0.9919
  171SAPE     P19321   3.123   2.415   6.440 -0.1771 -0.0472 -0.2735
  171SAPE   O1319322   3.239   2.371   6.359 -0.3583 -0.4427 -0.1200
  171SAPE   O1419323   3.092   2.557   6.449 -0.0184 -0.1094 -0.1132
  171SAPE   O1219324   2.989   2.351   6.395  0.4688  0.0455 -0.1820
  171SAPE   O1119325   3.137   2.359   6.589 -0.2078  0.2706 -1.1426
  171SAPE    C119326   3.180   2.229   6.612  0.1044  0.3645 -0.8149
  171SAPE    HA19327   3.213   2.169   6.525  2.0195  1.0883 -0.6282
  171SAPE    HB19328   3.268   2.233   6.680 -0.3137 -2.6752  0.0200
  171SAPE    C219329   3.075   2.144   6.676 -0.5569 -0.3884  0.6855
  171SAPE    HS19330   2.982   2.155   6.615 -0.6460 -1.1791  0.6744
  171SAPE   O2119331   3.050   2.194   6.804  0.3257 -0.2087  0.5568
  171SAPE   C2119332   2.943   2.157   6.869 -0.4291  0.2285  0.5771
  171SAPE   O2219333   2.845   2.102   6.820 -0.1487 -0.2151  0.1680
  171SAPE   C2219334   2.943   2.211   7.010  0.7534 -0.1922  0.3116
  171SAPE   H2R19335   3.047   2.230   7.042  0.6772 -0.4433  0.7127
  171SAPE   H2S19336   2.900   2.313   7.008  0.0069 -0.5161 -2.1920
  171SAPE    C319337   3.116   1.997   6.673 -0.1399 -0.7436 -0.0793
  171SAPE    HX19338   3.122   1.967   6.566 -0.8452  1.1095 -0.6664
  171SAPE    HY19339   3.030   1.932   6.701  0.1088 -1.0215  0.0310
  171SAPE   O3119340   3.239   1.969   6.743 -0.0190 -0.8248  0.8820
  171SAPE   C3119341   3.230   1.962   6.881 -0.5043 -0.1222  0.9899
  171SAPE   O3219342   3.129   1.939   6.944  0.0067 -0.4918 -0.6860
  171SAPE   C3219343   3.371   1.965   6.936  0.6029  0.4648  0.2018
  171SAPE   H2X19344   3.443   1.891   6.895  3.0614  2.2883  1.1285
  171SAPE   H2Y19345   3.366   1.941   7.045  0.0992 -0.3422  0.0070
  171SAPE   C2319346   2.860   2.124   7.113  0.0389 -0.4060  0.3287
  171SAPE   H3R19347   2.890   2.018   7.097 -0.5564 -0.4060 -0.8142
  171SAPE   H3S19348   2.751   2.120   7.095  0.2941 -1.4456 -1.0575
  171SAPE   C2419349   2.877   2.161   7.262  0.5028  0.2876 -0.2019
  171SAPE   H4R19350   2.799   2.109   7.320  2.5322 -0.7800  1.6526
  171SAPE   H4S19351   2.881   2.271   7.275  2.8938  0.2118 -0.0151
  171SAPE   C2519352   3.014   2.111   7.306  0.0893 -0.1637  0.7481
  171SAPE   H5R19353   3.081   2.056   7.237  0.7584  0.6580  0.7303
  171SAPE   C2619354   3.056   2.118   7.437  1.1001 -0.0948 -1.1898
  171SAPE   H6R19355   3.150   2.067   7.460  0.6987  1.1375  3.5974
  171SAPE   C2719356   2.971   2.168   7.554 -0.0155  0.1865  0.3958
  171SAPE   H7R19357   2.867   2.131   7.538  0.3533 -0.4183 -0.7054
  171SAPE   H7S19358   2.967   2.279   7.559 -2.3569  0.1614 -0.2611
  171SAPE   C2819359   3.029   2.110   7.684  0.0323  0.1062 -0.0290
  171SAPE   H8R19360   3.009   2.006   7.713  1.3975  0.3171  1.7569
  171SAPE   C2919361   3.078   2.191   7.779  0.5134  0.1869  0.6131
  171SAPE   H9R19362   3.125   2.151   7.870  0.7950 -1.1009 -0.0831
  171SAPE  C21019363   3.099   2.339   7.774 -0.5916  0.1283 -0.2626
  171SAPE  H10R19364   2.998   2.386   7.777 -0.4576  0.3086  1.6222
  171SAPE  H10S19365   3.143   2.386   7.683 -2.0795  1.8566 -0.1364
  171SAPE  C21119366   3.187   2.404   7.881  0.6125  0.4448 -0.0126
  171SAPE  H11R19367   3.294   2.379   7.882  0.2039 -1.3953  2.2342
  171SAPE  C21219368   3.154   2.505   7.968  0.3842 -0.6188 -0.4439
  171SAPE  H12R19369   3.230   2.546   8.036 -0.2197  2.6654 -1.6772
  171SAPE  C21319370   3.022   2.579   7.966  0.4601 -0.5863 -0.3862
  171SAPE  H13R19371   2.982   2.589   8.069 -5.3359  0.1662 -2.5053
  171SAPE  H13S19372   2.943   2.537   7.900  0.6567 -0.2722 -0.8252
  171SAPE  C21419373   3.056   2.717   7.928 -0.3478 -1.0828  0.2319
  171SAPE  H14R19374   3.055   2.734   7.819  0.5152  1.0529  0.5341
  171SAPE  C21519375   3.062   2.830   8.007 -0.0553  0.2177 -0.5431
  171SAPE  H15R19376   3.092   2.925   7.961 -1.7123  1.2488  0.4240
  171SAPE  C21619377   3.031   2.837   8.158  0.2121 -0.1737 -0.6922
  171SAPE  H16R19378   3.099   2.906   8.213 -0.9018  1.2322 -1.0378
  171SAPE  H16S19379   3.031   2.740   8.211  0.0958  0.0786 -0.2294
  171SAPE  C21719380   2.890   2.896   8.164  0.0091  0.0596  0.3405
  171SAPE  H17R19381   2.804   2.831   8.140  0.7774 -0.0676 -2.2299
  171SAPE  H17S19382   2.891   2.985   8.097 -0.9888 -0.4534 -0.3589
  171SAPE  C21819383   2.851   2.937   8.309 -0.9145  0.0792 -0.3280
  171SAPE  H18R19384   2.898   3.025   8.357  1.6823 -1.1418 -0.5704
  171SAPE  H18S19385   2.853   2.845   8.372 -1.0309  2.1598  2.7971
  171SAPE  C21919386   2.698   2.968   8.313 -0.5026  0.4502 -0.2064
  171SAPE  H19R19387   2.655   2.996   8.412  0.1880  2.0720 -0.3487
  171SAPE  H19S19388   2.637   2.877   8.293  1.3710 -0.6794 -0.8900
  171SAPE  C22019389   2.639   3.069   8.208  0.1399 -0.5641 -0.0018
  171SAPE  H20R19390   2.540   3.112   8.234 -0.1850 -1.3175  0.0345
  171SAPE  H20S19391   2.657   3.032   8.105 -2.6616 -0.4185 -0.5632
  171SAPE  H20T19392   2.709   3.155   8.211  1.2650 -1.4307 -0.8386
  171SAPE   C3319393   3.432   2.107   6.928 -0.1933 -0.2709 -0.7217
  171SAPE   H3X19394   3.368   2.183   6.979  1.4611  0.6490  0.0540
  171SAPE   H3Y19395   3.440   2.127   6.819  0.2626 -1.9660 -1.0053
  171SAPE   C3419396   3.572   2.112   6.998  0.7295 -0.2198  0.5178
  171SAPE   H4X19397   3.604   2.219   6.997  2.1590 -0.6219  1.5869
  171SAPE   H4Y19398   3.648   2.062   6.935  1.6825  2.1139 -0.2319
  171SAPE   C3519399   3.588   2.040   7.129 -0.9825  0.2921 -0.3750
  171SAPE   H5X19400   3.698   2.045   7.147 -1.1426  0.9194  0.4361
  171SAPE   H5Y19401   3.571   1.930   7.130  1.0173 -0.0831 -2.4886
  171SAPE   C3619402   3.506   2.096   7.247  0.3942 -0.2709  0.3976
  171SAPE   H6X19403   3.401   2.062   7.234 -0.3075  2.3095 -1.1314
  171SAPE   H6Y19404   3.499   2.206   7.253 -0.5081 -0.0846 -3.0354
  171SAPE   C3719405   3.552   2.044   7.387 -0.1573  0.0198  0.6308
  171SAPE   H7X19406   3.663   2.035   7.382 -0.2825 -1.2517 -0.1743
  171SAPE   H7Y19407   3.520   1.938   7.394  0.1760 -0.2192 -1.0775
  171SAPE   C3819408   3.510   2.127   7.514 -0.0329 -0.9916 -0.1628
  171SAPE   H8X19409   3.400   2.145   7.517  0.3094  0.9648  1.6243
  171SAPE   H8Y19410   3.559   2.218   7.474  0.7186 -0.5185  1.7592
  171SAPE   C3919411   3.575   2.084   7.640  0.2006 -0.2086 -0.2544
  171SAPE   H9X19412   3.685   2.094   7.625  0.3654 -0.7335  0.5378
  171SAPE   H9Y19413   3.557   1.978   7.667  2.8157 -0.5742  0.2707
  171SAPE  C31019414   3.505   2.147   7.765  0.6397 -0.2522  0.9975
  171SAPE  H10X19415   3.399   2.116   7.759  0.9967 -1.1442 -1.2298
  171SAPE  H10Y19416   3.522   2.255   7.746  0.5906 -0.7894 -2.3732
  171SAPE  C31119417   3.567   2.110   7.895 -0.1670  0.2210 -0.1579
  171SAPE  H11X19418   3.669   2.150   7.905 -0.4290  1.1643 -1.2483
  171SAPE  H11Y19419   3.571   1.999   7.900  0.4876  0.2065 -0.8943
  171SAPE  C31219420   3.477   2.147   8.016 -0.1504  0.0449  0.2236
  171SAPE  H12X19421   3.495   2.076   8.099  1.6025 -0.7076 -0.7746
  171SAPE  H12Y19422   3.373   2.136   7.979  0.2685 -0.3611 -0.8582
  171SAPE  C31319423   3.490   2.287   8.062 -0.1370 -0.4777 -0.2395
  171SAPE  H13X19424   3.466   2.360   7.982 -1.0142 -0.7140 -0.1944
  171SAPE  H13Y19425   3.590   2.319   8.099  0.5994 -0.1221 -2.4973
  171SAPE  C31419426   3.408   2.304   8.191  0.2103 -0.0799 -0.1609
  171SAPE  H14X19427   3.420   2.217   8.260  0.5949  0.8395  0.9485
  171SAPE  H14Y19428   3.301   2.305   8.161 -1.1188 -2.8287  4.0513
  171SAPE  C31519429   3.438   2.438   8.263 -0.7781 -0.0249  0.5527
  171SAPE  H15X19430   3.413   2.517   8.189  0.9839 -0.1997 -0.2501
  171SAPE  H15Y19431   3.546   2.428   8.284 -0.2553 -0.2213 -2.0393
  171SAPE  C31619432   3.351   2.444   8.394  0.1112 -1.0773  0.0999
  171SAPE  H16X19433   3.378   2.363   8.466 -0.4563 -0.5351  0.9318
  171SAPE  H16Y19434   3.245   2.426   8.369 -0.2337 -0.5804  1.1643
  171SAPE  C31719435   3.369   2.579   8.468 -0.5382  0.1614 -0.0851
  171SAPE  H17X19436   3.474   2.585   8.504 -0.8666 -1.9493  1.3032
  171SAPE  H17Y19437   3.312   2.578   8.562 -0.1313  2.5233  0.2276
  171SAPE  C31819438   3.328   2.703   8.380 -0.0612  0.0988 -0.7049
  171SAPE  H18X19439   3.351   2.793   8.441  0.8020 -0.0959 -0.7480
  171SAPE  H18Y19440   3.218   2.698   8.364 -0.2612  0.9363  0.3369
  171SAPE  H18Z19441   3.389   2.712   8.288  0.5010  2.4141 -0.1473
  172SAPE     N19442   1.929   0.252   6.392  0.3786 -0.6058 -0.0518
  172SAPE   HN119443   1.946   0.201   6.480 -0.2063 -1.8563 -0.6446
  172SAPE   HN219444   1.848   0.203   6.349 -0.8882  1.4792 -0.1326
  172SAPE   HN319445   2.012   0.234   6.333 -0.1375 -0.1622 -0.9331
  172SAPE   C1219446   1.905   0.399   6.420  0.0025  0.6264 -0.9226
  172SAPE  H12A19447   1.853   0.418   6.517  0.1950 -1.5250 -0.3651
  172SAPE  H12B19448   1.847   0.444   6.337  0.4186  0.7384 -1.1534
  172SAPE   C1119449   2.046   0.460   6.444 -0.2987 -0.0874 -0.2374
  172SAPE  H11A19450   2.093   0.401   6.525  0.9354  1.0820 -0.0860
  172SAPE  H11B19451   2.036   0.565   6.479 -0.2748  0.1754 -1.0146
  172SAPE     P19452   2.257   0.494   6.288  0.7013  0.1981 -0.2166
  172SAPE   O1319453   2.353   0.389   6.340 -0.3945  0.4163 -0.2678
  172SAPE   O1419454   2.260   0.532   6.148  0.1367 -0.3402  0.0135
  172SAPE   O1219455   2.117   0.441   6.318 -0.4641  0.2173 -0.4666
  172SAPE   O1119456   2.272   0.612   6.388  0.3090  0.2955  0.3537
  172SAPE    C119457   2.264   0.748   6.356 -0.3883 -0.7702 -1.1838
  172SAPE    HA19458   2.356   0.794   6.315  0.5535 -0.7555  0.8807
  172SAPE    HB19459   2.196   0.767   6.270  1.2015 -0.7408 -2.4452
  172SAPE    C219460   2.209   0.842   6.475  0.6861 -0.3935 -0.4588
  172SAPE    HS19461   2.290   0.909   6.512 -0.4946 -0.6383  2.7919
  172SAPE   O2119462   2.153   0.759   6.577 -0.0541  0.3606 -0.8129
  172SAPE   C2119463   2.239   0.704   6.655 -0.0783 -0.5559  0.6469
  172SAPE   O2219464   2.360   0.723   6.654 -0.2985 -0.1814 -0.2171
  172SAPE   C2219465   2.171   0.619   6.764  0.5345  0.2480 -0.4628
  172SAPE   H2R19466   2.062   0.637   6.776 -0.5646 -3.2836 -3.7428
  172SAPE   H2S19467   2.169   0.519   6.715  0.9869 -0.4061  0.8432
  172SAPE    C319468   2.101   0.944   6.423 -0.0441  0.0413  0.6077
  172SAPE    HX19469   2.031   0.896   6.352 -1.5707 -1.2873  2.9423
  172SAPE    HY19470   2.147   1.028   6.366 -1.5758  0.2654 -0.3426
  172SAPE   O3119471   2.033   1.004   6.537  0.2621 -0.3201  0.1717
  172SAPE   C3119472   1.929   0.937   6.575  0.5369  0.0771 -0.1702
  172SAPE   O3219473   1.895   0.827   6.526  0.2223  0.2638  0.1817
  172SAPE   C3219474   1.861   1.021   6.684 -0.2812 -0.5128 -0.9308
  172SAPE   H2X19475   1.800   1.095   6.628 -0.2413 -0.6636 -1.1718
  172SAPE   H2Y19476   1.940   1.073   6.743 -0.3749 -1.3189 -0.0791
  172SAPE   C2319477   2.240   0.607   6.895  0.1546 -0.3275 -0.0349
  172SAPE   H3R19478   2.350   0.605   6.889  0.0364  0.8333 -3.2468
  172SAPE   H3S19479   2.226   0.502   6.929 -0.3637  0.0366  0.8913
  172SAPE   C2419480   2.192   0.697   7.005 -0.3593 -0.0261 -0.4828
  172SAPE   H4R19481   2.220   0.654   7.103 -3.4864 -0.3279  0.3299
  172SAPE   H4S19482   2.083   0.702   7.021 -0.3525  2.9430 -0.9162
  172SAPE   C2519483   2.240   0.840   6.979 -0.0715  0.2382 -0.3229
  172SAPE   H5R19484   2.178   0.897   6.908  1.8991  2.2448 -0.5041
  172SAPE   C2619485   2.342   0.905   7.027  0.4718  0.0009 -0.3776
  172SAPE   H6R19486   2.365   1.009   6.998 -0.2760 -0.5579 -3.0512
  172SAPE   C2719487   2.446   0.843   7.118 -0.2720  0.5594  0.1134
  172SAPE   H7R19488   2.401   0.796   7.208 -0.4484 -0.0350 -0.2783
  172SAPE   H7S19489   2.506   0.926   7.161  1.1794 -0.2990 -0.2285
  172SAPE   C2819490   2.546   0.750   7.052 -0.1956 -0.2615 -0.4979
  172SAPE   H8R19491   2.530   0.733   6.945 -1.3677 -0.1706 -0.3439
  172SAPE   C2919492   2.654   0.702   7.112 -0.1071 -0.4650 -0.4350
  172SAPE   H9R19493   2.722   0.637   7.055  2.9495  1.9619  0.3202
  172SAPE  C21019494   2.691   0.729   7.260 -0.2553  0.0687 -0.2164
  172SAPE  H10R19495   2.616   0.670   7.316 -1.5387  1.7206 -0.1731
  172SAPE  H10S19496   2.673   0.837   7.278 -2.8251 -0.9620  4.0298
  172SAPE  C21119497   2.827   0.665   7.301 -0.3422  0.4817 -0.8495
  172SAPE  H11R19498   2.880   0.594   7.235  1.3765  2.6805 -1.9238
  172SAPE  C21219499   2.895   0.695   7.414  0.1357  0.1597 -0.6349
  172SAPE  H12R19500   2.990   0.646   7.439 -0.0097 -0.4346 -1.2453
  172SAPE  C21319501   2.853   0.788   7.528  0.3311  0.2035  0.4719
  172SAPE  H13R19502   2.751   0.830   7.517 -0.1107 -0.4122  2.1176
  172SAPE  H13S19503   2.919   0.876   7.539 -2.8334  2.6751  0.2159
  172SAPE  C21419504   2.850   0.699   7.650  0.4228  0.3176  0.0269
  172SAPE  H14R19505   2.854   0.591   7.632  1.0244 -0.0643  2.2490
  172SAPE  C21519506   2.841   0.738   7.783  0.0056 -0.5489  0.4354
  172SAPE  H15R19507   2.866   0.657   7.853  2.2076 -1.0769 -0.9189
  172SAPE  C21619508   2.844   0.887   7.815 -0.1142 -0.3065 -0.1333
  172SAPE  H16R19509   2.821   0.955   7.730 -1.4911  0.9024  1.1676
  172SAPE  H16S19510   2.938   0.920   7.865 -0.3915  0.2367  0.0429
  172SAPE  C21719511   2.727   0.917   7.928  0.7829 -0.2196  0.1786
  172SAPE  H17R19512   2.711   0.831   7.997  0.1915  0.4295  0.8554
  172SAPE  H17S19513   2.635   0.921   7.865  1.4778  1.1498 -0.7717
  172SAPE  C21819514   2.743   1.053   7.992 -0.2614  0.5291  0.0900
  172SAPE  H18R19515   2.719   1.123   7.909 -3.0670 -1.6362 -1.0453
  172SAPE  H18S19516   2.845   1.062   8.034 -0.5294 -0.2572  0.9327
  172SAPE  C21919517   2.638   1.069   8.103  0.4777 -0.4155  0.4744
  172SAPE  H19R19518   2.540   1.033   8.064  0.8129  0.9559 -1.6882
  172SAPE  H19S19519   2.630   1.177   8.128  0.5185  0.5079 -3.1520
  172SAPE  C22019520   2.679   0.999   8.237  0.2276 -0.6191  0.4022
  172SAPE  H20R19521   2.595   1.012   8.307 -1.1693 -1.5552 -1.0397
  172SAPE  H20S19522   2.767   1.053   8.277  0.3809  0.2733 -1.1176
  172SAPE  H20T19523   2.703   0.891   8.223 -2.0947 -1.2605  1.1127
  172SAPE   C3319524   1.778   0.933   6.780  0.4338  0.2109 -0.6821
  172SAPE   H3X19525   1.835   0.850   6.826  0.4161  0.4782 -0.1714
  172SAPE   H3Y19526   1.698   0.890   6.716  1.9514 -1.6203 -1.3772
  172SAPE   C3419527   1.701   1.013   6.886  0.1932 -0.0937  0.5439
  172SAPE   H4X19528   1.638   0.936   6.936 -1.9139  2.2932  1.6187
  172SAPE   H4Y19529   1.619   1.078   6.848  0.7352  1.4074  1.8896
  172SAPE   C3519530   1.790   1.077   6.998  0.1485 -0.2086 -0.4723
  172SAPE   H5X19531   1.858   1.157   6.962 -0.9036  0.2979 -1.3721
  172SAPE   H5Y19532   1.849   0.991   7.035 -1.7806 -0.6452  1.7190
  172SAPE   C3619533   1.713   1.137   7.118  0.4370 -0.4434  0.0144
  172SAPE   H6X19534   1.646   1.060   7.162  1.1958 -0.6637  0.8039
  172SAPE   H6Y19535   1.648   1.223   7.092 -0.9494 -0.8138  2.1139
  172SAPE   C3719536   1.801   1.185   7.231  0.1052 -0.3334 -0.2507
  172SAPE   H7X19537   1.855   1.276   7.197  1.0068 -0.6189  0.3935
  172SAPE   H7Y19538   1.872   1.100   7.244  0.5153  0.0425  0.0060
  172SAPE   C3819539   1.734   1.226   7.360 -0.1718 -0.7264 -0.3590
  172SAPE   H8X19540   1.675   1.140   7.398 -1.0959  0.2146  0.3651
  172SAPE   H8Y19541   1.676   1.321   7.366  0.8784 -0.0247 -0.9435
  172SAPE   C3919542   1.843   1.251   7.459 -0.2468  0.7967 -0.2440
  172SAPE   H9X19543   1.880   1.352   7.433  2.0911  0.8801  3.0128
  172SAPE   H9Y19544   1.929   1.182   7.443 -0.5116  0.6031 -0.8596
  172SAPE  C31019545   1.793   1.261   7.602  0.2204 -0.1211  0.6854
  172SAPE  H10X19546   1.761   1.160   7.634 -3.0120  1.0806  1.3972
  172SAPE  H10Y19547   1.690   1.304   7.601 -0.2266 -1.1173  2.6674
  172SAPE  C31119548   1.874   1.352   7.692  0.3181 -0.0117  0.2930
  172SAPE  H11X19549   1.866   1.455   7.653  0.3564  0.0387  0.4167
  172SAPE  H11Y19550   1.984   1.335   7.684  0.1781  0.3049 -2.7780
  172SAPE  C31219551   1.820   1.350   7.840 -0.5677  0.1735 -0.9171
  172SAPE  H12X19552   1.776   1.251   7.866 -0.7376  0.4965  0.0540
  172SAPE  H12Y19553   1.738   1.421   7.865  0.1894  1.0880 -1.0145
  172SAPE  C31319554   1.934   1.385   7.942 -0.1768 -0.4041 -0.5984
  172SAPE  H13X19555   1.947   1.495   7.929 -0.3956 -0.5220 -1.8498
  172SAPE  H13Y19556   2.028   1.329   7.919  1.1328  1.3798  0.2981
  172SAPE  C31419557   1.895   1.356   8.087 -0.3513 -0.4934 -0.3486
  172SAPE  H14X19558   1.788   1.384   8.090  0.1510  1.4623  0.2126
  172SAPE  H14Y19559   1.940   1.429   8.158  3.1180 -1.5039 -1.4208
  172SAPE  C31519560   1.916   1.210   8.142 -0.3018  0.9340  0.4396
  172SAPE  H15X19561   2.024   1.189   8.151 -0.2259 -0.1303 -2.3201
  172SAPE  H15Y19562   1.876   1.136   8.069  1.7702  2.0264 -1.8832
  172SAPE  C31619563   1.826   1.197   8.266 -0.4511 -0.2141 -0.2727
  172SAPE  H16X19564   1.724   1.202   8.224 -0.7450 -3.1884 -0.0466
  172SAPE  H16Y19565   1.853   1.278   8.337  1.7613 -1.4445  0.3357
  172SAPE  C31719566   1.837   1.064   8.350 -0.6413 -0.2517 -0.2690
  172SAPE  H17X19567   1.943   1.039   8.373 -1.0676 -2.6565 -0.7732
  172SAPE  H17Y19568   1.799   0.983   8.283 -1.4871  1.2410 -1.6259
  172SAPE  C31819569   1.761   1.078   8.485 -0.2012  0.5984 -0.6760
  172SAPE  H18X19570   1.784   1.168   8.547 -2.3249  0.4313  0.4120
  172SAPE  H18Y19571   1.782   0.990   8.549 -1.8000  2.8936  3.2761
  172SAPE  H18Z19572   1.652   1.075   8.463 -0.2760 -1.5525 -0.1078
  173SOPE     N19573   2.449   5.217  11.188  0.7183 -0.0513 -0.4268
  173SOPE   HN119574   2.350   5.242  11.169  0.4438  0.2313  1.3145
  173SOPE   HN219575   2.452   5.167  11.279  2.0138  1.5265  0.4284
  173SOPE   HN319576   2.509   5.301  11.203  2.2057 -0.6174 -2.9683
  173SOPE   C1219577   2.506   5.127  11.081 -0.5514 -0.3626  0.6021
  173SOPE  H12A19578   2.477   5.162  10.980 -1.5214 -2.4963  0.1006
  173SOPE  H12B19579   2.463   5.026  11.098 -1.0172  0.0846  2.1238
  173SOPE   C1119580   2.658   5.132  11.094  0.8887 -0.2244  0.0009
  173SOPE  H11A19581   2.699   5.059  11.022 -1.0399 -2.7707  1.4135
  173SOPE  H11B19582   2.689   5.095  11.194  2.4286 -1.4239 -0.9010
  173SOPE     P19583   2.756   5.302  10.909  0.0897  0.4176 -0.3710
  173SOPE   O1319584   2.857   5.194  10.884  0.2357  0.0980 -0.4145
  173SOPE   O1419585   2.797   5.444  10.903  0.7333  0.0707  0.3779
  173SOPE   O1219586   2.710   5.264  11.055 -0.0217 -0.2250 -0.7029
  173SOPE   O1119587   2.629   5.285  10.826  0.1298  0.0274 -0.1581
  173SOPE    C119588   2.614   5.190  10.716 -0.5611  0.0808 -0.3346
  173SOPE    HA19589   2.507   5.170  10.691 -0.4639 -3.0051  1.4442
  173SOPE    HB19590   2.648   5.088  10.745  0.7547  0.7712  0.5888
  173SOPE    C219591   2.687   5.238  10.586  0.0178  0.4111  0.5178
  173SOPE    HS19592   2.796   5.221  10.602  0.2923 -0.1389 -1.7737
  173SOPE   O2119593   2.658   5.378  10.551  0.2405 -0.7481 -0.0405
  173SOPE   C2119594   2.765   5.444  10.509 -0.2381  0.3890  0.3466
  173SOPE   O2219595   2.877   5.401  10.507  0.4025  0.0025  0.1085
  173SOPE   C2219596   2.726   5.581  10.447 -0.3506 -0.0310 -0.5453
  173SOPE   H2R19597   2.803   5.606  10.371  0.3199  1.1223  0.4967
  173SOPE   H2S19598   2.740   5.650  10.533  0.7348 -1.0289  0.0951
  173SOPE    C319599   2.656   5.133  10.477 -0.3753  0.0151 -0.2790
  173SOPE    HX19600   2.547   5.122  10.457 -0.5731 -0.3247  0.9568
  173SOPE    HY19601   2.688   5.039  10.528  1.8730  0.8918 -0.0121
  173SOPE   O3119602   2.741   5.158  10.365  0.0210 -0.6108 -0.3895
  173SOPE   C3119603   2.720   5.078  10.261  0.0272 -0.2298 -0.0230
  173SOPE   O3219604   2.652   4.980  10.254  0.1164  0.5589  0.1426
  173SOPE   C3219605   2.799   5.139  10.145 -0.0409 -0.0309 -0.9339
  173SOPE   H2X19606   2.906   5.120  10.170 -0.2624 -1.0107 -0.7132
  173SOPE   H2Y19607   2.786   5.247  10.122 -2.3370 -0.7924 -3.3999
  173SOPE   C2319608   2.581   5.598  10.403  0.2330  0.4147 -0.7861
  173SOPE   H3R19609   2.580   5.702  10.363  0.1631  1.4242  1.7405
  173SOPE   H3S19610   2.507   5.603  10.486  0.9567 -1.3771  0.0007
  173SOPE   C2419611   2.522   5.493  10.306  0.3130 -0.5662 -0.8093
  173SOPE   H4R19612   2.603   5.455  10.241  0.4822  3.5108 -3.1094
  173SOPE   H4S19613   2.491   5.411  10.375 -1.7986  1.2829  0.4943
  173SOPE   C2519614   2.403   5.544  10.227  0.3719 -0.6674 -0.1557
  173SOPE   H5R19615   2.334   5.599  10.294  1.8728 -0.0624  0.8958
  173SOPE   H5S19616   2.439   5.631  10.169 -0.2767  0.0353  0.4828
  173SOPE   C2619617   2.330   5.440  10.143 -0.0946 -0.5748  0.1487
  173SOPE   H6R19618   2.390   5.415  10.053  1.6203 -0.5633  1.2572
  173SOPE   H6S19619   2.290   5.356  10.203  0.4580 -1.6165 -0.9045
  173SOPE   C2719620   2.202   5.512  10.096  0.0755 -0.1167 -0.0106
  173SOPE   H7R19621   2.125   5.515  10.176  3.6722 -0.8920  3.6187
  173SOPE   H7S19622   2.223   5.613  10.055 -1.1793  0.3564  0.4549
  173SOPE   C2819623   2.126   5.436   9.987  0.5470 -0.4031  0.1089
  173SOPE   H8R19624   2.204   5.406   9.915  2.1893 -2.7426  2.7669
  173SOPE   H8S19625   2.097   5.339  10.032 -1.8659  0.5860  0.7872
  173SOPE   C2919626   2.012   5.523   9.929 -0.0933 -0.8787  0.8192
  173SOPE   H9119627   1.943   5.564  10.004 -0.5166 -1.9403  1.0289
  173SOPE  C21019628   2.013   5.577   9.809 -0.3413  0.0023 -0.0971
  173SOPE  H10119629   1.920   5.625   9.774  0.3677  0.9439 -0.7272
  173SOPE  C21119630   2.112   5.553   9.692  0.3882  0.4880 -1.1270
  173SOPE  H11R19631   2.214   5.530   9.730 -0.1271  1.8921  1.2229
  173SOPE  H11S19632   2.131   5.644   9.632 -1.4018  0.5798 -1.5925
  173SOPE  C21219633   2.055   5.452   9.594 -0.0124  0.4470  0.6003
  173SOPE  H12R19634   1.966   5.494   9.541 -0.3653  0.0515  0.8806
  173SOPE  H12S19635   2.047   5.356   9.649  1.6554  0.8960  1.6533
  173SOPE  C21319636   2.157   5.424   9.485 -0.0140  0.1288  0.1027
  173SOPE  H13R19637   2.248   5.383   9.533 -0.5530  0.4145  1.3992
  173SOPE  H13S19638   2.186   5.517   9.433 -1.4232 -0.1083 -1.1397
  173SOPE  C21419639   2.108   5.320   9.385 -0.4020  0.0836  0.2131
  173SOPE  H14R19640   2.068   5.235   9.444  2.4453 -0.1895  1.8162
  173SOPE  H14S19641   2.198   5.295   9.325 -0.5723 -0.7703  0.3142
  173SOPE  C21519642   2.012   5.383   9.282  0.0610  0.3439  0.2793
  173SOPE  H15R19643   2.059   5.483   9.267 -1.0033  0.9929  1.1665
  173SOPE  H15S19644   1.907   5.405   9.312  0.3286  3.6491 -1.0129
  173SOPE  C21619645   2.014   5.310   9.148 -0.4450  0.3442 -0.8577
  173SOPE  H16R19646   1.945   5.223   9.159  0.5874 -0.2948  0.7801
  173SOPE  H16S19647   2.116   5.267   9.136  0.2426  1.8989 -0.6592
  173SOPE  C21719648   1.968   5.405   9.041  0.3163 -0.2149 -0.0786
  173SOPE  H17R19649   2.037   5.491   9.036  0.4578 -0.1083  3.1917
  173SOPE  H17S19650   1.867   5.443   9.067  0.2111  0.7098 -1.7779
  173SOPE  C21819651   1.945   5.345   8.900  0.2803 -0.1827 -0.2336
  173SOPE  H18R19652   1.926   5.421   8.821 -3.7571 -0.8633 -0.0039
  173SOPE  H18S19653   1.851   5.285   8.898 -1.8439  3.0394 -0.6703
  173SOPE  H18T19654   2.034   5.286   8.871 -2.7303 -4.3919 -1.4452
  173SOPE   C3319655   2.775   5.065  10.016 -1.2787 -0.3401  0.1747
  173SOPE   H3X19656   2.794   4.959  10.040 -0.2232  0.3310  2.4337
  173SOPE   H3Y19657   2.850   5.094   9.939 -1.3113  0.0175  0.2749
  173SOPE   C3419658   2.634   5.104   9.957  0.3141 -0.2604 -0.4383
  173SOPE   H4X19659   2.641   5.213   9.939 -0.8507 -0.3245 -1.2724
  173SOPE   H4Y19660   2.552   5.077  10.027 -1.2221  0.5229 -1.9057
  173SOPE   C3519661   2.633   5.039   9.820  0.0261  0.7102 -0.3597
  173SOPE   H5X19662   2.637   4.928   9.826 -0.3469  0.5983 -1.9204
  173SOPE   H5Y19663   2.723   5.064   9.760  0.2990 -0.6305 -0.5176
  173SOPE   C3619664   2.516   5.088   9.734 -0.1745 -0.1031  0.0698
  173SOPE   H6X19665   2.542   5.194   9.717  0.8622 -0.9220 -3.8371
  173SOPE   H6Y19666   2.420   5.092   9.790  0.3025 -3.3583  1.2596
  173SOPE   C3719667   2.504   5.011   9.605  0.4847  0.1150 -0.6083
  173SOPE   H7X19668   2.395   5.027   9.591  0.4708  0.2923 -0.2823
  173SOPE   H7Y19669   2.524   4.902   9.618 -0.0811  0.1267  0.3649
  173SOPE   C3819670   2.584   5.072   9.491 -0.9251  0.2696 -0.2446
  173SOPE   H8X19671   2.692   5.059   9.509 -0.7698  2.1778  0.2964
  173SOPE   H8Y19672   2.561   5.181   9.487 -1.7593  0.0467 -3.5459
  173SOPE   C3919673   2.536   5.025   9.350 -0.4762  0.2296 -0.2321
  173SOPE   H9X19674   2.530   4.915   9.338  1.1693  0.1293 -0.2220
  173SOPE   H9Y19675   2.602   5.064   9.270  1.0760  1.1031  1.4339
  173SOPE  C31019676   2.399   5.087   9.307  1.0747 -0.3888  0.6428
  173SOPE  H10X19677   2.399   5.192   9.344  0.3570 -0.1021 -0.1470
  173SOPE  H10Y19678   2.318   5.031   9.358  1.2567  1.8342  3.4890
  173SOPE  C31119679   2.370   5.069   9.150 -0.4398 -0.7565 -0.1764
  173SOPE  H11X19680   2.264   5.101   9.142 -0.4997 -1.0166 -0.4711
  173SOPE  H11Y19681   2.391   4.969   9.105 -0.7129 -0.3155 -1.2970
  173SOPE  C31219682   2.442   5.175   9.062 -0.5041  0.0021 -0.1203
  173SOPE  H12X19683   2.542   5.138   9.028 -1.4138 -2.8172  0.1763
  173SOPE  H12Y19684   2.446   5.265   9.127  0.9560  1.7948 -2.5974
  173SOPE  C31319685   2.360   5.208   8.944  0.5617  0.1697  0.7439
  173SOPE  H13X19686   2.406   5.279   8.873  0.2527 -0.9899 -0.6477
  173SOPE  H13Y19687   2.265   5.250   8.983  1.1400  0.9452  1.3101
  173SOPE  C31419688   2.314   5.082   8.869 -0.5778 -0.1190  0.0968
  173SOPE  H14X19689   2.256   5.119   8.782  2.1349  1.4335 -1.1383
  173SOPE  H14Y19690   2.251   5.008   8.924 -2.2896  1.1662 -0.1018
  173SOPE  C31519691   2.439   5.014   8.814 -0.1276 -0.4254  0.2940
  173SOPE  H15X19692   2.499   4.969   8.896  1.8754 -2.1987 -2.0633
  173SOPE  H15Y19693   2.503   5.081   8.752 -1.5380  0.9527  0.3107
  173SOPE  C31619694   2.415   4.900   8.713 -0.8003 -0.2156  0.2041
  173SOPE  H16X19695   2.517   4.885   8.674 -0.9101  0.1462 -0.2319
  173SOPE  H16Y19696   2.375   4.934   8.614 -0.1662 -0.6997 -0.2221
  173SOPE  C31719697   2.369   4.769   8.773  0.1427 -0.2574  0.9656
  173SOPE  H17X19698   2.270   4.768   8.822  0.9030 -1.1709  2.5201
  173SOPE  H17Y19699   2.446   4.753   8.852 -1.0867 -0.2855  2.1714
  173SOPE  C31819700   2.364   4.646   8.679  0.5261 -0.3238 -0.4426
  173SOPE  H18X19701   2.363   4.549   8.733  2.5061  0.1542  0.5149
  173SOPE  H18Y19702   2.451   4.647   8.611  2.0870  0.4389  1.5052
  173SOPE  H18Z19703   2.276   4.646   8.611  1.3261 -3.3872 -1.5566
  174SOPE     N19704   2.154   4.511  10.962  0.5220 -0.5089  0.3386
  174SOPE   HN119705   2.202   4.561  11.040 -0.4325 -0.0133  0.6238
  174SOPE   HN219706   2.194   4.543  10.872  1.2768  1.0796  1.2104
  174SOPE   HN319707   2.061   4.557  10.974  1.7179  2.5815 -1.5995
  174SOPE   C1219708   2.151   4.360  10.966  0.2462 -0.3082  0.0197
  174SOPE  H12A19709   2.072   4.316  10.901 -2.0249  0.8150  1.9134
  174SOPE  H12B19710   2.136   4.338  11.074 -0.4166 -2.3850 -0.4692
  174SOPE   C1119711   2.280   4.310  10.902 -0.0824 -0.1716 -0.1591
  174SOPE  H11A19712   2.284   4.200  10.914 -0.8044 -0.3953 -1.8832
  174SOPE  H11B19713   2.366   4.339  10.965 -2.2189  0.8350  2.3952
  174SOPE     P19714   2.346   4.265  10.653  0.2529 -0.3319  0.6526
  174SOPE   O1319715   2.238   4.177  10.620 -0.0521 -0.0881 -0.5330
  174SOPE   O1419716   2.487   4.211  10.677  0.0844 -0.2177  0.1496
  174SOPE   O1219717   2.299   4.364  10.770 -0.1469  0.4646  0.2548
  174SOPE   O1119718   2.362   4.371  10.535 -0.4500  0.3257 -0.4011
  174SOPE    C119719   2.260   4.449  10.486 -0.2858 -0.1183  0.0278
  174SOPE    HA19720   2.249   4.538  10.551  2.0292  1.8240 -2.1466
  174SOPE    HB19721   2.169   4.386  10.495 -0.5726  0.3094  0.1347
  174SOPE    C219722   2.276   4.500  10.333 -0.2376 -0.0172  0.1186
  174SOPE    HS19723   2.227   4.600  10.340 -0.7922 -0.2292 -0.7112
  174SOPE   O2119724   2.209   4.424  10.229  0.0259  0.0856  0.0488
  174SOPE   C2119725   2.071   4.446  10.237 -0.3796  0.7743  0.5239
  174SOPE   O2219726   2.011   4.520  10.305  0.5029  0.6079 -0.3866
  174SOPE   C2219727   2.007   4.350  10.130 -0.4249 -0.6153 -0.1709
  174SOPE   H2R19728   1.932   4.288  10.185 -1.2435 -1.5083 -2.2503
  174SOPE   H2S19729   2.087   4.276  10.107  1.0057  1.4888 -2.1849
  174SOPE    C319730   2.431   4.511  10.305  0.2276  0.2357  0.1030
  174SOPE    HX19731   2.457   4.403  10.298 -0.5710 -0.1065  2.0675
  174SOPE    HY19732   2.491   4.547  10.392 -0.3249  3.6330 -0.8460
  174SOPE   O3119733   2.460   4.573  10.179  0.0793  0.2925  0.2090
  174SOPE   C3119734   2.584   4.579  10.153  0.1322  0.5233 -0.7019
  174SOPE   O3219735   2.679   4.529  10.217 -0.5450 -0.1081 -0.1657
  174SOPE   C3219736   2.602   4.653  10.020 -0.1385 -0.5657 -0.4523
  174SOPE   H2X19737   2.610   4.759  10.054 -2.3517 -0.5326  0.0025
  174SOPE   H2Y19738   2.513   4.643   9.955 -0.9734 -1.0893  0.7626
  174SOPE   C2319739   1.970   4.416   9.996  0.1422  0.0467 -0.0631
  174SOPE   H3R19740   1.988   4.335   9.922  0.0448  0.2076 -0.2619
  174SOPE   H3S19741   2.033   4.504   9.972 -0.9974  0.9445  0.2380
  174SOPE   C2419742   1.821   4.459   9.988 -0.8481 -0.4607 -0.1170
  174SOPE   H4R19743   1.751   4.376  10.008 -0.5100 -0.3810  1.4759
  174SOPE   H4S19744   1.808   4.540  10.064  0.0431 -0.1240 -0.3141
  174SOPE   C2519745   1.782   4.523   9.853  0.7711  0.1221  0.3843
  174SOPE   H5R19746   1.692   4.589   9.856 -0.8930 -2.0141 -0.7152
  174SOPE   H5S19747   1.864   4.589   9.817  0.9986  0.3928  1.4022
  174SOPE   C2619748   1.743   4.412   9.755 -0.1779 -0.4602  0.1826
  174SOPE   H6R19749   1.824   4.338   9.742  1.5174  1.9357 -3.5658
  174SOPE   H6S19750   1.655   4.359   9.798  1.6539 -2.2647  1.8386
  174SOPE   C2719751   1.713   4.462   9.617 -0.3854  0.0578  0.2783
  174SOPE   H7R19752   1.672   4.372   9.567 -2.0238  0.6033  0.6360
  174SOPE   H7S19753   1.635   4.541   9.621  1.6776  2.2982 -1.5863
  174SOPE   C2819754   1.836   4.511   9.541  0.5133  0.0748  0.1353
  174SOPE   H8R19755   1.880   4.596   9.597 -1.2708  1.7772 -0.9625
  174SOPE   H8S19756   1.918   4.436   9.545  1.0883  0.7215  0.5044
  174SOPE   C2919757   1.805   4.554   9.397 -0.0414 -0.4392  0.1432
  174SOPE   H9119758   1.750   4.648   9.379  2.2157  0.6004 -1.4612
  174SOPE  C21019759   1.848   4.495   9.287 -0.3330 -0.3485 -0.2644
  174SOPE  H10119760   1.824   4.549   9.194  0.3258  3.0690  1.4596
  174SOPE  C21119761   1.920   4.365   9.289  0.4153 -0.0742  0.3285
  174SOPE  H11R19762   1.865   4.298   9.220  1.0034 -1.5719  1.2778
  174SOPE  H11S19763   1.905   4.310   9.384 -4.1714 -3.6536 -2.2469
  174SOPE  C21219764   2.069   4.374   9.252  0.4659 -0.0646 -0.3518
  174SOPE  H12R19765   2.120   4.280   9.283  1.2691  0.5697  0.2616
  174SOPE  H12S19766   2.119   4.463   9.294  2.6634 -1.2951 -0.2914
  174SOPE  C21319767   2.079   4.370   9.094  0.1215  0.0252  0.7665
  174SOPE  H13R19768   2.031   4.463   9.057  1.5545  0.0119 -1.2252
  174SOPE  H13S19769   2.026   4.285   9.047  0.2204  1.9680 -3.0834
  174SOPE  C21419770   2.223   4.367   9.048  0.5011  0.5011  0.3888
  174SOPE  H14R19771   2.280   4.296   9.112  2.4891  2.8166  1.2598
  174SOPE  H14S19772   2.281   4.458   9.074  4.3150 -1.5563 -0.6209
  174SOPE  C21519773   2.232   4.343   8.899  0.2767 -0.3294 -0.4223
  174SOPE  H15R19774   2.186   4.428   8.844  0.4692  0.2300  0.2629
  174SOPE  H15S19775   2.173   4.251   8.882 -0.9707  0.0910  1.3708
  174SOPE  C21619776   2.376   4.324   8.847 -0.8182  0.2848 -0.6961
  174SOPE  H16R19777   2.419   4.248   8.916  0.2319  1.0048 -0.5478
  174SOPE  H16S19778   2.430   4.421   8.859 -1.2362  0.5406 -0.8515
  174SOPE  C21719779   2.379   4.271   8.702 -0.2227 -0.0941  0.3924
  174SOPE  H17R19780   2.304   4.327   8.642 -0.3640 -2.2893 -1.5820
  174SOPE  H17S19781   2.349   4.164   8.712 -2.1132  0.3573 -0.3060
  174SOPE  C21819782   2.519   4.286   8.644  0.5436 -0.2516 -0.0163
  174SOPE  H18R19783   2.515   4.283   8.533 -2.3416  2.3356 -0.0433
  174SOPE  H18S19784   2.588   4.213   8.691 -0.0110 -0.2282  0.8457
  174SOPE  H18T19785   2.556   4.389   8.661  2.0083 -1.0577  1.8134
  174SOPE   C3319786   2.729   4.605   9.952  0.9229 -0.1438  0.6928
  174SOPE   H3X19787   2.729   4.495   9.938  1.3189  0.1080 -1.4592
  174SOPE   H3Y19788   2.823   4.622  10.008  2.3685 -0.6192 -1.5116
  174SOPE   C3419789   2.750   4.666   9.816 -0.0883 -0.0219  0.0505
  174SOPE   H4X19790   2.773   4.773   9.835 -1.4841  0.0931  1.1515
  174SOPE   H4Y19791   2.654   4.664   9.760  0.1118  0.7396 -0.3303
  174SOPE   C3519792   2.861   4.611   9.733 -0.6477 -0.0096 -0.1098
  174SOPE   H5X19793   2.860   4.500   9.733 -1.0153 -0.0063 -0.3379
  174SOPE   H5Y19794   2.960   4.642   9.772 -0.4756 -0.9415  0.2014
  174SOPE   C3619795   2.848   4.655   9.584 -0.1966 -0.8718  0.3311
  174SOPE   H6X19796   2.852   4.766   9.574 -5.2640 -0.7256 -1.2382
  174SOPE   H6Y19797   2.748   4.623   9.550 -1.9060  1.7841  2.6418
  174SOPE   C3719798   2.959   4.585   9.500 -0.3041  0.7464  0.7534
  174SOPE   H7X19799   2.946   4.475   9.503 -0.0418  0.6981  0.1227
  174SOPE   H7Y19800   3.057   4.621   9.536  0.4294 -0.2375 -0.2339
  174SOPE   C3819801   2.945   4.636   9.351  0.1191 -0.0739 -0.1212
  174SOPE   H8X19802   2.989   4.738   9.343 -2.0119  1.1144  2.2598
  174SOPE   H8Y19803   2.837   4.635   9.326 -0.0693  0.4817  0.6340
  174SOPE   C3919804   3.025   4.541   9.257 -0.5811  1.0690  0.6193
  174SOPE   H9X19805   2.945   4.468   9.231  0.4041  0.6732 -1.3487
  174SOPE   H9Y19806   3.113   4.491   9.302 -0.3616  2.4385  1.7487
  174SOPE  C31019807   3.071   4.616   9.134  0.4467  0.4224  0.6767
  174SOPE  H10X19808   3.158   4.683   9.153 -0.0555  0.7922  1.6818
  174SOPE  H10Y19809   2.981   4.669   9.097 -0.0283  0.3227  1.6777
  174SOPE  C31119810   3.122   4.523   9.021  0.1412  0.4799  0.5576
  174SOPE  H11X19811   3.044   4.454   8.982  2.0374 -3.4036  3.3129
  174SOPE  H11Y19812   3.204   4.461   9.062 -0.2214 -0.6060 -0.3395
  174SOPE  C31219813   3.186   4.598   8.899 -0.3580 -0.5684  0.0444
  174SOPE  H12X19814   3.272   4.654   8.942  0.4153 -2.0294  0.4365
  174SOPE  H12Y19815   3.116   4.680   8.872  0.6017  0.3718  0.3714
  174SOPE  C31319816   3.229   4.527   8.769 -0.0654  0.1568 -0.1193
  174SOPE  H13X19817   3.153   4.459   8.724 -0.3795  0.3314  0.1440
  174SOPE  H13Y19818   3.309   4.457   8.803 -2.3227 -2.3678  0.2254
  174SOPE  C31419819   3.279   4.636   8.679  0.1528  0.4686 -0.7760
  174SOPE  H14X19820   3.354   4.692   8.739 -0.1952  0.6889 -0.5401
  174SOPE  H14Y19821   3.193   4.700   8.650  0.1334  0.2955 -1.0911
  174SOPE  C31519822   3.343   4.578   8.557 -0.7706  0.1103 -0.6504
  174SOPE  H15X19823   3.266   4.518   8.505 -0.2847 -0.4744 -0.6946
  174SOPE  H15Y19824   3.415   4.497   8.582  2.5513  3.1000 -0.0801
  174SOPE  C31619825   3.403   4.681   8.468  0.0546 -0.3584 -0.2038
  174SOPE  H16X19826   3.485   4.728   8.526 -1.1762  1.5184  0.0423
  174SOPE  H16Y19827   3.329   4.762   8.448 -1.4268 -1.3445  1.1539
  174SOPE  C31719828   3.468   4.634   8.336 -0.9727 -0.4746 -0.2389
  174SOPE  H17X19829   3.554   4.569   8.360  0.0961  0.7712 -0.6587
  174SOPE  H17Y19830   3.513   4.722   8.287 -0.7403 -0.5080 -0.0821
  174SOPE  C31819831   3.378   4.559   8.237  0.1555  0.2234  0.5808
  174SOPE  H18X19832   3.299   4.497   8.286 -2.2074  2.7650  0.1213
  174SOPE  H18Y19833   3.442   4.497   8.171  1.6802 -0.2553  2.4876
  174SOPE  H18Z19834   3.310   4.635   8.193 -1.7037 -0.3644  2.3582
  175SOPE     N19835   5.262   6.241  10.630 -0.2273 -0.1541  0.4147
  175SOPE   HN119836   5.331   6.163  10.623 -0.0757 -0.0020  0.2056
  175SOPE   HN219837   5.300   6.300  10.706  0.2288  0.2995 -0.1619
  175SOPE   HN319838   5.167   6.214  10.663 -0.6203  1.3599  0.5464
  175SOPE   C1219839   5.249   6.326  10.497  0.2817  0.4105 -0.4025
  175SOPE  H12A19840   5.356   6.335  10.469  0.1684  1.6740 -0.4547
  175SOPE  H12B19841   5.202   6.421  10.532 -0.7914  0.0860 -0.9456
  175SOPE   C1119842   5.169   6.256  10.380 -0.0663  0.3261 -0.1160
  175SOPE  H11A19843   5.219   6.157  10.370 -0.2218  0.3982 -1.8327
  175SOPE  H11B19844   5.175   6.318  10.288  0.5118  0.6446  0.1378
  175SOPE     P19845   4.922   6.338  10.439 -0.0755  0.2555  0.0944
  175SOPE   O1319846   4.948   6.441  10.538  0.3129 -0.0735 -0.2729
  175SOPE   O1419847   4.797   6.261  10.469  0.2966 -0.3955  0.2270
  175SOPE   O1219848   5.037   6.233  10.424  0.0604  0.4565  0.3737
  175SOPE   O1119849   4.911   6.401  10.295  0.8305 -1.0637  0.5017
  175SOPE    C119850   4.817   6.501  10.254 -0.1192  0.7126 -0.3804
  175SOPE    HA19851   4.869   6.550  10.169 -1.7508  0.6109 -1.4430
  175SOPE    HB19852   4.779   6.574  10.328 -1.4851 -1.1586  0.8297
  175SOPE    C219853   4.687   6.433  10.194  0.4021 -0.5494 -0.5660
  175SOPE    HS19854   4.646   6.366  10.273  1.8172  1.2102  1.7342
  175SOPE   O2119855   4.720   6.374  10.071  0.0126 -0.2407 -0.1222
  175SOPE   C2119856   4.668   6.252  10.045  0.3691  0.1821  0.3272
  175SOPE   O2219857   4.601   6.187  10.124  0.4265 -0.1444 -0.0662
  175SOPE   C2219858   4.697   6.223   9.903 -0.0785 -0.2820  0.8866
  175SOPE   H2R19859   4.700   6.112   9.893 -0.9461 -0.1613 -0.8442
  175SOPE   H2S19860   4.796   6.253   9.863 -0.7381  0.3561 -0.2813
  175SOPE    C319861   4.571   6.542  10.176  0.5658  0.0254 -0.2345
  175SOPE    HX19862   4.622   6.615  10.109  1.3169  0.3283  0.6520
  175SOPE    HY19863   4.544   6.596  10.269 -2.0720  0.1887 -1.0577
  175SOPE   O3119864   4.458   6.482  10.106 -0.2479 -0.2971 -0.7704
  175SOPE   C3119865   4.368   6.432  10.198 -0.1899 -0.4122  1.2329
  175SOPE   O3219866   4.371   6.444  10.317 -1.0981 -0.2359 -0.7829
  175SOPE   C3219867   4.271   6.343  10.118  0.2408  0.2384  0.2933
  175SOPE   H2X19868   4.217   6.277  10.189  2.5456 -1.8590  0.1379
  175SOPE   H2Y19869   4.329   6.282  10.045 -0.9084 -0.2948 -0.1940
  175SOPE   C2319870   4.591   6.281   9.803 -0.7220  0.4267  0.0110
  175SOPE   H3R19871   4.599   6.391   9.817 -0.1282  0.3617  0.2184
  175SOPE   H3S19872   4.487   6.251   9.829 -0.4336  0.0353  0.7140
  175SOPE   C2419873   4.619   6.240   9.656 -0.7956 -0.6438  0.1943
  175SOPE   H4R19874   4.725   6.261   9.632  0.0759 -1.4911  3.0600
  175SOPE   H4S19875   4.597   6.133   9.639 -3.5950 -0.0282 -0.2957
  175SOPE   C2519876   4.540   6.329   9.552  0.0754 -0.2233 -0.7942
  175SOPE   H5R19877   4.533   6.436   9.577  1.1442 -0.4500  0.5146
  175SOPE   H5S19878   4.593   6.320   9.454  1.4673 -3.0774  0.1503
  175SOPE   C2619879   4.395   6.285   9.559  0.3556 -0.2277 -0.3281
  175SOPE   H6R19880   4.394   6.175   9.572  0.4114 -0.0085  1.6035
  175SOPE   H6S19881   4.351   6.332   9.650 -1.2356  0.4535 -1.4191
  175SOPE   C2719882   4.311   6.318   9.436 -0.7815  0.3362  0.2627
  175SOPE   H7R19883   4.210   6.303   9.479 -0.8701  3.2477  1.2012
  175SOPE   H7S19884   4.316   6.427   9.412  0.2095 -0.5011 -3.7807
  175SOPE   C2819885   4.346   6.213   9.331 -0.1707  0.9175 -0.1279
  175SOPE   H8R19886   4.439   6.239   9.277 -1.1793 -0.8443 -2.8311
  175SOPE   H8S19887   4.365   6.111   9.370 -0.5779  1.6081  1.9212
  175SOPE   C2919888   4.227   6.203   9.240 -0.2827  0.1518  0.2269
  175SOPE   H9119889   4.139   6.166   9.294 -1.1277 -0.6160 -1.6411
  175SOPE  C21019890   4.218   6.236   9.110  0.1763 -0.5470  0.6410
  175SOPE  H10119891   4.125   6.237   9.051 -0.8783 -1.9929  2.2354
  175SOPE  C21119892   4.331   6.286   9.026  0.6858  0.8567 -0.3052
  175SOPE  H11R19893   4.317   6.234   8.929  1.2441 -0.3398  0.2370
  175SOPE  H11S19894   4.423   6.241   9.067 -1.2870 -2.5571  0.5744
  175SOPE  C21219895   4.336   6.439   9.019 -0.4896  0.0939 -0.5530
  175SOPE  H12R19896   4.437   6.465   8.979  1.3169 -1.7116  2.5831
  175SOPE  H12S19897   4.321   6.479   9.122 -2.1582 -0.3214 -0.6222
  175SOPE  C21319898   4.235   6.499   8.923  0.0264 -0.2033 -0.3682
  175SOPE  H13R19899   4.133   6.478   8.960 -0.1228  0.7222 -0.2377
  175SOPE  H13S19900   4.254   6.451   8.824  3.1483 -1.3940  0.7232
  175SOPE  C21419901   4.261   6.646   8.907 -0.1576  0.1509 -0.5815
  175SOPE  H14R19902   4.349   6.654   8.838  0.6219  0.1055  0.3970
  175SOPE  H14S19903   4.279   6.695   9.005  0.0386 -1.1925  0.0693
  175SOPE  C21519904   4.140   6.720   8.837 -0.2466 -0.2958 -0.8499
  175SOPE  H15R19905   4.165   6.829   8.838  1.6439 -0.7119 -1.0999
  175SOPE  H15S19906   4.049   6.704   8.898 -1.1027  1.9732 -1.4721
  175SOPE  C21619907   4.114   6.674   8.702 -0.6578 -0.6707 -0.1662
  175SOPE  H16R19908   4.088   6.567   8.720 -1.8720 -0.5305 -1.0248
  175SOPE  H16S19909   4.212   6.677   8.651  0.6285  0.2341  2.3159
  175SOPE  C21719910   4.011   6.749   8.625  0.4334  0.1948 -0.1782
  175SOPE  H17R19911   4.036   6.857   8.630  4.2053 -0.7165  1.7596
  175SOPE  H17S19912   3.911   6.728   8.669  1.0534 -1.0943  0.6541
  175SOPE  C21819913   4.009   6.706   8.480 -0.0720  0.7289 -0.8829
  175SOPE  H18R19914   4.002   6.596   8.468  2.5070  0.6556 -2.0115
  175SOPE  H18S19915   4.103   6.748   8.440  0.3363 -0.5947 -1.3210
  175SOPE  H18T19916   3.920   6.753   8.433 -0.5360  0.5994 -0.1420
  175SOPE   C3319917   4.169   6.430  10.045 -1.1789 -0.2486  0.4053
  175SOPE   H3X19918   4.116   6.502  10.110  0.1095  0.8909  0.2216
  175SOPE   H3Y19919   4.092   6.357  10.012  0.9501 -2.4019 -0.0162
  175SOPE   C3419920   4.213   6.497   9.914  0.1568 -0.0115  0.1072
  175SOPE   H4X19921   4.224   6.427   9.829  2.7856  0.6648 -0.1667
  175SOPE   H4Y19922   4.314   6.540   9.932 -0.8100  2.0644  0.7155
  175SOPE   C3519923   4.112   6.608   9.875  0.6300  0.6537 -0.3128
  175SOPE   H5X19924   4.127   6.689   9.950  0.4580  2.4804 -2.2182
  175SOPE   H5Y19925   4.009   6.568   9.887  0.0542  1.5156 -2.2570
  175SOPE   C3619926   4.134   6.661   9.731  0.2091  0.1811 -0.6973
  175SOPE   H6X19927   4.241   6.693   9.733  0.1128  0.7876 -3.2189
  175SOPE   H6Y19928   4.076   6.755   9.717 -0.4602 -0.0259  0.6963
  175SOPE   C3719929   4.099   6.556   9.617 -0.0342 -0.5459 -0.0249
  175SOPE   H7X19930   4.131   6.458   9.658  0.6558 -0.2684  0.1054
  175SOPE   H7Y19931   4.159   6.557   9.523  1.0437 -0.7100  0.6557
  175SOPE   C3819932   3.954   6.565   9.575  0.5196 -0.2848 -0.1675
  175SOPE   H8X19933   3.920   6.667   9.545 -1.9686 -0.9486  0.2648
  175SOPE   H8Y19934   3.892   6.534   9.662  1.6707  0.7305  1.0306
  175SOPE   C3919935   3.929   6.484   9.445  0.2119 -0.0816 -0.6060
  175SOPE   H9X19936   3.960   6.377   9.447 -1.0616 -0.4607 -1.2250
  175SOPE   H9Y19937   3.990   6.534   9.367  0.5046 -1.6451 -1.3935
  175SOPE  C31019938   3.785   6.505   9.401  0.8102  0.7485  0.6566
  175SOPE  H10X19939   3.787   6.611   9.366 -2.9709  0.7219  0.1774
  175SOPE  H10Y19940   3.709   6.515   9.481  0.0021  3.1799 -0.3596
  175SOPE  C31119941   3.737   6.415   9.290  0.4171  1.0939 -0.0820
  175SOPE  H11X19942   3.631   6.442   9.273  0.8908  0.9847 -3.8057
  175SOPE  H11Y19943   3.752   6.312   9.330  1.0580  1.7821  1.4976
  175SOPE  C31219944   3.821   6.419   9.154  0.4514 -0.7952  0.3604
  175SOPE  H12X19945   3.888   6.331   9.140  1.2646 -0.0890 -0.2632
  175SOPE  H12Y19946   3.880   6.514   9.158 -1.1580  0.3325 -1.5381
  175SOPE  C31319947   3.733   6.408   9.031  0.2084  0.7536  0.4180
  175SOPE  H13X19948   3.660   6.491   9.037 -2.0948 -0.9241 -2.9228
  175SOPE  H13Y19949   3.676   6.313   9.029 -0.9009  1.3955  0.9655
  175SOPE  C31419950   3.813   6.404   8.901  0.1155 -0.0749 -0.0578
  175SOPE  H14X19951   3.837   6.297   8.880 -0.4952  0.3264 -3.0242
  175SOPE  H14Y19952   3.908   6.463   8.900  0.7280 -1.0511 -1.6855
  175SOPE  C31519953   3.730   6.449   8.774  0.0775 -0.2782  0.1737
  175SOPE  H15X19954   3.801   6.461   8.690 -0.0014  2.5273  0.4575
  175SOPE  H15Y19955   3.697   6.552   8.802 -1.9753 -0.3506 -1.8405
  175SOPE  C31619956   3.607   6.359   8.739 -0.1120  0.6609  0.7499
  175SOPE  H16X19957   3.534   6.386   8.817 -1.1451  1.2522 -0.3965
  175SOPE  H16Y19958   3.626   6.250   8.754 -0.6800  0.6764  1.5714
  175SOPE  C31719959   3.546   6.403   8.611  0.0208 -0.4535 -0.2290
  175SOPE  H17X19960   3.497   6.316   8.562 -0.8146  0.1839 -0.5421
  175SOPE  H17Y19961   3.621   6.438   8.537 -0.2296 -0.3094 -0.4147
  175SOPE  C31819962   3.440   6.514   8.628 -0.3518  0.1384  0.1869
  175SOPE  H18X19963   3.383   6.536   8.535 -0.4570  0.6082  0.3590
  175SOPE  H18Y19964   3.489   6.609   8.658 -0.9609  1.3746 -2.6059
  175SOPE  H18Z19965   3.361   6.492   8.703 -0.9741 -0.6869 -0.7048
  176SOPE     N19966   3.373   5.360  10.739  0.4099 -0.0925 -0.8448
  176SOPE   HN119967   3.394   5.439  10.676 -1.7479  2.3249  1.3575
  176SOPE   HN219968   3.272   5.335  10.738  0.6569 -1.1252 -1.1471
  176SOPE   HN319969   3.387   5.395  10.836  1.6379 -1.5382 -0.4715
  176SOPE   C1219970   3.460   5.247  10.700 -0.2496 -0.6468 -0.7540
  176SOPE  H12A19971   3.519   5.261  10.607 -0.1866  0.0487 -0.6111
  176SOPE  H12B19972   3.406   5.152  10.678 -1.4789 -0.1058 -0.1035
  176SOPE   C1119973   3.560   5.224  10.817 -0.5293 -0.4012 -1.0107
  176SOPE  H11A19974   3.593   5.118  10.813 -4.2813 -1.6625 -0.7805
  176SOPE  H11B19975   3.512   5.238  10.916 -1.3998 -1.7266 -1.2326
  176SOPE     P19976   3.784   5.339  10.901  0.1873 -0.0899 -0.2251
  176SOPE   O1319977   3.900   5.247  10.884 -0.1469  0.1715  0.5647
  176SOPE   O1419978   3.729   5.354  11.042  0.3389  0.0951  0.1174
  176SOPE   O1219979   3.666   5.316  10.797 -0.2155  0.1357  0.1302
  176SOPE   O1119980   3.844   5.476  10.856 -0.1375  0.6237  0.6201
  176SOPE    C119981   3.765   5.586  10.802 -0.2181  0.3230  0.1720
  176SOPE    HA19982   3.814   5.683  10.823  2.6155 -0.5499 -2.1279
  176SOPE    HB19983   3.671   5.608  10.858 -0.1281  0.2984  0.3343
  176SOPE    C219984   3.746   5.590  10.650  0.0946 -0.2880  0.1346
  176SOPE    HS19985   3.684   5.504  10.618 -0.3178 -0.0705  0.3501
  176SOPE   O2119986   3.877   5.593  10.591  0.0069  0.0182  0.3377
  176SOPE   C2119987   3.895   5.519  10.477  0.3653  0.1021 -0.5805
  176SOPE   O2219988   3.812   5.443  10.433  0.2217  0.4710 -0.4906
  176SOPE   C2219989   4.031   5.553  10.424  0.2068  0.0155 -0.2743
  176SOPE   H2R19990   4.073   5.459  10.384 -1.5469 -1.6551  1.7025
  176SOPE   H2S19991   4.105   5.582  10.501  0.9582 -1.1680 -0.5462
  176SOPE    C319992   3.658   5.705  10.596  0.4688 -1.1617  0.6578
  176SOPE    HX19993   3.715   5.800  10.609 -0.4508 -0.2865 -1.5815
  176SOPE    HY19994   3.576   5.716  10.671  2.0571 -1.7823  2.5277
  176SOPE   O3119995   3.615   5.685  10.459  0.4263  0.0564 -0.2463
  176SOPE   C3119996   3.507   5.612  10.453 -0.4752  0.5317  0.0189
  176SOPE   O3219997   3.445   5.563  10.548 -0.3781  0.0075  0.4257
  176SOPE   C3219998   3.480   5.587  10.307 -0.7491 -0.5934 -0.0971
  176SOPE   H2X19999   3.571   5.606  10.248 -1.7996  0.6202 -1.3420
  176SOPE   H2Y20000   3.399   5.653  10.269 -0.2372 -0.6244 -1.2332
  176SOPE   C2320001   4.030   5.657  10.303 -0.4035  0.8625  0.2046
  176SOPE   H3R20002   4.135   5.658  10.269  0.9163  0.2550  4.0181
  176SOPE   H3S20003   4.000   5.751  10.354 -0.0249  0.8782  0.3985
  176SOPE   C2420004   3.924   5.618  10.192  0.1930  0.0689  0.8062
  176SOPE   H4R20005   3.965   5.522  10.151 -0.3508 -0.1272  0.7102
  176SOPE   H4S20006   3.823   5.597  10.233 -0.7289  0.8448 -0.9927
  176SOPE   C2520007   3.899   5.719  10.083  0.1914 -0.4390 -0.4396
  176SOPE   H5R20008   3.833   5.800  10.122  1.3387 -0.0726  0.7573
  176SOPE   H5S20009   3.995   5.767  10.055 -1.0316  2.1037 -0.4164
  176SOPE   C2620010   3.833   5.669   9.954  0.5446  0.1854  0.2157
  176SOPE   H6R20011   3.840   5.750   9.877  2.5144 -0.4219 -0.2661
  176SOPE   H6S20012   3.895   5.585   9.916 -0.3525 -0.1748 -0.4862
  176SOPE   C2720013   3.687   5.635   9.978  0.4583 -0.2157 -0.0719
  176SOPE   H7R20014   3.685   5.544  10.042  1.8773 -1.2486 -1.4624
  176SOPE   H7S20015   3.638   5.712  10.041 -1.0062  0.7621 -2.3402
  176SOPE   C2820016   3.609   5.609   9.843  0.1823  0.2546 -0.1905
  176SOPE   H8R20017   3.503   5.643   9.845 -0.1855 -0.9057  0.4620
  176SOPE   H8S20018   3.652   5.668   9.760  3.0343 -0.6911  0.5785
  176SOPE   C2920019   3.606   5.464   9.800  0.4153 -0.1773 -0.0454
  176SOPE   H9120020   3.686   5.403   9.846  0.2143 -2.1715 -2.2137
  176SOPE  C21020021   3.524   5.406   9.715  0.1470 -0.0061 -0.5426
  176SOPE  H10120022   3.543   5.303   9.681 -0.2866  0.6015 -2.7270
  176SOPE  C21120023   3.413   5.469   9.630 -0.1335 -0.1264  0.9314
  176SOPE  H11R20024   3.407   5.577   9.655 -0.9027  0.1783 -0.5514
  176SOPE  H11S20025   3.321   5.410   9.647 -1.1676  1.3180  0.3671
  176SOPE  C21220026   3.423   5.452   9.477 -0.5764  0.0500 -0.3979
  176SOPE  H12R20027   3.432   5.346   9.444  0.4843  0.1005 -0.2959
  176SOPE  H12S20028   3.515   5.509   9.449  0.7368 -1.3581  1.0039
  176SOPE  C21320029   3.304   5.515   9.408  0.5363 -0.1688 -0.3724
  176SOPE  H13R20030   3.275   5.613   9.452  0.4697 -1.4678  2.6179
  176SOPE  H13S20031   3.220   5.445   9.428  1.0146 -1.4903 -2.8785
  176SOPE  C21420032   3.318   5.520   9.259  0.1575 -0.0118  0.8763
  176SOPE  H14R20033   3.335   5.414   9.232  1.1970  0.3361  0.1395
  176SOPE  H14S20034   3.412   5.577   9.240  1.1400 -1.3286  1.7253
  176SOPE  C21520035   3.186   5.570   9.200  0.9215  0.0385 -0.2067
  176SOPE  H15R20036   3.176   5.681   9.204 -3.4077 -0.2534 -0.6311
  176SOPE  H15S20037   3.102   5.530   9.262 -0.1415  2.5895  0.0662
  176SOPE  C21620038   3.170   5.545   9.050  0.0131  0.9340 -0.3104
  176SOPE  H16R20039   3.066   5.557   9.013  0.4664  1.5006 -1.4357
  176SOPE  H16S20040   3.195   5.438   9.033  3.1229  0.9853  3.3008
  176SOPE  C21720041   3.260   5.629   8.961 -0.2600  0.1349 -0.1269
  176SOPE  H17R20042   3.362   5.630   9.006 -1.2208 -1.3264  2.2085
  176SOPE  H17S20043   3.226   5.735   8.962 -0.0827  0.2394 -2.4261
  176SOPE  C21820044   3.257   5.576   8.812 -0.1635  0.1968 -0.3116
  176SOPE  H18R20045   3.328   5.492   8.797  1.9728  1.8969  0.1029
  176SOPE  H18S20046   3.285   5.661   8.746  0.4584  0.8582  0.7826
  176SOPE  H18T20047   3.160   5.541   8.771  0.6956  0.5156 -2.6627
  176SOPE   C3320048   3.419   5.446  10.291 -0.5530  0.2946 -0.0694
  176SOPE   H3X20049   3.476   5.368  10.345  2.1731  2.8207  0.8521
  176SOPE   H3Y20050   3.444   5.419  10.186 -1.6556  0.9780 -0.5187
  176SOPE   C3420051   3.264   5.438  10.303 -0.5393 -0.0747  0.0140
  176SOPE   H4X20052   3.257   5.482  10.404 -0.7151  0.3382 -0.1749
  176SOPE   H4Y20053   3.244   5.330  10.319  0.4043 -0.0412  1.5155
  176SOPE   C3520054   3.175   5.502  10.196  0.0380  0.5530  0.0934
  176SOPE   H5X20055   3.215   5.466  10.099 -1.2726  0.2857 -0.3590
  176SOPE   H5Y20056   3.179   5.612  10.214  0.6769  0.2661  1.7518
  176SOPE   C3620057   3.023   5.463  10.210 -0.4405 -0.1731  1.1503
  176SOPE   H6X20058   2.976   5.503  10.303  1.0639 -1.5957  2.5661
  176SOPE   H6Y20059   3.025   5.353  10.224  1.7335 -0.4118 -0.7686
  176SOPE   C3720060   2.941   5.498  10.084 -0.5135 -0.1591  0.2146
  176SOPE   H7X20061   2.960   5.605  10.058  2.9668 -0.9778 -0.9047
  176SOPE   H7Y20062   2.837   5.465  10.101 -1.1358  2.3437  1.5093
  176SOPE   C3820063   2.985   5.425   9.955 -0.0073 -0.0668  0.1055
  176SOPE   H8X20064   2.995   5.316   9.976 -3.2325 -0.5362 -0.5273
  176SOPE   H8Y20065   3.084   5.462   9.921  1.1944 -1.4212  2.0296
  176SOPE   C3920066   2.896   5.444   9.829  0.4704 -0.5212  0.1020
  176SOPE   H9X20067   2.875   5.551   9.806  1.8551 -0.6413 -1.9103
  176SOPE   H9Y20068   2.799   5.393   9.846  0.1139  0.8463  2.4105
  176SOPE  C31020069   2.949   5.392   9.693  0.3452 -0.3220  0.3175
  176SOPE  H10X20070   2.939   5.282   9.693 -0.5097 -0.2501  0.1221
  176SOPE  H10Y20071   3.056   5.419   9.678 -0.1916  2.7595  1.5536
  176SOPE  C31120072   2.874   5.446   9.570 -0.2055 -0.0326  0.1848
  176SOPE  H11X20073   2.939   5.535   9.556  0.6507 -0.7049 -0.1582
  176SOPE  H11Y20074   2.773   5.490   9.584 -0.1948  0.1251 -0.2349
  176SOPE  C31220075   2.874   5.347   9.460  0.0308  0.0974  0.3917
  176SOPE  H12X20076   2.810   5.260   9.486 -0.8573  0.4644 -0.5241
  176SOPE  H12Y20077   2.967   5.298   9.422 -1.4124 -1.1805 -1.5847
  176SOPE  C31320078   2.791   5.415   9.347  0.0117  0.9900 -0.3687
  176SOPE  H13X20079   2.837   5.510   9.312  1.7713  0.7948  1.3016
  176SOPE  H13Y20080   2.691   5.438   9.391 -0.0782  3.3110 -1.7200
  176SOPE  C31420081   2.761   5.315   9.232  0.2211 -0.1219  0.0977
  176SOPE  H14X20082   2.650   5.311   9.227 -0.0254  3.0247  1.7426
  176SOPE  H14Y20083   2.794   5.213   9.262  1.6851  0.3733  0.1709
  176SOPE  C31520084   2.797   5.354   9.084 -0.5925 -0.1666 -0.5492
  176SOPE  H15X20085   2.803   5.260   9.024  1.1425  0.1739 -0.9549
  176SOPE  H15Y20086   2.901   5.393   9.098 -0.0328 -0.5606 -3.3771
  176SOPE  C31620087   2.712   5.458   9.004  0.4959  0.4005 -0.2554
  176SOPE  H16X20088   2.691   5.545   9.071  0.1416 -0.0301  0.1932
  176SOPE  H16Y20089   2.606   5.432   8.987  0.7970 -1.5287  0.7178
  176SOPE  C31720090   2.764   5.497   8.864 -0.1310 -0.0369 -0.0862
  176SOPE  H17X20091   2.869   5.531   8.867  0.6192 -1.7201 -4.1874
  176SOPE  H17Y20092   2.702   5.584   8.833 -1.1870 -1.2070 -1.3559
  176SOPE  C31820093   2.767   5.380   8.769  0.3143 -0.0555 -0.0194
  176SOPE  H18X20094   2.847   5.312   8.806  0.0513 -1.6134 -2.2525
  176SOPE  H18Y20095   2.786   5.413   8.665 -0.8272 -0.6608 -0.4309
  176SOPE  H18Z20096   2.671   5.324   8.760 -0.9245  2.3278 -2.1327
  177SOPE     N20097   2.646   3.234  11.404  0.2385 -0.0105  0.1169
  177SOPE   HN120098   2.585   3.263  11.484  0.1760  0.0283  0.0567
  177SOPE   HN220099   2.616   3.147  11.356  0.2414 -0.0166  0.1263
  177SOPE   HN320100   2.740   3.215  11.443 -0.1000  1.7500  1.8615
  177SOPE   C1220101   2.646   3.348  11.310 -0.5429 -0.2263  0.2940
  177SOPE  H12A20102   2.698   3.425  11.371  0.3101  0.1822 -0.9172
  177SOPE  H12B20103   2.541   3.382  11.294  0.3885  1.9964 -1.4391
  177SOPE   C1120104   2.711   3.325  11.167  0.4270  0.4372 -0.2771
  177SOPE  H11A20105   2.718   3.430  11.132  0.9730  0.7017  0.6240
  177SOPE  H11B20106   2.646   3.255  11.110  3.8011 -1.1967 -2.2593
  177SOPE     P20107   2.919   3.222  11.068 -0.4414  0.0154 -0.0492
  177SOPE   O1320108   2.828   3.164  10.970 -0.2223 -0.3294  0.0514
  177SOPE   O1420109   3.039   3.149  11.115 -1.1045  0.3557 -0.3100
  177SOPE   O1220110   2.837   3.265  11.194 -0.3140  0.6742 -0.3341
  177SOPE   O1120111   2.976   3.352  11.007  0.0558 -0.0979  0.1891
  177SOPE    C120112   2.905   3.432  10.915  0.4302  0.5193  0.8686
  177SOPE    HA20113   2.942   3.537  10.916  2.3536 -0.1371  1.9604
  177SOPE    HB20114   2.797   3.436  10.939  0.5146  1.6794  1.0539
  177SOPE    C220115   2.913   3.381  10.764 -0.9368  0.1323 -0.4485
  177SOPE    HS20116   2.849   3.290  10.764  0.0662 -0.6215 -3.8990
  177SOPE   O2120117   3.049   3.356  10.737 -0.1274  0.0690 -0.2932
  177SOPE   C2120118   3.074   3.255  10.653 -0.1401  0.0619  0.5008
  177SOPE   O2220119   2.994   3.174  10.609  0.1730  0.3376  0.4719
  177SOPE   C2220120   3.211   3.281  10.601 -0.2798  0.1970  0.1177
  177SOPE   H2R20121   3.245   3.187  10.553  1.0242  2.0836 -2.7818
  177SOPE   H2S20122   3.275   3.304  10.689 -0.3076 -0.1137  0.2200
  177SOPE    C320123   2.852   3.477  10.656  0.2654 -0.5357 -0.2693
  177SOPE    HX20124   2.922   3.563  10.644 -0.4108  0.1092  0.3760
  177SOPE    HY20125   2.754   3.506  10.701  0.3487 -1.3941  0.4731
  177SOPE   O3120126   2.843   3.408  10.528  0.6691  0.9171  0.0673
  177SOPE   C3120127   2.739   3.324  10.517  0.3253 -0.2666  0.4021
  177SOPE   O3220128   2.645   3.311  10.591 -0.0039 -0.5805 -0.1838
  177SOPE   C3220129   2.752   3.252  10.378 -0.2537  0.2186 -0.1154
  177SOPE   H2X20130   2.783   3.150  10.407 -0.4475 -0.1538 -1.2389
  177SOPE   H2Y20131   2.829   3.302  10.316 -0.5459  0.9099  0.0674
  177SOPE   C2320132   3.198   3.388  10.487 -0.9508 -0.8840 -0.4036
  177SOPE   H3R20133   3.300   3.413  10.451 -0.7692 -1.2183 -0.1239
  177SOPE   H3S20134   3.161   3.484  10.530  0.3029 -1.1501  1.3041
  177SOPE   C2420135   3.140   3.332  10.359 -0.4800 -0.2774 -0.4700
  177SOPE   H4R20136   3.211   3.260  10.313 -1.3838 -2.3751  1.2975
  177SOPE   H4S20137   3.051   3.269  10.380  0.3072 -0.5499  2.3937
  177SOPE   C2520138   3.110   3.452  10.264 -1.3389  0.6335  0.1088
  177SOPE   H5R20139   3.041   3.516  10.323 -1.8899  0.2590 -0.1132
  177SOPE   H5S20140   3.200   3.511  10.239 -0.8652 -1.4592 -3.5821
  177SOPE   C2620141   3.044   3.410  10.132  0.1348 -0.0497 -0.0703
  177SOPE   H6R20142   3.127   3.411  10.059 -0.1605 -0.2206 -0.4093
  177SOPE   H6S20143   2.995   3.310  10.133 -1.3148  0.6514  1.7816
  177SOPE   C2720144   2.946   3.506  10.075  0.2422 -0.5910  0.0081
  177SOPE   H7R20145   2.860   3.507  10.146 -0.8725 -3.3483 -1.2287
  177SOPE   H7S20146   2.984   3.610  10.077  1.9026 -1.1127 -1.8935
  177SOPE   C2820147   2.887   3.485   9.939 -0.3147  0.5333  0.0947
  177SOPE   H8R20148   2.975   3.469   9.873  0.5444  2.1620  0.8200
  177SOPE   H8S20149   2.843   3.382   9.937  0.5718  0.1403  0.4970
  177SOPE   C2920150   2.786   3.589   9.896  1.1394  0.1134 -0.3921
  177SOPE   H9120151   2.704   3.610   9.966  1.9676 -1.3566  1.0604
  177SOPE  C21020152   2.784   3.661   9.785  0.6716  0.1839 -0.2646
  177SOPE  H10120153   2.694   3.723   9.767 -0.6066 -1.9145 -1.2605
  177SOPE  C21120154   2.891   3.656   9.674  0.3629  0.6721 -0.3552
  177SOPE  H11R20155   2.964   3.572   9.683 -1.5785 -0.8901  1.2373
  177SOPE  H11S20156   2.930   3.758   9.659  0.8177  0.3280 -1.6307
  177SOPE  C21220157   2.829   3.622   9.531 -0.3667 -0.7106 -0.2124
  177SOPE  H12R20158   2.814   3.512   9.529 -0.0432 -0.7917  1.1926
  177SOPE  H12S20159   2.893   3.658   9.448  2.4460  0.4287  2.3692
  177SOPE  C21320160   2.691   3.695   9.509 -0.5332 -0.2301 -0.1955
  177SOPE  H13R20161   2.615   3.669   9.586 -0.6202 -0.1046 -0.2389
  177SOPE  H13S20162   2.648   3.655   9.415 -3.0681 -0.2041  0.8950
  177SOPE  C21420163   2.702   3.846   9.494 -0.0079 -0.7109  0.1628
  177SOPE  H14R20164   2.763   3.868   9.404  0.5495  3.7480  1.5467
  177SOPE  H14S20165   2.754   3.899   9.576 -1.6770 -0.5601  1.1613
  177SOPE  C21520166   2.565   3.917   9.478  0.2468  0.4510 -0.2593
  177SOPE  H15R20167   2.503   3.901   9.569 -0.8027 -0.2300 -1.0715
  177SOPE  H15S20168   2.510   3.860   9.399  0.0879 -0.1832  0.3033
  177SOPE  C21620169   2.573   4.069   9.444  0.0651  0.0432 -0.4587
  177SOPE  H16R20170   2.647   4.069   9.360 -0.7962 -2.0398 -1.2301
  177SOPE  H16S20171   2.629   4.122   9.524  0.5438 -1.3728  0.1639
  177SOPE  C21720172   2.442   4.138   9.421  0.2343  0.3070  0.8873
  177SOPE  H17R20173   2.435   4.249   9.425  2.7240  0.5623 -0.7275
  177SOPE  H17S20174   2.396   4.104   9.517  0.7257 -2.8720  0.0469
  177SOPE  C21820175   2.359   4.076   9.310  0.1222  0.4102  0.2460
  177SOPE  H18R20176   2.363   3.967   9.290  1.7253  0.3097  1.0714
  177SOPE  H18S20177   2.391   4.122   9.214 -0.2234 -0.8493 -0.4766
  177SOPE  H18T20178   2.252   4.101   9.326  0.5770  0.6283  3.1166
  177SOPE   C3320179   2.609   3.232  10.317  0.0356 -0.6643  0.8337
  177SOPE   H3X20180   2.561   3.330  10.297 -2.4987 -2.4133 -2.2132
  177SOPE   H3Y20181   2.541   3.179  10.388 -2.4828 -0.3471 -1.2349
  177SOPE   C3420182   2.591   3.154  10.190  0.1562  0.2469  0.1058
  177SOPE   H4X20183   2.483   3.150  10.164  0.1719 -1.1002  0.2060
  177SOPE   H4Y20184   2.613   3.045  10.193  0.7305  0.3658  0.3400
  177SOPE   C3520185   2.668   3.213  10.066  0.0685  0.4358  0.3124
  177SOPE   H5X20186   2.778   3.197  10.062  0.1454  0.9350  0.5020
  177SOPE   H5Y20187   2.662   3.323  10.061 -0.2249  0.3731 -0.9756
  177SOPE   C3620188   2.608   3.156   9.943  0.0522  0.4599  0.1017
  177SOPE   H6X20189   2.501   3.185   9.933  0.3572  1.1114 -1.5070
  177SOPE   H6Y20190   2.619   3.046   9.953  1.2838  0.2794 -2.6473
  177SOPE   C3720191   2.676   3.185   9.804 -0.3615 -0.3100 -0.4151
  177SOPE   H7X20192   2.786   3.173   9.821 -0.6848  1.4933  3.4127
  177SOPE   H7Y20193   2.658   3.291   9.780  4.2937  0.6785 -0.1624
  177SOPE   C3820194   2.627   3.102   9.683 -0.7676 -0.4304  0.4417
  177SOPE   H8X20195   2.516   3.091   9.684 -0.6868 -1.2236  0.9690
  177SOPE   H8Y20196   2.679   3.004   9.685  0.0276 -0.1197 -2.0733
  177SOPE   C3920197   2.657   3.177   9.552 -0.3171 -0.1051 -0.2805
  177SOPE   H9X20198   2.761   3.218   9.546 -0.4755  0.2286 -0.8192
  177SOPE   H9Y20199   2.586   3.262   9.540 -0.3577 -0.4296 -2.5408
  177SOPE  C31020200   2.640   3.083   9.432 -1.0495 -0.5252 -0.2836
  177SOPE  H10X20201   2.551   3.018   9.443 -1.4582  0.1265  0.2804
  177SOPE  H10Y20202   2.728   3.015   9.423 -0.6229 -0.2570  1.6968
  177SOPE  C31120203   2.606   3.151   9.305  0.1805  0.4755 -0.1009
  177SOPE  H11X20204   2.544   3.244   9.308 -1.0125 -0.3228  0.7976
  177SOPE  H11Y20205   2.551   3.075   9.245  1.1046 -0.4350  0.1847
  177SOPE  C31220206   2.737   3.181   9.216  0.4477 -0.2384  0.3111
  177SOPE  H12X20207   2.797   3.089   9.201 -0.0154 -0.7163  1.3452
  177SOPE  H12Y20208   2.805   3.253   9.267  0.2910 -0.5085  0.9056
  177SOPE  C31320209   2.688   3.241   9.080 -0.3960 -0.1153 -0.1005
  177SOPE  H13X20210   2.635   3.339   9.089 -0.8093 -0.1615 -1.8409
  177SOPE  H13Y20211   2.610   3.175   9.038  1.0342 -2.1722  0.4269
  177SOPE  C31420212   2.798   3.256   8.972 -0.1704  0.7316 -0.1133
  177SOPE  H14X20213   2.824   3.152   8.943 -1.1062 -0.2400  2.3731
  177SOPE  H14Y20214   2.889   3.301   9.015 -0.5176 -0.4420  1.9307
  177SOPE  C31520215   2.735   3.330   8.846 -0.0886 -0.7729 -0.9241
  177SOPE  H15X20216   2.708   3.430   8.884 -0.1131 -0.5110 -1.6314
  177SOPE  H15Y20217   2.640   3.282   8.814 -1.3382  0.7674  0.4260
  177SOPE  C31620218   2.822   3.342   8.724 -0.6187 -0.3810 -0.5161
  177SOPE  H16X20219   2.897   3.422   8.743 -2.1150  0.4890  2.0100
  177SOPE  H16Y20220   2.760   3.386   8.643 -3.2933 -1.0379  1.0962
  177SOPE  C31720221   2.891   3.205   8.692  0.6137  0.5141 -0.2674
  177SOPE  H17X20222   2.817   3.123   8.694  1.8519 -0.5806  3.0150
  177SOPE  H17Y20223   2.955   3.180   8.779 -1.0273  0.5926  0.9773
  177SOPE  C31820224   2.971   3.219   8.561 -0.5009  0.3247 -0.1729
  177SOPE  H18X20225   3.022   3.121   8.546 -1.4268 -0.0353 -1.0517
  177SOPE  H18Y20226   3.045   3.301   8.574  0.9453 -0.6541 -1.9061
  177SOPE  H18Z20227   2.907   3.257   8.479 -0.1486  2.1575  0.3665
  178SOPE     N20228   0.363   2.668  10.461  0.2762 -0.4864 -0.6562
  178SOPE   HN120229   0.360   2.757  10.515  1.7498 -1.6138  1.3130
  178SOPE   HN220230   0.390   2.688  10.362  0.7217 -4.1977 -1.3604
  178SOPE   HN320231   0.271   2.619  10.464 -1.0901  2.0872  1.2625
  178SOPE   C1220232   0.478   2.593  10.523  0.5540 -0.0764 -0.2069
  178SOPE  H12A20233   0.474   2.601  10.634  1.8017  1.0998 -0.2323
  178SOPE  H12B20234   0.577   2.629  10.488  0.2196 -0.3423 -1.4375
  178SOPE   C1120235   0.484   2.445  10.477  0.5426  0.0969  0.1734
  178SOPE  H11A20236   0.559   2.392  10.539  0.8845  0.0064 -0.3130
  178SOPE  H11B20237   0.511   2.440  10.369 -0.2937 -0.8253 -0.0081
  178SOPE     P20238   0.352   2.228  10.541 -0.1924  0.1983  0.3846
  178SOPE   O1320239   0.211   2.178  10.548 -0.2754 -0.1959 -0.1271
  178SOPE   O1420240   0.432   2.218  10.667  0.0426 -0.7372  0.2706
  178SOPE   O1220241   0.360   2.374  10.493 -0.0891 -0.1535  0.1456
  178SOPE   O1120242   0.427   2.147  10.422  0.1716 -0.8062 -0.5298
  178SOPE    C120243   0.391   2.183  10.292  0.1412 -0.5847  0.1583
  178SOPE    HA20244   0.437   2.281  10.270  1.3501 -1.0687  0.5071
  178SOPE    HB20245   0.281   2.189  10.272 -0.0064  1.2502  1.4442
  178SOPE    C220246   0.447   2.089  10.178 -0.0187  0.5182 -0.3120
  178SOPE    HS20247   0.385   1.997  10.183  0.2886  0.3964  1.4568
  178SOPE   O2120248   0.587   2.064  10.192 -0.2285  0.3943 -0.5674
  178SOPE   C2120249   0.628   1.951  10.139  0.2938  0.0706  0.2681
  178SOPE   O2220250   0.553   1.864  10.091  0.0877  0.4466  0.2896
  178SOPE   C2220251   0.778   1.939  10.157  0.0854  0.2571  0.2742
  178SOPE   H2R20252   0.797   1.912  10.263  5.2027 -0.0484 -0.6268
  178SOPE   H2S20253   0.817   2.042  10.141  1.6935 -0.7834 -3.0468
  178SOPE    C320254   0.420   2.166  10.044  0.0665  0.4820  0.2381
  178SOPE    HX20255   0.470   2.263  10.065 -1.1662  0.4382  3.6581
  178SOPE    HY20256   0.311   2.185  10.038  0.3228  1.4684 -1.6620
  178SOPE   O3120257   0.485   2.104   9.930 -0.1781 -0.1799 -0.0609
  178SOPE   C3120258   0.410   2.029   9.854  0.3686 -0.2275  0.2294
  178SOPE   O3220259   0.293   2.008   9.868  0.2149 -0.2209 -0.2954
  178SOPE   C3220260   0.491   1.982   9.736 -0.3723  0.6656  0.0371
  178SOPE   H2X20261   0.539   1.885   9.761 -2.3682 -0.3233  0.1305
  178SOPE   H2Y20262   0.574   2.046   9.700 -1.9129  2.7948  0.1372
  178SOPE   C2320263   0.848   1.838  10.061  0.4700 -0.4654  0.0200
  178SOPE   H3R20264   0.780   1.751  10.074 -0.3185 -0.4595 -3.5261
  178SOPE   H3S20265   0.949   1.815  10.100  1.0800 -0.5668 -1.5875
  178SOPE   C2420266   0.860   1.892   9.916 -0.1061 -0.3260 -0.8716
  178SOPE   H4R20267   0.756   1.904   9.880 -0.7257  0.3814  1.1083
  178SOPE   H4S20268   0.899   1.995   9.924 -0.9435  0.1756 -2.9339
  178SOPE   C2520269   0.948   1.800   9.826  0.0553 -0.0515 -0.3369
  178SOPE   H5R20270   1.038   1.775   9.886  0.0266 -0.6150 -0.5215
  178SOPE   H5S20271   0.892   1.707   9.800 -1.9224  1.2407 -0.8356
  178SOPE   C2620272   1.002   1.869   9.705  0.3773 -0.6231 -1.2583
  178SOPE   H6R20273   0.915   1.925   9.663 -0.1763  0.6171  1.4032
  178SOPE   H6S20274   1.071   1.945   9.748  0.0950 -0.7413 -0.5854
  178SOPE   C2720275   1.068   1.780   9.602 -0.1962 -0.1464 -0.0580
  178SOPE   H7R20276   1.143   1.847   9.555 -2.8965  2.6654 -0.5209
  178SOPE   H7S20277   1.113   1.690   9.650  0.0311  0.7510  1.4531
  178SOPE   C2820278   0.970   1.714   9.506  0.0187  0.6699 -0.1955
  178SOPE   H8R20279   0.906   1.635   9.552  0.2322  0.5325 -0.1371
  178SOPE   H8S20280   0.896   1.789   9.470 -0.4793  0.0322 -0.5128
  178SOPE   C2920281   1.049   1.655   9.399 -0.0849  0.4816  0.0856
  178SOPE   H9120282   1.115   1.573   9.431 -0.8434  0.2167  1.0056
  178SOPE  C21020283   1.049   1.692   9.269 -0.1224  0.5084  0.5177
  178SOPE  H10120284   1.111   1.643   9.193  0.6288  1.0640  0.7638
  178SOPE  C21120285   0.965   1.804   9.210  0.3143 -0.7158  0.2406
  178SOPE  H11R20286   1.033   1.890   9.193 -1.2989  0.4903 -0.2080
  178SOPE  H11S20287   0.889   1.848   9.278 -0.2354  0.0692 -0.8767
  178SOPE  C21220288   0.885   1.765   9.085  0.5455  0.1609  0.2288
  178SOPE  H12R20289   0.833   1.857   9.051  1.2785  0.5026  0.0141
  178SOPE  H12S20290   0.812   1.682   9.094 -1.5892  1.9381 -0.2802
  178SOPE  C21320291   0.976   1.723   8.964 -0.2409  0.0414  0.5748
  178SOPE  H13R20292   1.028   1.625   8.977 -1.3720 -0.9408 -1.8806
  178SOPE  H13S20293   1.053   1.802   8.951 -1.8764  1.3714 -1.3159
  178SOPE  C21420294   0.902   1.713   8.827 -0.4660  0.2289  0.6304
  178SOPE  H14R20295   0.849   1.810   8.811  0.5151  0.8269  0.9498
  178SOPE  H14S20296   0.830   1.629   8.822  0.2999 -0.3421 -1.4285
  178SOPE  C21520297   1.001   1.693   8.707  0.3443 -0.1712 -0.2804
  178SOPE  H15R20298   1.047   1.593   8.722  0.3120 -0.3224 -1.1615
  178SOPE  H15S20299   1.084   1.766   8.710 -0.0412  0.2182  1.0515
  178SOPE  C21620300   0.921   1.684   8.574 -0.3255  0.0131 -1.0848
  178SOPE  H16R20301   0.894   1.790   8.554  1.9525  0.4938 -1.6789
  178SOPE  H16S20302   0.835   1.614   8.566  0.3452 -1.1259  1.2527
  178SOPE  C21720303   1.013   1.643   8.455  0.0469 -0.0444  0.4032
  178SOPE  H17R20304   1.064   1.548   8.480  1.9111  0.5916 -0.8250
  178SOPE  H17S20305   1.089   1.724   8.453  2.3510 -2.1671  0.6016
  178SOPE  C21820306   0.946   1.647   8.317 -0.3843 -0.3402  0.2369
  178SOPE  H18R20307   0.887   1.552   8.318  0.4350 -0.9047 -1.9868
  178SOPE  H18S20308   1.015   1.644   8.230  1.5305 -3.5743  1.7353
  178SOPE  H18T20309   0.874   1.729   8.299 -1.8062 -1.4759  0.5788
  178SOPE   C3320310   0.411   1.973   9.606  0.2690 -0.4186 -0.3168
  178SOPE   H3X20311   0.357   2.068   9.584  1.0547 -0.1778 -1.2082
  178SOPE   H3Y20312   0.328   1.902   9.625  0.6217 -0.6697  0.2780
  178SOPE   C3420313   0.498   1.912   9.493 -0.4108 -0.1278 -0.4463
  178SOPE   H4X20314   0.519   1.806   9.521 -0.9038  0.1517  0.9998
  178SOPE   H4Y20315   0.584   1.982   9.490 -0.9294  0.6104  1.6871
  178SOPE   C3520316   0.432   1.929   9.353 -0.2426  0.4039 -0.0772
  178SOPE   H5X20317   0.412   2.038   9.341  1.1808  0.5090 -1.7527
  178SOPE   H5Y20318   0.336   1.874   9.362 -0.7507  1.5502  1.7450
  178SOPE   C3620319   0.520   1.873   9.237 -0.1104 -0.3491 -0.2499
  178SOPE   H6X20320   0.574   1.786   9.283  0.3465 -1.2318 -2.4128
  178SOPE   H6Y20321   0.602   1.943   9.210  0.9972 -2.2959 -2.0687
  178SOPE   C3720322   0.448   1.848   9.099 -0.4764 -0.1510  0.6249
  178SOPE   H7X20323   0.450   1.938   9.033 -1.9987  0.7415  1.7670
  178SOPE   H7Y20324   0.338   1.845   9.116 -0.5063  0.9743  0.6733
  178SOPE   C3820325   0.524   1.730   9.023 -0.1736 -0.2356 -0.0908
  178SOPE   H8X20326   0.537   1.643   9.091 -1.3177  2.4208  3.6808
  178SOPE   H8Y20327   0.622   1.765   8.984  0.0080 -2.4139 -1.6391
  178SOPE   C3920328   0.443   1.690   8.899 -0.0932  0.2754 -0.4580
  178SOPE   H9X20329   0.396   1.786   8.869  1.3869  1.4391  0.8355
  178SOPE   H9Y20330   0.375   1.605   8.919 -1.8387  2.0073  1.1099
  178SOPE  C31020331   0.531   1.657   8.774 -0.0311 -1.0395  0.3484
  178SOPE  H10X20332   0.597   1.578   8.813  0.4661 -0.4961  0.6179
  178SOPE  H10Y20333   0.600   1.743   8.765  0.8336 -1.8758 -1.2096
  178SOPE  C31120334   0.453   1.621   8.648 -0.0884  0.1495  0.6000
  178SOPE  H11X20335   0.527   1.594   8.570 -0.9950 -0.9756  0.1049
  178SOPE  H11Y20336   0.403   1.713   8.609  0.8945  0.9131  1.1209
  178SOPE  C31220337   0.348   1.505   8.666 -0.2829  1.1314 -0.1497
  178SOPE  H12X20338   0.265   1.539   8.731 -0.8361 -1.3304  0.4996
  178SOPE  H12Y20339   0.397   1.419   8.718 -4.3707 -0.9670  0.4404
  178SOPE  C31320340   0.296   1.458   8.530  0.8529 -0.0150 -0.5463
  178SOPE  H13X20341   0.381   1.438   8.462  1.2099  0.8421 -0.3537
  178SOPE  H13Y20342   0.243   1.543   8.482 -1.0879  0.7582  2.8551
  178SOPE  C31420343   0.218   1.322   8.534 -0.4613  0.2256 -0.3669
  178SOPE  H14X20344   0.280   1.254   8.597 -0.5710  0.8275  0.3891
  178SOPE  H14Y20345   0.200   1.283   8.431 -0.8966 -0.5507  0.0043
  178SOPE  C31520346   0.082   1.333   8.594  0.0449  0.2370  0.0630
  178SOPE  H15X20347   0.029   1.427   8.572  2.0589  1.9019  2.0961
  178SOPE  H15Y20348   0.109   1.318   8.701  3.8335 -1.0339 -0.9592
  178SOPE  C31620349  -0.011   1.218   8.550  0.2778  0.5409  0.0594
  178SOPE  H16X20350  -0.050   1.241   8.448 -0.4308  1.1958  0.4761
  178SOPE  H16Y20351  -0.103   1.217   8.611 -0.2444  1.4328 -0.7128
  178SOPE  C31720352   0.061   1.073   8.555 -0.2063 -0.4517 -0.8968
  178SOPE  H17X20353   0.113   1.063   8.653 -0.9284 -0.3710 -0.4994
  178SOPE  H17Y20354   0.136   1.070   8.474  2.6474  0.4633  1.6105
  178SOPE  C31820355  -0.040   0.965   8.543  0.3305  0.1345  0.1067
  178SOPE  H18X20356   0.007   0.864   8.534  1.8680  0.9422 -0.9830
  178SOPE  H18Y20357  -0.105   0.976   8.454  2.0370 -1.2078 -1.3405
  178SOPE  H18Z20358  -0.105   0.959   8.633 -0.7064 -0.0647 -0.6500
  179SOPE     N20359   5.659   3.274   6.281  0.2003  0.0983 -0.0594
  179SOPE   HN120360   5.664   3.211   6.199 -0.0963  2.2002 -1.7255
  179SOPE   HN220361   5.582   3.242   6.342 -0.3399 -2.7936 -2.1734
  179SOPE   HN320362   5.650   3.370   6.240  2.8878  0.5633  0.3519
  179SOPE   C1220363   5.791   3.253   6.356 -0.5181  0.2881 -0.1819
  179SOPE  H12A20364   5.862   3.322   6.306 -0.9340  0.4164 -0.6018
  179SOPE  H12B20365   5.810   3.145   6.340  2.3427  0.7446 -0.1640
  179SOPE   C1120366   5.778   3.288   6.505  0.0787  1.0577  0.0923
  179SOPE  H11A20367   5.874   3.261   6.555 -0.1745 -0.2783 -0.1317
  179SOPE  H11B20368   5.708   3.221   6.558 -0.8511  0.7101 -1.5415
  179SOPE     P20369   5.827   3.519   6.590 -0.2966  0.2391 -0.1243
  179SOPE   O1320370   5.777   3.653   6.549 -0.1158  0.2306 -0.0969
  179SOPE   O1420371   5.971   3.494   6.574  0.2061  0.3599 -0.0034
  179SOPE   O1220372   5.733   3.420   6.513  0.3537 -0.1676 -0.1974
  179SOPE   O1120373   5.783   3.489   6.736 -0.6428  0.7672  0.1843
  179SOPE    C120374   5.853   3.427   6.843  0.4127 -0.4132 -0.4139
  179SOPE    HA20375   5.935   3.360   6.812  1.7278  1.4468 -1.0712
  179SOPE    HB20376   5.782   3.369   6.905  1.3846 -1.9251 -0.7064
  179SOPE    C220377   5.913   3.537   6.941 -0.3284 -0.1299  0.0811
  179SOPE    HS20378   5.962   3.617   6.881 -0.7326  0.3623  0.4061
  179SOPE   O2120379   5.989   3.470   7.040  0.5839 -0.0991  0.5051
  179SOPE   C2120380   6.051   3.548   7.123  0.0048  0.0207 -0.2153
  179SOPE   O2220381   6.062   3.671   7.112  0.4003 -0.0406  0.0306
  179SOPE   C2220382   6.115   3.465   7.233  0.8916  0.1207  0.5147
  179SOPE   H2R20383   6.218   3.504   7.247  1.2248  0.0369 -1.4732
  179SOPE   H2S20384   6.127   3.357   7.209  0.2219  0.2288 -0.3509
  179SOPE    C320385   5.791   3.609   7.002  0.5470 -0.3219 -0.0243
  179SOPE    HX20386   5.727   3.636   6.915 -0.7714  1.0568  1.3473
  179SOPE    HY20387   5.817   3.707   7.049 -1.8093 -1.2392  3.3614
  179SOPE   O3120388   5.730   3.530   7.102 -0.5915  0.3753 -0.2219
  179SOPE   C3120389   5.608   3.483   7.077  0.2463 -0.4536  0.4084
  179SOPE   O3220390   5.535   3.523   6.987  0.2224 -0.2757 -0.4196
  179SOPE   C3220391   5.582   3.368   7.169 -0.0312  0.2748  0.0343
  179SOPE   H2X20392   5.666   3.296   7.158  0.0917  0.7423 -2.1703
  179SOPE   H2Y20393   5.495   3.310   7.131  1.5763 -3.2102  1.4113
  179SOPE   C2320394   6.040   3.500   7.369  0.0038  0.0934 -0.1494
  179SOPE   H3R20395   5.930   3.490   7.374 -0.0939  0.3527 -1.4726
  179SOPE   H3S20396   6.060   3.607   7.391 -1.9751  0.5363 -0.4195
  179SOPE   C2420397   6.099   3.416   7.485  0.7691  0.2334 -0.1786
  179SOPE   H4R20398   6.055   3.317   7.463 -1.5188  1.3418 -0.8119
  179SOPE   H4S20399   6.210   3.412   7.480  1.0197  3.5048  0.9712
  179SOPE   C2520400   6.057   3.468   7.625  0.1258 -0.4707  1.0900
  179SOPE   H5R20401   6.132   3.544   7.655  1.2177 -0.8539 -0.6005
  179SOPE   H5S20402   5.953   3.505   7.612  0.1317 -1.0718 -0.9160
  179SOPE   C2620403   6.061   3.353   7.725  0.6301  0.0850  0.7924
  179SOPE   H6R20404   6.042   3.383   7.830 -2.2402 -0.7066  0.5622
  179SOPE   H6S20405   5.980   3.285   7.690  0.5203 -0.7467  2.5784
  179SOPE   C2720406   6.194   3.271   7.730 -0.3100 -0.1761  0.1378
  179SOPE   H7R20407   6.186   3.189   7.805 -0.6833  0.9779  1.3669
  179SOPE   H7S20408   6.220   3.230   7.630  1.1229  2.0735 -0.4446
  179SOPE   C2820409   6.312   3.361   7.781 -0.4350  0.3652  0.3318
  179SOPE   H8R20410   6.390   3.282   7.782 -1.4636 -0.6416  1.6727
  179SOPE   H8S20411   6.350   3.433   7.705  0.4121  1.6601  1.9615
  179SOPE   C2920412   6.284   3.427   7.913  0.2260 -0.5742  0.2386
  179SOPE   H9120413   6.189   3.482   7.926 -1.5576 -3.6981  1.1422
  179SOPE  C21020414   6.355   3.405   8.032  0.2988 -0.1812 -0.7321
  179SOPE  H10120415   6.318   3.456   8.123 -0.3881 -1.7806 -0.1014
  179SOPE  C21120416   6.471   3.313   8.038  0.5789  0.1995 -0.1662
  179SOPE  H11R20417   6.551   3.354   8.103 -0.0850 -0.7067  1.2629
  179SOPE  H11S20418   6.509   3.277   7.940  0.0418  1.3807 -0.8249
  179SOPE  C21220419   6.428   3.178   8.098  0.4312 -0.8577 -0.7682
  179SOPE  H12R20420   6.357   3.126   8.029 -1.0334 -1.0565  0.8393
  179SOPE  H12S20421   6.377   3.193   8.196  0.3433  1.4653 -1.1374
  179SOPE  C21320422   6.541   3.077   8.129 -0.9020 -0.7114 -0.1415
  179SOPE  H13R20423   6.611   3.121   8.203 -2.5765  0.4741  0.7488
  179SOPE  H13S20424   6.587   3.052   8.031 -1.5692 -0.2875 -0.5733
  179SOPE  C21420425   6.475   2.948   8.181 -0.6572 -0.3021  0.2663
  179SOPE  H14R20426   6.393   2.912   8.115  1.4282 -2.7624 -1.0976
  179SOPE  H14S20427   6.414   2.969   8.272 -0.6612  0.9367 -0.0236
  179SOPE  C21520428   6.576   2.831   8.212  0.2429 -0.1842 -0.1413
  179SOPE  H15R20429   6.640   2.852   8.300 -0.8458 -1.0131  0.8701
  179SOPE  H15S20430   6.647   2.839   8.127 -1.5378  1.0276 -1.5740
  179SOPE  C21620431   6.510   2.693   8.200  0.3521  0.2024  0.0156
  179SOPE  H16R20432   6.489   2.674   8.093  1.6219 -0.6040 -0.0906
  179SOPE  H16S20433   6.407   2.689   8.241 -0.2697  0.7267 -1.4634
  179SOPE  C21720434   6.597   2.572   8.244 -0.1260  0.2805  0.4417
  179SOPE  H17R20435   6.528   2.486   8.236  0.4121 -0.0579 -0.6256
  179SOPE  H17S20436   6.602   2.591   8.354  1.1386  1.3674  0.2028
  179SOPE  C21820437   6.735   2.559   8.184  0.0045 -0.1478 -0.3392
  179SOPE  H18R20438   6.794   2.652   8.197  2.2496 -1.1262 -3.0070
  179SOPE  H18S20439   6.716   2.547   8.076 -0.9201 -0.8624 -0.1076
  179SOPE  H18T20440   6.791   2.471   8.223  1.1813  0.0594 -1.5232
  179SOPE   C3320441   5.567   3.402   7.319 -0.3698  0.1269 -0.2716
  179SOPE   H3X20442   5.497   3.488   7.327  1.4078  1.5657  0.2298
  179SOPE   H3Y20443   5.651   3.445   7.378 -0.8114 -0.5571  0.8822
  179SOPE   C3420444   5.517   3.286   7.403 -0.4523  0.0850 -0.5532
  179SOPE   H4X20445   5.578   3.193   7.403 -0.8085 -0.1544 -0.4519
  179SOPE   H4Y20446   5.420   3.264   7.353 -0.2242  0.0266 -0.9744
  179SOPE   C3520447   5.462   3.322   7.542 -0.5189  0.2597 -0.6281
  179SOPE   H5X20448   5.438   3.228   7.598 -1.0053  0.6515 -0.1745
  179SOPE   H5Y20449   5.374   3.388   7.528 -0.5516  1.0341  2.7524
  179SOPE   C3620450   5.560   3.409   7.618 -0.1579  0.1171  0.8382
  179SOPE   H6X20451   5.517   3.511   7.619  0.4380  0.3851  3.9262
  179SOPE   H6Y20452   5.658   3.410   7.565  0.6125  0.3719  2.2444
  179SOPE   C3720453   5.577   3.360   7.760  0.2935  0.0704 -0.6556
  179SOPE   H7X20454   5.620   3.258   7.750 -2.7790 -1.4601  1.1729
  179SOPE   H7Y20455   5.476   3.346   7.804  0.8914  0.5232  0.8923
  179SOPE   C3820456   5.683   3.433   7.838 -0.6767 -0.3366 -0.5175
  179SOPE   H8X20457   5.671   3.543   7.850  0.9049 -0.1635 -0.3273
  179SOPE   H8Y20458   5.769   3.439   7.768 -0.3746  4.5363  0.0721
  179SOPE   C3920459   5.731   3.356   7.969  0.4394  0.3342 -0.0563
  179SOPE   H9X20460   5.842   3.364   7.976  0.2481  1.7194  1.8943
  179SOPE   H9Y20461   5.703   3.253   7.942 -3.0564  1.0506  0.6377
  179SOPE  C31020462   5.674   3.408   8.100  0.5994  0.3554  0.3228
  179SOPE  H10X20463   5.678   3.336   8.184  2.9269  4.0119  3.5430
  179SOPE  H10Y20464   5.564   3.424   8.090  0.4715 -1.1171 -0.6613
  179SOPE  C31120465   5.738   3.540   8.144 -0.2019  0.3007 -1.0488
  179SOPE  H11X20466   5.686   3.582   8.233 -0.2038  0.5104 -1.1499
  179SOPE  H11Y20467   5.708   3.609   8.063 -1.7066  0.1732 -0.6191
  179SOPE  C31220468   5.893   3.541   8.176  0.4811  0.1324 -0.0611
  179SOPE  H12X20469   5.951   3.529   8.082  2.9761 -1.4237  1.6051
  179SOPE  H12Y20470   5.919   3.456   8.242 -1.4902  0.1377  0.7412
  179SOPE  C31320471   5.949   3.663   8.256 -0.0803  0.6186 -0.4268
  179SOPE  H13X20472   5.900   3.680   8.354 -1.4390 -0.5841 -0.8727
  179SOPE  H13Y20473   5.930   3.744   8.183  2.8526  1.6333 -0.1285
  179SOPE  C31420474   6.098   3.642   8.265 -0.2725 -0.4880 -0.1094
  179SOPE  H14X20475   6.147   3.742   8.262 -1.1364 -0.0143  1.0534
  179SOPE  H14Y20476   6.145   3.583   8.183 -2.7750  0.3028 -2.1798
  179SOPE  C31520477   6.141   3.572   8.397 -0.0409 -0.0244 -0.2091
  179SOPE  H15X20478   6.119   3.463   8.393  1.5440 -0.3041 -3.1061
  179SOPE  H15Y20479   6.077   3.611   8.478  2.3881  1.1294  1.1914
  179SOPE  C31620480   6.290   3.585   8.431  0.5108 -1.0084  0.3200
  179SOPE  H16X20481   6.301   3.683   8.483  1.5177  0.1203 -1.9450
  179SOPE  H16Y20482   6.355   3.579   8.341 -1.2692  1.6143 -1.2241
  179SOPE  C31720483   6.340   3.469   8.524  0.2854  0.0014  0.3388
  179SOPE  H17X20484   6.292   3.378   8.482  0.5840  0.6299 -1.4050
  179SOPE  H17Y20485   6.294   3.494   8.622 -0.6980 -1.7707  0.3501
  179SOPE  C31820486   6.496   3.451   8.528 -0.6873  0.2411  0.2541
  179SOPE  H18X20487   6.549   3.549   8.530  1.3900 -0.8424 -0.5728
  179SOPE  H18Y20488   6.528   3.401   8.434 -1.6854 -1.1068  0.6274
  179SOPE  H18Z20489   6.533   3.381   8.605 -0.9957 -0.7206 -0.4667
  180SOPE     N20490   5.109   3.259   6.246  0.6887 -0.2776 -0.4106
  180SOPE   HN120491   5.169   3.216   6.319  1.5986  4.2360  1.6915
  180SOPE   HN220492   5.122   3.212   6.154 -0.7017 -1.7903  0.1340
  180SOPE   HN320493   5.135   3.360   6.247  1.1199 -0.3921  0.3521
  180SOPE   C1220494   4.969   3.261   6.267  0.3402 -0.3846 -0.3019
  180SOPE  H12A20495   4.932   3.169   6.316  0.9229 -0.5128 -0.0979
  180SOPE  H12B20496   4.919   3.274   6.169 -2.9650 -1.4101  1.1720
  180SOPE   C1120497   4.938   3.376   6.363  0.8031 -0.6451 -0.6627
  180SOPE  H11A20498   4.968   3.354   6.468  0.1415  0.6396 -0.1865
  180SOPE  H11B20499   4.828   3.380   6.382  1.1899 -0.6845  1.7740
  180SOPE     P20500   5.100   3.591   6.367  0.1535 -0.1108  0.5806
  180SOPE   O1320501   5.079   3.725   6.312 -0.3069  0.6432 -0.0893
  180SOPE   O1420502   5.218   3.516   6.317  0.1819 -0.0075  0.5115
  180SOPE   O1220503   4.984   3.501   6.314 -0.0362  0.0584 -0.3692
  180SOPE   O1120504   5.087   3.591   6.524  0.6798  0.7250 -0.0125
  180SOPE    C120505   4.958   3.627   6.573  0.3176  0.6916 -0.0679
  180SOPE    HA20506   4.884   3.553   6.536  0.8941  0.1098 -0.0782
  180SOPE    HB20507   4.926   3.722   6.527 -2.2358 -0.3961 -0.6103
  180SOPE    C220508   4.940   3.638   6.728  0.0327 -0.3453 -0.0529
  180SOPE    HS20509   5.012   3.713   6.768  0.6710 -0.6519 -0.6101
  180SOPE   O2120510   4.956   3.504   6.783 -0.0028  0.3076  0.0286
  180SOPE   C2120511   5.070   3.478   6.844 -0.0062 -0.2884  0.5862
  180SOPE   O2220512   5.162   3.559   6.859 -0.1083  0.1587  0.5929
  180SOPE   C2220513   5.090   3.327   6.860  0.4653  0.7437 -0.1685
  180SOPE   H2R20514   5.195   3.303   6.888  0.6330  2.2627  0.5871
  180SOPE   H2S20515   5.076   3.280   6.760  1.2474  3.9144 -1.8450
  180SOPE    C320516   4.803   3.697   6.766 -0.5652 -0.3741  0.3379
  180SOPE    HX20517   4.737   3.613   6.734 -0.1457 -0.4942 -0.2248
  180SOPE    HY20518   4.794   3.785   6.700  3.3536 -0.1512  0.0066
  180SOPE   O3120519   4.803   3.741   6.901  0.1356  0.4642  0.7436
  180SOPE   C3120520   4.731   3.668   6.994  0.4008  0.0202 -0.1842
  180SOPE   O3220521   4.655   3.575   6.963 -0.1105  0.2571 -0.2210
  180SOPE   C3220522   4.766   3.710   7.139  0.4058  0.3566  1.1178
  180SOPE   H2X20523   4.728   3.813   7.162 -1.2296 -0.3265  1.5578
  180SOPE   H2Y20524   4.876   3.709   7.151  0.5044 -0.6410  0.1715
  180SOPE   C2320525   4.995   3.278   6.965  0.3568  0.1533  0.4133
  180SOPE   H3R20526   5.005   3.168   6.962 -0.7850  0.0620 -3.0538
  180SOPE   H3S20527   4.888   3.287   6.934  0.9338  0.4293 -1.5957
  180SOPE   C2420528   5.013   3.330   7.102  0.4112  0.4832 -0.2903
  180SOPE   H4R20529   5.121   3.343   7.124  0.4688  0.4609 -0.5534
  180SOPE   H4S20530   4.958   3.423   7.127  1.1876  1.1664 -1.1073
  180SOPE   C2520531   4.961   3.225   7.204 -0.3158 -0.0496  0.5565
  180SOPE   H5R20532   4.863   3.185   7.172 -0.2242 -1.3947  1.8955
  180SOPE   H5S20533   5.024   3.133   7.206 -1.0604 -0.5465  1.2332
  180SOPE   C2620534   4.949   3.275   7.351  0.0574 -0.4984  0.1919
  180SOPE   H6R20535   4.919   3.382   7.338 -0.6354 -0.8688 -1.4770
  180SOPE   H6S20536   4.867   3.216   7.397 -0.9253  0.0343 -0.8479
  180SOPE   C2720537   5.081   3.269   7.426 -0.7927  0.0189 -0.4466
  180SOPE   H7R20538   5.115   3.165   7.444 -3.2118 -0.7207  0.0543
  180SOPE   H7S20539   5.164   3.317   7.370  1.6037 -2.2809  1.0272
  180SOPE   C2820540   5.067   3.337   7.566 -0.3073 -0.2726  0.5523
  180SOPE   H8R20541   5.164   3.330   7.618 -0.0139 -0.9705 -0.0676
  180SOPE   H8S20542   5.039   3.444   7.562 -3.7961 -1.1784 -0.8586
  180SOPE   C2920543   4.971   3.257   7.650 -0.9499  0.3363  0.3838
  180SOPE   H9120544   4.899   3.201   7.589 -0.0849 -0.2603 -0.0898
  180SOPE  C21020545   4.980   3.238   7.784 -0.2347  0.2877  0.2830
  180SOPE  H10120546   4.907   3.177   7.839 -1.1937  1.5047  0.3678
  180SOPE  C21120547   5.091   3.310   7.862  0.2034  0.6226 -0.0507
  180SOPE  H11R20548   5.032   3.344   7.950 -1.4236  0.5668 -1.0931
  180SOPE  H11S20549   5.130   3.405   7.819  0.8224  0.6665  0.5983
  180SOPE  C21220550   5.209   3.225   7.902  0.1758 -0.4756 -0.1402
  180SOPE  H12R20551   5.268   3.219   7.808  0.2478 -0.5766 -0.0887
  180SOPE  H12S20552   5.176   3.122   7.929 -1.9408  0.3318  0.4534
  180SOPE  C21320553   5.298   3.286   8.019 -0.6992  0.2569 -0.0240
  180SOPE  H13R20554   5.338   3.386   7.992 -1.2399 -0.0748 -2.1897
  180SOPE  H13S20555   5.382   3.223   8.054  0.1711  2.1709  1.4379
  180SOPE  C21420556   5.217   3.297   8.144 -0.7367 -1.0200 -0.4571
  180SOPE  H14R20557   5.167   3.201   8.168  0.1962 -0.7209  2.9049
  180SOPE  H14S20558   5.133   3.370   8.137  0.2137  0.1074 -0.3500
  180SOPE  C21520559   5.299   3.330   8.273 -0.5925 -0.0831 -0.4071
  180SOPE  H15R20560   5.330   3.436   8.265  0.4844 -0.2200  1.9225
  180SOPE  H15S20561   5.395   3.275   8.280 -0.5642  0.1234  0.8067
  180SOPE  C21620562   5.213   3.297   8.397  0.2020 -0.3065  0.3512
  180SOPE  H16R20563   5.183   3.190   8.391  1.5411 -0.7018  0.5539
  180SOPE  H16S20564   5.121   3.359   8.399  0.7139  0.4103  1.8883
  180SOPE  C21720565   5.296   3.350   8.522  0.3172 -0.5232 -0.6930
  180SOPE  H17R20566   5.304   3.461   8.533 -0.6880 -0.5529  0.4288
  180SOPE  H17S20567   5.402   3.327   8.501  0.8373 -0.5746  1.8635
  180SOPE  C21820568   5.258   3.283   8.648 -0.2063 -0.3213  0.1371
  180SOPE  H18R20569   5.161   3.316   8.692 -0.6899 -0.0264 -1.1019
  180SOPE  H18S20570   5.333   3.298   8.728  0.3950 -0.8779 -0.3196
  180SOPE  H18T20571   5.256   3.173   8.635  3.7661 -0.3727 -0.6901
  180SOPE   C3320572   4.708   3.623   7.244 -0.0129 -0.5242  0.0704
  180SOPE   H3X20573   4.747   3.519   7.233  0.4845 -0.2324 -0.9181
  180SOPE   H3Y20574   4.598   3.625   7.229 -0.1664 -2.1825  0.8281
  180SOPE   C3420575   4.729   3.688   7.382 -0.6501 -0.5376 -0.6154
  180SOPE   H4X20576   4.691   3.791   7.367  0.8818  0.1539  0.1794
  180SOPE   H4Y20577   4.839   3.700   7.395 -0.5319 -0.5835 -1.5275
  180SOPE   C3520578   4.677   3.612   7.503 -1.2356  0.5216 -0.1106
  180SOPE   H5X20579   4.732   3.516   7.505  1.3305  1.7897 -3.7888
  180SOPE   H5Y20580   4.567   3.600   7.510 -1.3475  1.6623  0.1998
  180SOPE   C3620581   4.738   3.675   7.632  0.3276 -0.0601  0.1862
  180SOPE   H6X20582   4.698   3.777   7.653  0.1190 -0.2798  0.8936
  180SOPE   H6Y20583   4.847   3.686   7.616  0.7913 -0.7701  2.5493
  180SOPE   C3720584   4.711   3.586   7.755 -0.4969  0.0144  0.7515
  180SOPE   H7X20585   4.765   3.492   7.727 -1.1179 -0.0717 -0.1847
  180SOPE   H7Y20586   4.605   3.556   7.769 -1.0992  1.2180 -1.0338
  180SOPE   C3820587   4.783   3.646   7.876 -0.0332 -0.1634  0.9002
  180SOPE   H8X20588   4.760   3.754   7.881 -0.1436  0.0648 -3.2247
  180SOPE   H8Y20589   4.894   3.645   7.872 -0.0396  2.4697 -0.5801
  180SOPE   C3920590   4.731   3.583   8.007  0.7231 -0.1958 -0.3052
  180SOPE   H9X20591   4.740   3.473   8.015  2.2573 -0.0637 -0.0377
  180SOPE   H9Y20592   4.622   3.604   8.012  0.9543  0.8317  0.7823
  180SOPE  C31020593   4.800   3.641   8.134 -0.0633  0.0255 -0.3558
  180SOPE  H10X20594   4.746   3.622   8.229  1.1689 -0.3140  0.2839
  180SOPE  H10Y20595   4.805   3.752   8.130  2.1238  0.1203  2.8689
  180SOPE  C31120596   4.943   3.598   8.152 -0.6291 -0.5460 -0.4155
  180SOPE  H11X20597   5.000   3.622   8.060  0.9453  0.4882  0.8053
  180SOPE  H11Y20598   4.935   3.489   8.174  1.7428 -0.6504 -0.0056
  180SOPE  C31220599   5.025   3.662   8.266 -0.3219 -0.1509  0.0510
  180SOPE  H12X20600   5.044   3.768   8.238  2.4122 -0.1123  1.8586
  180SOPE  H12Y20601   5.122   3.613   8.288 -1.1385 -1.5473  0.6001
  180SOPE  C31320602   4.957   3.636   8.396  1.5583 -0.5742  0.3198
  180SOPE  H13X20603   4.943   3.525   8.403  1.4326 -0.5073  1.2635
  180SOPE  H13Y20604   4.855   3.679   8.409  0.8308 -1.4168 -2.2327
  180SOPE  C31420605   5.029   3.691   8.517  0.2225 -0.6133 -0.0205
  180SOPE  H14X20606   5.019   3.801   8.521 -0.1693 -0.6478 -0.0362
  180SOPE  H14Y20607   5.132   3.649   8.522 -1.3417 -4.6247  1.2101
  180SOPE  C31520608   4.963   3.646   8.648 -0.5101  0.5836 -0.5854
  180SOPE  H15X20609   4.959   3.535   8.654 -0.1622  0.6641  1.5938
  180SOPE  H15Y20610   4.856   3.676   8.659 -0.7670  1.3368 -4.5801
  180SOPE  C31620611   5.030   3.696   8.773  0.3734 -0.1647 -0.1782
  180SOPE  H16X20612   5.045   3.806   8.786 -0.0757 -0.2760  1.3743
  180SOPE  H16Y20613   5.131   3.651   8.787  0.1998 -0.0417  1.5416
  180SOPE  C31720614   4.960   3.657   8.901  0.1433  0.4464 -0.2852
  180SOPE  H17X20615   4.867   3.714   8.884  1.1543  2.2367  0.0788
  180SOPE  H17Y20616   5.008   3.702   8.990 -0.9780  1.1770 -0.0420
  180SOPE  C31820617   4.920   3.515   8.925 -0.2233  0.5406 -0.0665
  180SOPE  H18X20618   5.010   3.452   8.907 -0.5198 -0.4849  1.8990
  180SOPE  H18Y20619   4.840   3.473   8.860 -1.6175  0.3565  1.7201
  180SOPE  H18Z20620   4.883   3.507   9.030 -1.7261 -2.3735 -0.7445
  181SOPE     N20621   5.654   0.534   5.833  0.0671 -0.6370  0.0148
  181SOPE   HN120622   5.726   0.502   5.900  0.6155 -0.7970 -0.6377
  181SOPE   HN220623   5.561   0.503   5.867 -0.7050  0.2252 -1.2684
  181SOPE   HN320624   5.663   0.482   5.743 -0.1469 -0.4620 -0.1079
  181SOPE   C1220625   5.652   0.686   5.817  0.3485  0.1713 -0.7426
  181SOPE  H12A20626   5.573   0.712   5.743 -0.3423 -0.3485 -0.1913
  181SOPE  H12B20627   5.749   0.720   5.774 -0.1142  0.6543 -1.4110
  181SOPE   C1120628   5.622   0.736   5.957  0.1797  0.1007  0.3016
  181SOPE  H11A20629   5.644   0.845   5.968  1.4935  0.1320 -2.4673
  181SOPE  H11B20630   5.698   0.702   6.031 -0.5432 -2.9160 -0.2921
  181SOPE     P20631   5.369   0.784   6.012 -0.1860 -0.0953 -0.6345
  181SOPE   O1320632   5.264   0.691   6.049  0.2471  0.1112 -0.0782
  181SOPE   O1420633   5.349   0.865   5.888  0.8082  0.5062  0.1355
  181SOPE   O1220634   5.497   0.690   6.001  0.7483 -0.1335  0.0906
  181SOPE   O1120635   5.399   0.879   6.131  0.4657 -0.6220 -0.0480
  181SOPE    C120636   5.477   0.827   6.244 -0.3797 -0.9780  0.3412
  181SOPE    HA20637   5.540   0.911   6.281  0.2980 -0.7635 -1.2801
  181SOPE    HB20638   5.553   0.751   6.219  2.9947  2.6827 -0.8984
  181SOPE    C220639   5.379   0.780   6.356 -0.0947 -0.4771 -0.7730
  181SOPE    HS20640   5.321   0.695   6.315  0.3447 -0.1989 -1.9771
  181SOPE   O2120641   5.300   0.887   6.400 -0.5031  0.1693 -0.0407
  181SOPE   C2120642   5.177   0.855   6.441 -0.1119  1.1652 -0.4326
  181SOPE   O2220643   5.129   0.744   6.449  0.2167  0.0737 -0.5283
  181SOPE   C2220644   5.089   0.981   6.452  0.4578 -0.2425  0.1749
  181SOPE   H2R20645   5.039   0.983   6.353 -0.6376  0.1808  0.7281
  181SOPE   H2S20646   5.157   1.067   6.467  1.8500 -1.2320 -0.3641
  181SOPE    C320647   5.457   0.725   6.475 -0.0452  0.4427 -0.7232
  181SOPE    HX20648   5.500   0.804   6.539  0.3591 -0.6031  0.3191
  181SOPE    HY20649   5.540   0.670   6.424 -0.1723 -0.8545  0.4380
  181SOPE   O3120650   5.370   0.633   6.554 -0.3604  0.4635 -0.0225
  181SOPE   C3120651   5.423   0.563   6.655  0.3224  0.0000  0.0627
  181SOPE   O3220652   5.545   0.539   6.665  0.8539 -0.4514  0.1546
  181SOPE   C3220653   5.307   0.495   6.733  0.2703 -0.0206  0.2969
  181SOPE   H2X20654   5.285   0.412   6.662 -0.7527 -0.3713  1.0106
  181SOPE   H2Y20655   5.222   0.566   6.730 -0.6079 -1.1071 -1.1068
  181SOPE   C2320656   4.990   0.978   6.567 -0.0932  0.3659 -0.1851
  181SOPE   H3R20657   4.947   0.875   6.571 -0.6472  0.6011  0.0260
  181SOPE   H3S20658   4.904   1.047   6.551 -0.1736  0.6246  1.3022
  181SOPE   C2420659   5.048   1.012   6.698 -1.0011  0.3806  0.0300
  181SOPE   H4R20660   5.094   1.113   6.701 -1.4629  0.5858  0.2528
  181SOPE   H4S20661   4.967   1.019   6.772 -3.1482 -1.4175 -2.0511
  181SOPE   C2520662   5.151   0.913   6.753  0.4713  1.6818  0.4026
  181SOPE   H5R20663   5.116   0.808   6.742  1.4410  1.0822  2.7828
  181SOPE   H5S20664   5.255   0.922   6.715 -0.3535  2.4583 -1.7360
  181SOPE   C2620665   5.162   0.916   6.905 -0.8258  0.0751 -0.6618
  181SOPE   H6R20666   5.085   0.865   6.968 -0.8624 -0.9157 -1.4900
  181SOPE   H6S20667   5.257   0.863   6.925 -0.7904  0.5152  0.3876
  181SOPE   C2720668   5.175   1.061   6.963 -0.3966  0.3039 -0.4263
  181SOPE   H7R20669   5.255   1.115   6.909  1.7273 -0.5510  1.7576
  181SOPE   H7S20670   5.087   1.129   6.959 -0.1524  0.6070 -0.6574
  181SOPE   C2820671   5.232   1.062   7.110 -0.3929 -0.1384  0.3070
  181SOPE   H8R20672   5.320   0.994   7.112 -0.0280  0.3180 -0.0098
  181SOPE   H8S20673   5.255   1.166   7.142 -5.0666  1.4744 -1.2208
  181SOPE   C2920674   5.129   0.997   7.201 -0.8408 -0.3636  0.7585
  181SOPE   H9120675   5.039   1.060   7.198  0.3587  1.2912 -0.8246
  181SOPE  C21020676   5.132   0.893   7.286  0.2905 -0.7415 -0.0250
  181SOPE  H10120677   5.043   0.845   7.329 -0.3910  0.9559  0.4698
  181SOPE  C21120678   5.248   0.804   7.312  0.0526  0.3255 -0.1182
  181SOPE  H11R20679   5.331   0.818   7.239  0.0272 -2.2071 -0.6959
  181SOPE  H11S20680   5.225   0.696   7.300 -0.4308  0.4571 -0.3467
  181SOPE  C21220681   5.297   0.813   7.461  0.5020  0.7611  0.1932
  181SOPE  H12R20682   5.283   0.918   7.496 -1.3460  0.6578 -0.1829
  181SOPE  H12S20683   5.405   0.786   7.468  0.2176 -0.1703  1.0110
  181SOPE  C21320684   5.222   0.727   7.551 -0.0292  0.4371 -0.5717
  181SOPE  H13R20685   5.242   0.621   7.524 -1.3583  0.6066 -2.2493
  181SOPE  H13S20686   5.113   0.734   7.535  0.3922  2.7793 -2.6616
  181SOPE  C21420687   5.242   0.741   7.710  0.1208  0.4014  0.2016
  181SOPE  H14R20688   5.141   0.721   7.753 -0.6523  2.0421 -0.7864
  181SOPE  H14S20689   5.277   0.841   7.744  0.8323  0.3634 -0.4177
  181SOPE  C21520690   5.335   0.636   7.763 -0.1041  0.0790 -0.7531
  181SOPE  H15R20691   5.438   0.657   7.728  0.7933 -2.8277  0.0527
  181SOPE  H15S20692   5.298   0.538   7.727 -1.2637  1.0521 -2.3294
  181SOPE  C21620693   5.347   0.639   7.922 -0.0301  0.4808  0.5975
  181SOPE  H16R20694   5.389   0.542   7.956  1.1499  0.7765  0.0147
  181SOPE  H16S20695   5.245   0.650   7.963 -0.8012 -0.1371 -1.1195
  181SOPE  C21720696   5.439   0.756   7.970  0.4531 -0.0190  0.0580
  181SOPE  H17R20697   5.417   0.766   8.079  0.6078 -1.6124  0.2351
  181SOPE  H17S20698   5.402   0.853   7.929  0.8267  1.1221  2.3067
  181SOPE  C21820699   5.596   0.736   7.954  0.7523 -0.0652  0.1707
  181SOPE  H18R20700   5.631   0.634   7.979  0.9494  0.0013  0.1723
  181SOPE  H18S20701   5.653   0.821   7.998  0.2035  0.3141  0.1616
  181SOPE  H18T20702   5.626   0.735   7.847  0.1773  0.8505 -0.0045
  181SOPE   C3320703   5.342   0.453   6.873  0.1168 -0.0497  0.1243
  181SOPE   H3X20704   5.419   0.372   6.877  0.0297 -0.2507 -1.8482
  181SOPE   H3Y20705   5.253   0.410   6.923 -1.4144  2.0908 -0.7302
  181SOPE   C3420706   5.364   0.569   6.967  0.0045 -0.2214 -0.7006
  181SOPE   H4X20707   5.269   0.627   6.976 -0.3470 -1.1566  1.8339
  181SOPE   H4Y20708   5.433   0.650   6.935  1.0093 -0.4947  0.7089
  181SOPE   C3520709   5.427   0.539   7.107  0.0134 -0.1332  0.3928
  181SOPE   H5X20710   5.369   0.456   7.152 -0.5766  0.8303  1.4191
  181SOPE   H5Y20711   5.409   0.633   7.165  0.5307  1.1369 -1.4524
  181SOPE   C3620712   5.573   0.500   7.101  0.5007  0.0424 -1.0093
  181SOPE   H6X20713   5.625   0.542   7.012  0.4033  0.8352 -0.6951
  181SOPE   H6Y20714   5.580   0.389   7.093  1.3577 -0.3417  3.7172
  181SOPE   C3720715   5.656   0.526   7.223  0.1280  0.2468  0.1098
  181SOPE   H7X20716   5.683   0.633   7.227 -1.3434  0.6022  0.5874
  181SOPE   H7Y20717   5.750   0.466   7.214  0.5760  1.1705 -1.4386
  181SOPE   C3820718   5.582   0.487   7.354  0.6764  0.2647 -0.0274
  181SOPE   H8X20719   5.504   0.411   7.333  0.1987  0.6820  0.2374
  181SOPE   H8Y20720   5.525   0.578   7.379 -0.0317 -0.0954 -0.3215
  181SOPE   C3920721   5.669   0.444   7.475 -0.3846 -0.5383  0.3390
  181SOPE   H9X20722   5.723   0.351   7.447 -0.4899 -0.2767 -0.7496
  181SOPE   H9Y20723   5.602   0.421   7.561 -0.5687 -0.7253  0.1440
  181SOPE  C31020724   5.782   0.546   7.508 -0.4591 -0.6675 -0.0708
  181SOPE  H10X20725   5.741   0.607   7.591  1.3254  0.7980 -0.2438
  181SOPE  H10Y20726   5.807   0.607   7.418  2.3616 -0.0882  1.0626
  181SOPE  C31120727   5.911   0.489   7.570 -0.3939  0.0311  0.0441
  181SOPE  H11X20728   5.968   0.573   7.616 -0.2981 -0.0132  0.0073
  181SOPE  H11Y20729   5.985   0.447   7.498 -1.2084 -0.8909 -0.2744
  181SOPE  C31220730   5.875   0.390   7.682  0.3292  0.3358  0.1928
  181SOPE  H12X20731   5.796   0.323   7.642 -0.5033  1.5527 -0.2314
  181SOPE  H12Y20732   5.829   0.449   7.765  0.9597 -0.7773  1.3573
  181SOPE  C31320733   6.001   0.317   7.733  0.1424  0.3820 -0.1405
  181SOPE  H13X20734   6.065   0.308   7.642 -2.1272 -1.8169 -1.5829
  181SOPE  H13Y20735   5.974   0.215   7.766 -2.3860  0.8493 -0.6509
  181SOPE  C31420736   6.073   0.386   7.856 -0.6236  0.3139 -0.9123
  181SOPE  H14X20737   6.001   0.391   7.941 -0.3550  0.2250 -0.6815
  181SOPE  H14Y20738   6.103   0.483   7.812 -0.7167  0.0456 -1.5711
  181SOPE  C31520739   6.193   0.305   7.897 -0.6132  0.2108  0.1461
  181SOPE  H15X20740   6.262   0.306   7.811  0.1928  0.0845  0.7856
  181SOPE  H15Y20741   6.151   0.205   7.922 -4.0974  1.6455  0.4401
  181SOPE  C31620742   6.260   0.366   8.021 -1.1196 -0.0660 -0.2225
  181SOPE  H16X20743   6.192   0.380   8.108  1.9585 -1.3713  2.4844
  181SOPE  H16Y20744   6.302   0.465   7.995  2.2921 -1.0477  1.3674
  181SOPE  C31720745   6.369   0.269   8.076 -0.1680 -0.0263 -0.1537
  181SOPE  H17X20746   6.427   0.246   7.984 -0.4934  1.2163 -0.6768
  181SOPE  H17Y20747   6.330   0.172   8.112  0.2815 -0.1577 -0.0257
  181SOPE  C31820748   6.473   0.341   8.173 -0.6962  0.8475 -0.4564
  181SOPE  H18X20749   6.423   0.387   8.261 -2.7497 -2.5892  0.2740
  181SOPE  H18Y20750   6.528   0.417   8.114 -0.1039  0.7333 -0.0545
  181SOPE  H18Z20751   6.546   0.264   8.207 -2.3761 -1.1052 -1.1738
  182SOPE     N20752   5.447   3.533   6.477 -0.7199 -0.5342  0.0160
  182SOPE   HN120753   5.480   3.627   6.447  1.8694 -1.8682 -1.5660
  182SOPE   HN220754   5.524   3.471   6.443  0.3272  0.9145 -0.3029
  182SOPE   HN320755   5.354   3.520   6.433 -1.4382 -0.2028  1.4518
  182SOPE   C1220756   5.429   3.534   6.619  0.1894  0.3966 -1.4784
  182SOPE  H12A20757   5.334   3.588   6.638  0.0177 -0.4839  0.2844
  182SOPE  H12B20758   5.515   3.590   6.660  0.1748 -2.3372  2.6194
  182SOPE   C1120759   5.434   3.388   6.669  0.5018  0.2495 -0.2853
  182SOPE  H11A20760   5.444   3.390   6.780 -2.4380  0.3534  0.0280
  182SOPE  H11B20761   5.535   3.349   6.644  1.2669  0.8818  1.6720
  182SOPE     P20762   5.347   3.183   6.536  0.3709  0.6617  0.4070
  182SOPE   O1320763   5.465   3.202   6.444 -0.4597  0.2109  0.2178
  182SOPE   O1420764   5.220   3.147   6.469  0.1909  0.0220  0.4490
  182SOPE   O1220765   5.326   3.306   6.623  0.3783  0.0082 -0.0245
  182SOPE   O1120766   5.365   3.065   6.637 -0.4686 -0.5017 -0.0247
  182SOPE    C120767   5.301   3.055   6.762 -0.2841  0.3655  0.1463
  182SOPE    HA20768   5.200   3.100   6.769 -0.8358 -1.0018  0.9581
  182SOPE    HB20769   5.362   3.117   6.832 -0.1467  0.8654 -0.4134
  182SOPE    C220770   5.310   2.913   6.819 -0.5711  0.1719 -0.2839
  182SOPE    HS20771   5.233   2.842   6.781 -0.1222 -0.4417 -0.0390
  182SOPE   O2120772   5.297   2.936   6.959  0.4977 -0.2791 -0.3550
  182SOPE   C2120773   5.195   2.886   7.019 -0.4823  0.8994  0.0362
  182SOPE   O2220774   5.114   2.815   6.962 -0.0692 -0.2431 -0.0077
  182SOPE   C2220775   5.200   2.925   7.171  0.5650  0.2691  0.0079
  182SOPE   H2R20776   5.102   2.909   7.221 -0.3924  3.6116 -0.6323
  182SOPE   H2S20777   5.221   3.034   7.178 -1.8151  0.7637  0.0094
  182SOPE    C320778   5.444   2.843   6.790 -0.1449 -0.3906  0.6325
  182SOPE    HX20779   5.520   2.903   6.844 -0.2368  0.0310  0.2863
  182SOPE    HY20780   5.467   2.841   6.681 -0.6488  1.8704  0.4695
  182SOPE   O3120781   5.441   2.704   6.840 -0.3541 -0.0527  0.3565
  182SOPE   C3120782   5.386   2.618   6.760 -0.1584 -0.3318  0.6888
  182SOPE   O3220783   5.328   2.650   6.658  0.1388  0.6220  0.1261
  182SOPE   C3220784   5.405   2.477   6.825  0.7634  0.5994 -0.1119
  182SOPE   H2X20785   5.515   2.469   6.843  0.7541 -0.6190 -0.5644
  182SOPE   H2Y20786   5.373   2.400   6.752  1.6689 -1.6139  1.7408
  182SOPE   C2320787   5.314   2.839   7.235 -0.5437 -0.0819  0.5463
  182SOPE   H3R20788   5.415   2.867   7.197 -1.4233  2.1752 -0.2418
  182SOPE   H3S20789   5.295   2.730   7.238  0.7951 -0.3726 -0.8927
  182SOPE   C2420790   5.325   2.874   7.390  0.1451 -0.1897 -0.2716
  182SOPE   H4R20791   5.409   2.809   7.424 -0.0413 -0.3113 -0.0518
  182SOPE   H4S20792   5.359   2.977   7.416  2.3356 -1.3838  1.8169
  182SOPE   C2520793   5.195   2.846   7.467 -0.3203 -0.0861  0.1875
  182SOPE   H5R20794   5.138   2.940   7.452  1.0274  0.3102 -2.9500
  182SOPE   H5S20795   5.144   2.764   7.412  0.8042 -0.1482 -0.7952
  182SOPE   C2620796   5.206   2.821   7.614 -0.8438 -0.8151 -0.4454
  182SOPE   H6R20797   5.290   2.877   7.660  0.1774 -0.7795 -2.2913
  182SOPE   H6S20798   5.108   2.849   7.659  0.2616  0.0348  1.4784
  182SOPE   C2720799   5.241   2.672   7.653  0.1478 -0.3989  0.2669
  182SOPE   H7R20800   5.151   2.609   7.669  0.4330 -1.2452 -1.3218
  182SOPE   H7S20801   5.295   2.624   7.568  0.0582 -1.5725  0.8569
  182SOPE   C2820802   5.334   2.652   7.770 -0.2269 -1.2056  0.1140
  182SOPE   H8R20803   5.436   2.676   7.731  0.2654  1.6128  2.8567
  182SOPE   H8S20804   5.316   2.734   7.843 -0.9796  0.0605 -1.4555
  182SOPE   C2920805   5.322   2.520   7.835 -0.6902  0.2951 -0.3798
  182SOPE   H9120806   5.331   2.442   7.758 -0.7917  0.1590 -0.2526
  182SOPE  C21020807   5.293   2.479   7.962 -0.2696  0.2624 -0.2890
  182SOPE  H10120808   5.286   2.374   7.996  0.1193  0.8428  1.6326
  182SOPE  C21120809   5.270   2.568   8.079 -0.4649 -0.1522  0.0856
  182SOPE  H11R20810   5.161   2.573   8.099 -0.2477 -1.6866  1.8176
  182SOPE  H11S20811   5.299   2.673   8.058 -0.5047 -0.0219  0.6841
  182SOPE  C21220812   5.328   2.503   8.200  0.4148 -0.3313  0.5228
  182SOPE  H12R20813   5.269   2.410   8.219 -1.1303  0.2047 -1.4671
  182SOPE  H12S20814   5.315   2.568   8.289  3.1717 -0.3093  0.9580
  182SOPE  C21320815   5.483   2.470   8.202 -0.9672 -0.5196 -0.2111
  182SOPE  H13R20816   5.536   2.560   8.166 -1.0293 -0.5137 -0.2878
  182SOPE  H13S20817   5.491   2.396   8.119  2.6685  1.0084 -1.3101
  182SOPE  C21420818   5.528   2.416   8.344  0.1391  1.0965  0.0856
  182SOPE  H14R20819   5.588   2.325   8.325 -1.4655  0.0832 -0.1953
  182SOPE  H14S20820   5.436   2.374   8.388  0.1848 -1.1980 -1.9093
  182SOPE  C21520821   5.610   2.514   8.431 -0.4459  0.1133 -0.2694
  182SOPE  H15R20822   5.563   2.613   8.410 -0.4209  0.6057  1.8454
  182SOPE  H15S20823   5.708   2.519   8.380 -1.5071 -0.5926 -2.4170
  182SOPE  C21620824   5.612   2.473   8.578  0.1684  0.0528  0.2482
  182SOPE  H16R20825   5.512   2.458   8.623 -1.6026 -0.8115 -3.8029
  182SOPE  H16S20826   5.655   2.546   8.650 -2.7064  1.8165  0.2440
  182SOPE  C21720827   5.708   2.355   8.592 -0.0648 -0.4379  0.6037
  182SOPE  H17R20828   5.804   2.396   8.554  0.9193 -1.2477  2.1814
  182SOPE  H17S20829   5.673   2.269   8.531  0.4061  1.0764 -1.8809
  182SOPE  C21820830   5.725   2.304   8.727  0.8378 -0.3032  0.7602
  182SOPE  H18R20831   5.632   2.263   8.771  0.1881  1.7394  1.3540
  182SOPE  H18S20832   5.772   2.382   8.792 -0.7834  1.0672  0.3353
  182SOPE  H18T20833   5.788   2.213   8.731 -1.5938 -2.0580 -0.0372
  182SOPE   C3320834   5.324   2.467   6.960  0.5078 -0.3704 -0.1198
  182SOPE   H3X20835   5.216   2.461   6.935 -0.0471 -0.9128  2.2738
  182SOPE   H3Y20836   5.347   2.566   7.007  0.2348  0.1891 -1.1489
  182SOPE   C3420837   5.367   2.359   7.054  0.2395  0.4533  0.4572
  182SOPE   H4X20838   5.477   2.373   7.064 -0.1669  2.0604  3.1400
  182SOPE   H4Y20839   5.352   2.257   7.011  0.9845  0.0280  1.1893
  182SOPE   C3520840   5.297   2.371   7.192  0.6204  0.2305 -0.5234
  182SOPE   H5X20841   5.193   2.336   7.173  0.7488 -0.3173 -0.2192
  182SOPE   H5Y20842   5.294   2.478   7.223  0.9603  0.3750 -0.9863
  182SOPE   C3620843   5.356   2.293   7.305  0.4066 -0.0811 -0.4641
  182SOPE   H6X20844   5.462   2.324   7.321  0.3900 -1.1017  1.7544
  182SOPE   H6Y20845   5.362   2.188   7.270 -1.6057  0.6041 -3.0091
  182SOPE   C3720846   5.279   2.304   7.436 -0.2111 -0.5275 -1.0992
  182SOPE   H7X20847   5.171   2.294   7.413 -1.0342  3.0913  0.7592
  182SOPE   H7Y20848   5.286   2.401   7.490  3.2970 -0.5379 -1.4651
  182SOPE   C3820849   5.311   2.193   7.542  0.4285  0.3410  0.8123
  182SOPE   H8X20850   5.275   2.240   7.636  0.8702  3.5062 -0.5579
  182SOPE   H8Y20851   5.422   2.194   7.530  0.1248  1.7149 -2.3418
  182SOPE   C3920852   5.263   2.053   7.489  0.5531  0.6780  0.5684
  182SOPE   H9X20853   5.288   2.030   7.384  0.0505 -1.5430  0.8970
  182SOPE   H9Y20854   5.153   2.067   7.486  0.6621  1.3048 -0.5127
  182SOPE  C31020855   5.298   1.936   7.584  0.3825 -0.5712 -0.3995
  182SOPE  H10X20856   5.264   1.952   7.688  3.1969  0.1238  0.4623
  182SOPE  H10Y20857   5.409   1.938   7.588  0.3017 -0.1625  2.2448
  182SOPE  C31120858   5.250   1.812   7.525 -0.6140  0.0578  0.0642
  182SOPE  H11X20859   5.317   1.771   7.446  2.1836  1.5006  1.6086
  182SOPE  H11Y20860   5.145   1.815   7.489 -0.4715 -1.4635 -0.5160
  182SOPE  C31220861   5.245   1.698   7.633 -0.0478  0.2872 -0.6622
  182SOPE  H12X20862   5.227   1.602   7.579 -2.4921  1.3209 -1.7194
  182SOPE  H12Y20863   5.161   1.731   7.698 -0.9826 -1.6810 -0.8259
  182SOPE  C31320864   5.379   1.694   7.709  0.0811  0.4446 -0.3135
  182SOPE  H13X20865   5.381   1.791   7.762 -3.9985  0.8645 -0.7118
  182SOPE  H13Y20866   5.460   1.697   7.633  0.7753 -2.0912  0.2710
  182SOPE  C31420867   5.391   1.579   7.808  0.6607  0.5412 -0.0693
  182SOPE  H14X20868   5.495   1.553   7.838  0.5810  0.7225  0.3711
  182SOPE  H14Y20869   5.337   1.493   7.764  1.1814  1.0130 -1.6679
  182SOPE  C31520870   5.327   1.602   7.946  0.2498 -0.4748 -0.1928
  182SOPE  H15X20871   5.236   1.664   7.933  1.0625  0.7574 -0.1679
  182SOPE  H15Y20872   5.397   1.665   8.006 -0.4132 -0.7186  0.8453
  182SOPE  C31620873   5.278   1.482   8.028  0.1243 -0.4381  0.1430
  182SOPE  H16X20874   5.375   1.428   8.041 -0.0774 -0.4682  1.6910
  182SOPE  H16Y20875   5.210   1.425   7.961  0.5878  0.1421 -0.8235
  182SOPE  C31720876   5.201   1.524   8.152  0.6915 -0.4423 -0.0385
  182SOPE  H17X20877   5.102   1.561   8.120  0.1889 -1.8131 -0.1098
  182SOPE  H17Y20878   5.251   1.606   8.208 -2.1046  1.4902 -0.2855
  182SOPE  C31820879   5.178   1.402   8.251 -0.4430 -0.8249 -0.0880
  182SOPE  H18X20880   5.273   1.345   8.259  0.2160  0.1620 -0.8405
  182SOPE  H18Y20881   5.106   1.329   8.208  0.2625 -2.0720  0.8075
  182SOPE  H18Z20882   5.144   1.440   8.350  0.6411  2.9486 -1.0700
  183SOPE     N20883   0.880   0.517   6.225 -0.1356 -0.4296  0.2992
  183SOPE   HN120884   0.936   0.565   6.298 -1.7381  0.1343  1.1867
  183SOPE   HN220885   0.810   0.586   6.193  0.3259 -0.3529 -0.5640
  183SOPE   HN320886   0.834   0.430   6.260 -1.6109 -0.4693 -1.6487
  183SOPE   C1220887   0.968   0.489   6.107 -0.9000 -0.7387 -0.7362
  183SOPE  H12A20888   0.938   0.546   6.017 -1.5117 -1.2486 -0.8652
  183SOPE  H12B20889   0.964   0.380   6.082 -2.6804 -1.6047  3.0090
  183SOPE   C1120890   1.116   0.528   6.124 -0.0410  0.8043 -0.5120
  183SOPE  H11A20891   1.133   0.638   6.130  0.1137  0.7763 -0.4222
  183SOPE  H11B20892   1.165   0.489   6.033  0.2200 -1.8006  0.7003
  183SOPE     P20893   1.237   0.328   6.249 -0.1216  0.1542  0.6911
  183SOPE   O1320894   1.333   0.319   6.141  0.3944 -0.0124 -0.8812
  183SOPE   O1420895   1.133   0.220   6.247 -0.4469  0.3290 -0.2188
  183SOPE   O1220896   1.171   0.471   6.238  0.2453 -0.5244 -0.1204
  183SOPE   O1120897   1.304   0.343   6.390  0.3253 -0.2010  1.0317
  183SOPE    C120898   1.213   0.365   6.503  0.2930 -0.0065 -0.4309
  183SOPE    HA20899   1.195   0.267   6.551 -3.3601  0.3580 -0.9019
  183SOPE    HB20900   1.120   0.420   6.477 -1.0188 -0.8379  2.2983
  183SOPE    C220901   1.281   0.453   6.610 -0.3992 -0.3256 -0.5536
  183SOPE    HS20902   1.295   0.555   6.570  0.2636 -0.6133 -1.0658
  183SOPE   O2120903   1.404   0.397   6.659 -0.5677  0.4590 -0.3584
  183SOPE   C2120904   1.485   0.495   6.704 -0.2517  0.7339  0.1174
  183SOPE   O2220905   1.476   0.615   6.705  0.3599 -0.3418 -0.3203
  183SOPE   C2220906   1.605   0.428   6.769  0.3458 -1.2591  0.8856
  183SOPE   H2R20907   1.664   0.384   6.686  1.2894 -0.5338  1.1463
  183SOPE   H2S20908   1.560   0.354   6.838 -2.3182 -1.6922 -1.2405
  183SOPE    C320909   1.191   0.490   6.735 -0.2394  0.2898  0.7786
  183SOPE    HX20910   1.101   0.550   6.707  0.3236  0.7600 -0.0329
  183SOPE    HY20911   1.246   0.554   6.807 -0.8815 -0.2257  1.7295
  183SOPE   O3120912   1.157   0.364   6.803 -0.2229  0.2003 -0.3302
  183SOPE   C3120913   1.026   0.341   6.809 -0.4071  0.1796 -0.5164
  183SOPE   O3220914   0.939   0.418   6.787 -0.1975  0.6234  0.1254
  183SOPE   C3220915   0.999   0.187   6.828  0.3879 -0.4952 -0.1885
  183SOPE   H2X20916   1.088   0.135   6.870  1.5566  0.4523 -1.4173
  183SOPE   H2Y20917   0.982   0.139   6.729  1.2163 -1.3478  0.0805
  183SOPE   C2320918   1.695   0.521   6.849 -0.6843  0.5519 -0.2276
  183SOPE   H3R20919   1.689   0.626   6.815  0.0620 -0.4243 -3.5691
  183SOPE   H3S20920   1.800   0.490   6.829  0.0637  1.2234  2.4125
  183SOPE   C2420921   1.664   0.530   6.997  0.8167 -0.7983 -0.0293
  183SOPE   H4R20922   1.556   0.559   7.001  0.1422 -2.8075 -2.2792
  183SOPE   H4S20923   1.682   0.442   7.062 -1.8875 -0.9842  0.5435
  183SOPE   C2520924   1.729   0.648   7.063  0.7550  0.8992  0.0627
  183SOPE   H5R20925   1.833   0.647   7.023  1.5084 -1.6487  1.9312
  183SOPE   H5S20926   1.685   0.746   7.034  1.9565  1.6695  0.7836
  183SOPE   C2620927   1.732   0.646   7.217 -0.4722  0.4733 -0.2151
  183SOPE   H6R20928   1.628   0.644   7.256 -0.7381  0.1174 -0.9378
  183SOPE   H6S20929   1.774   0.546   7.241  1.0193  1.2462  0.4578
  183SOPE   C2720930   1.820   0.760   7.272  0.1411  0.1018 -0.0900
  183SOPE   H7R20931   1.921   0.742   7.228  0.9828  0.1698  1.7482
  183SOPE   H7S20932   1.791   0.856   7.225 -0.4650 -0.0246  0.0312
  183SOPE   C2820933   1.814   0.766   7.430 -0.1766  0.6217 -0.1487
  183SOPE   H8R20934   1.711   0.805   7.446 -0.1843  0.7668 -0.5506
  183SOPE   H8S20935   1.823   0.663   7.472  0.7016  1.7140  2.4037
  183SOPE   C2920936   1.932   0.826   7.487 -0.7350 -0.6223  0.0873
  183SOPE   H9120937   2.014   0.839   7.416 -0.9105 -1.8557 -0.3498
  183SOPE  C21020938   1.944   0.866   7.613 -1.1317  0.5535  0.2995
  183SOPE  H10120939   2.034   0.926   7.633  0.1151 -1.0817 -0.3346
  183SOPE  C21120940   1.837   0.858   7.724  0.2935  0.1295  0.8841
  183SOPE  H11R20941   1.756   0.790   7.690  0.5723 -0.1254  0.7315
  183SOPE  H11S20942   1.789   0.958   7.732  1.7193  0.9247 -0.3144
  183SOPE  C21220943   1.907   0.800   7.847  0.1552  0.1240 -0.2039
  183SOPE  H12R20944   1.986   0.872   7.877 -0.4445  0.6200  0.1934
  183SOPE  H12S20945   1.956   0.702   7.833  1.2380  0.6673 -0.2415
  183SOPE  C21320946   1.803   0.784   7.962 -1.0354 -0.3879  0.0850
  183SOPE  H13R20947   1.725   0.709   7.936  0.4163 -1.8281 -0.2560
  183SOPE  H13S20948   1.750   0.881   7.973 -0.0327  0.5611 -2.8186
  183SOPE  C21420949   1.861   0.731   8.102  0.4902  1.0421 -0.8639
  183SOPE  H14R20950   1.882   0.622   8.104 -0.8024  0.8209  2.2431
  183SOPE  H14S20951   1.776   0.750   8.170  1.9219  0.3123  1.1517
  183SOPE  C21520952   1.989   0.797   8.136  0.4142 -0.3372 -0.4204
  183SOPE  H15R20953   1.971   0.907   8.130  0.0896 -0.2172  2.2403
  183SOPE  H15S20954   2.072   0.762   8.071 -0.2127 -1.8617 -0.4363
  183SOPE  C21620955   2.045   0.771   8.272 -0.5877 -0.0934 -0.2122
  183SOPE  H16R20956   2.071   0.663   8.274  0.1226  0.0791 -0.2937
  183SOPE  H16S20957   1.960   0.775   8.344 -0.2028 -1.7066  0.3552
  183SOPE  C21720958   2.162   0.870   8.307  0.8881  0.2777  0.2311
  183SOPE  H17R20959   2.166   0.885   8.417  2.1397 -0.9984  0.3653
  183SOPE  H17S20960   2.130   0.966   8.262 -0.8164 -0.1689  0.4343
  183SOPE  C21820961   2.302   0.827   8.255 -0.4592 -0.2813  0.5992
  183SOPE  H18R20962   2.319   0.718   8.270  1.9261  0.0773  0.8269
  183SOPE  H18S20963   2.393   0.882   8.289 -0.5973  0.1333  0.2983
  183SOPE  H18T20964   2.300   0.837   8.145 -0.7432 -1.5117  0.4867
  183SOPE   C3320965   0.875   0.159   6.912  0.1735 -0.5487 -0.1979
  183SOPE   H3X20966   0.849   0.055   6.884 -0.0009 -0.1133 -1.6822
  183SOPE   H3Y20967   0.798   0.234   6.884  1.4913  0.5769 -0.9375
  183SOPE   C3420968   0.897   0.152   7.063 -0.5845  0.1888 -1.2590
  183SOPE   H4X20969   0.975   0.076   7.083  0.3635  1.2118 -0.9698
  183SOPE   H4Y20970   0.803   0.112   7.104  0.9186 -1.0444  1.0767
  183SOPE   C3520971   0.941   0.289   7.128  0.4051 -0.1363  0.0221
  183SOPE   H5X20972   0.884   0.377   7.090 -1.0970 -0.4331  1.5275
  183SOPE   H5Y20973   1.050   0.307   7.112  0.0943  0.4739 -1.5382
  183SOPE   C3620974   0.906   0.279   7.276 -0.5700  0.2316 -0.3244
  183SOPE   H6X20975   0.945   0.186   7.323 -0.2038  0.7536  0.4208
  183SOPE   H6Y20976   0.796   0.270   7.280 -0.6779  1.3134 -0.6464
  183SOPE   C3720977   0.935   0.407   7.355 -0.4410 -0.2314  0.3249
  183SOPE   H7X20978   0.863   0.486   7.323  2.5328  2.4534 -0.0158
  183SOPE   H7Y20979   1.035   0.445   7.327 -1.0365  0.6970 -0.5893
  183SOPE   C3820980   0.940   0.401   7.504 -0.6092  0.0889  0.1040
  183SOPE   H8X20981   0.848   0.348   7.537 -1.4369  1.1226 -0.5223
  183SOPE   H8Y20982   0.945   0.510   7.528  0.0022  0.0221  0.2717
  183SOPE   C3920983   1.067   0.328   7.556  0.1180  0.0090 -0.7870
  183SOPE   H9X20984   1.165   0.369   7.525  1.2468 -2.9432 -1.3158
  183SOPE   H9Y20985   1.063   0.218   7.536  1.4561 -0.0816 -0.5994
  183SOPE  C31020986   1.082   0.330   7.710  0.2406 -0.4641 -0.3413
  183SOPE  H10X20987   1.000   0.277   7.765  1.0499 -1.7883 -0.3928
  183SOPE  H10Y20988   1.083   0.435   7.746  0.3773 -0.0413 -1.5756
  183SOPE  C31120989   1.222   0.283   7.743  0.0056 -0.2373 -0.5256
  183SOPE  H11X20990   1.292   0.335   7.675  0.9761 -0.0104  0.6430
  183SOPE  H11Y20991   1.224   0.174   7.722  0.0917 -0.5757  1.2295
  183SOPE  C31220992   1.265   0.313   7.890 -0.3098 -0.3761  0.3426
  183SOPE  H12X20993   1.194   0.260   7.957  1.0574 -0.7257  1.5577
  183SOPE  H12Y20994   1.262   0.423   7.901  0.5299 -0.4063  0.9462
  183SOPE  C31320995   1.405   0.257   7.928  0.5611 -0.1754  0.1559
  183SOPE  H13X20996   1.483   0.306   7.866  0.6273  0.4286  0.7114
  183SOPE  H13Y20997   1.407   0.153   7.890 -0.2019  0.2715 -1.1553
  183SOPE  C31420998   1.430   0.260   8.077 -0.2206  0.6636 -0.8906
  183SOPE  H14X20999   1.362   0.190   8.130  0.1719  1.6145  0.9291
  183SOPE  H14Y21000   1.416   0.367   8.104  1.9606  1.0232 -1.0567
  183SOPE  C31521001   1.580   0.221   8.102  0.8907 -0.5235 -0.7984
  183SOPE  H15X21002   1.637   0.314   8.083 -0.8328  0.4781 -1.2072
  183SOPE  H15Y21003   1.612   0.143   8.030 -2.6510 -2.2239 -0.6163
  183SOPE  C31621004   1.612   0.172   8.243 -0.5284 -0.4014  0.3523
  183SOPE  H16X21005   1.705   0.113   8.225  2.4398  3.5381  1.8763
  183SOPE  H16Y21006   1.531   0.111   8.286  0.0466  0.1195  2.2255
  183SOPE  C31721007   1.661   0.296   8.329  0.1065  0.7613 -0.5700
  183SOPE  H17X21008   1.570   0.342   8.373  0.2777  3.0720 -2.5380
  183SOPE  H17Y21009   1.709   0.377   8.271 -1.2667  2.2091  0.2884
  183SOPE  C31821010   1.756   0.255   8.443  0.9635  0.2366  0.2473
  183SOPE  H18X21011   1.739   0.301   8.543  1.7293  1.7025 -0.2863
  183SOPE  H18Y21012   1.863   0.274   8.419  2.1445 -2.1966  3.1894
  183SOPE  H18Z21013   1.760   0.147   8.467 -0.9198 -0.1051 -0.9289
  184SOPE     N21014   0.543   1.250   6.154  0.3431  0.4515  0.2559
  184SOPE   HN121015   0.483   1.335   6.148 -0.2254 -0.0986 -2.6754
  184SOPE   HN221016   0.521   1.190   6.236  1.1306  0.9712  0.8471
  184SOPE   HN321017   0.643   1.277   6.156 -0.3768  3.3314 -0.7433
  184SOPE   C1221018   0.511   1.171   6.030  0.0712 -0.5830  0.4179
  184SOPE  H12A21019   0.516   1.248   5.950 -0.5412 -1.8055 -0.8163
  184SOPE  H12B21020   0.402   1.155   6.040 -0.0129 -0.6049 -0.5114
  184SOPE   C1121021   0.595   1.051   6.005 -0.0042 -0.0409  0.0400
  184SOPE  H11A21022   0.702   1.079   6.012 -0.2823  1.1345 -0.3859
  184SOPE  H11B21023   0.575   1.024   5.899 -0.0885 -0.2059  0.0972
  184SOPE     P21024   0.593   0.790   6.064  0.0314  0.0121  0.0230
  184SOPE   O1321025   0.720   0.743   6.131  0.4499  0.6413  0.3777
  184SOPE   O1421026   0.592   0.779   5.918 -0.0122  0.7901 -0.1347
  184SOPE   O1221027   0.565   0.943   6.101  0.6995 -0.4189 -0.2277
  184SOPE   O1121028   0.474   0.707   6.119 -0.5667 -0.4957 -0.8334
  184SOPE    C121029   0.342   0.764   6.129  0.3308 -0.0129  0.0686
  184SOPE    HA21030   0.266   0.693   6.090 -1.0916  0.1702  2.4302
  184SOPE    HB21031   0.331   0.857   6.069  1.1174  0.2355  0.2983
  184SOPE    C221032   0.303   0.776   6.283 -0.4296 -0.2874  0.2311
  184SOPE    HS21033   0.378   0.853   6.311 -3.4130  2.8407 -0.1279
  184SOPE   O2121034   0.315   0.651   6.342 -0.6324 -0.1208  0.2254
  184SOPE   C2121035   0.368   0.649   6.467  0.3536  0.5194 -0.4319
  184SOPE   O2221036   0.403   0.753   6.523 -0.4713  0.2367  0.1829
  184SOPE   C2221037   0.383   0.506   6.527 -0.3119  0.1607 -0.2869
  184SOPE   H2R21038   0.417   0.442   6.443  0.2212  1.4719 -1.0719
  184SOPE   H2S21039   0.285   0.471   6.566 -0.3500 -0.4440 -0.9233
  184SOPE    C321040   0.166   0.843   6.312 -0.2977  0.1605 -0.1192
  184SOPE    HX21041   0.099   0.758   6.335  2.3253 -1.6641  0.9860
  184SOPE    HY21042   0.141   0.896   6.218  2.9653  0.1152 -1.0750
  184SOPE   O3121043   0.177   0.933   6.431 -0.8028  0.2484 -0.1763
  184SOPE   C3121044   0.124   0.888   6.544 -0.0544  0.1539 -0.0430
  184SOPE   O3221045   0.078   0.775   6.557  0.5317  0.8031  0.2011
  184SOPE   C3221046   0.153   0.984   6.661  0.1159 -0.2742  0.5915
  184SOPE   H2X21047   0.062   1.044   6.683  1.4758  0.5699  4.2111
  184SOPE   H2Y21048   0.231   1.053   6.623  0.0322  0.4865  1.7563
  184SOPE   C2321049   0.482   0.495   6.643 -0.6535  0.2629 -0.0601
  184SOPE   H3R21050   0.576   0.542   6.607 -1.5867  1.6281 -0.7549
  184SOPE   H3S21051   0.503   0.386   6.647  1.2372  0.6423  1.8094
  184SOPE   C2421052   0.433   0.542   6.780  0.0642  0.0273  0.0746
  184SOPE   H4R21053   0.392   0.645   6.773 -0.0064 -0.1120 -2.0166
  184SOPE   H4S21054   0.346   0.475   6.800  0.6099 -1.0703 -1.1824
  184SOPE   C2521055   0.547   0.548   6.883  0.2570 -0.0328  0.2118
  184SOPE   H5R21056   0.591   0.447   6.897  0.8612  0.5446  2.6367
  184SOPE   H5S21057   0.637   0.606   6.852  1.4120 -1.9459 -0.1345
  184SOPE   C2621058   0.509   0.584   7.032 -0.6839  0.0725  0.0471
  184SOPE   H6R21059   0.476   0.690   7.042  0.4215  0.4143  0.1538
  184SOPE   H6S21060   0.413   0.532   7.057 -0.1528 -0.9162  0.0576
  184SOPE   C2721061   0.613   0.544   7.131 -0.3870  0.0970  0.2914
  184SOPE   H7R21062   0.641   0.439   7.110  0.8171  0.5923 -0.6322
  184SOPE   H7S21063   0.709   0.599   7.124  1.1555 -2.3648  1.6128
  184SOPE   C2821064   0.562   0.539   7.278 -0.6915 -0.0849  0.6203
  184SOPE   H8R21065   0.468   0.480   7.279 -1.7011  1.4367 -0.9313
  184SOPE   H8S21066   0.631   0.483   7.344 -0.4986 -1.4049 -0.6790
  184SOPE   C2921067   0.525   0.674   7.341  0.1937  0.1117 -0.3420
  184SOPE   H9121068   0.441   0.715   7.283  1.5342  0.4057 -2.1155
  184SOPE  C21021069   0.579   0.742   7.443  0.3549  0.3574 -0.1035
  184SOPE  H10121070   0.541   0.840   7.475  1.1157  0.6764 -0.1724
  184SOPE  C21121071   0.699   0.692   7.521  0.0982  0.4682 -0.0046
  184SOPE  H11R21072   0.784   0.765   7.516 -0.5590  1.2666  0.3350
  184SOPE  H11S21073   0.742   0.601   7.474  2.0192 -0.5218  3.4409
  184SOPE  C21221074   0.674   0.659   7.678  0.3674  0.1694  0.6362
  184SOPE  H12R21075   0.756   0.594   7.718 -1.2774 -2.7584 -0.6028
  184SOPE  H12S21076   0.583   0.597   7.688  0.6016 -0.0840  1.2345
  184SOPE  C21321077   0.659   0.790   7.758 -0.0799 -0.1348 -0.1142
  184SOPE  H13R21078   0.550   0.812   7.746  0.4226  0.7817 -3.4383
  184SOPE  H13S21079   0.718   0.876   7.720  0.9812 -0.1665  1.4264
  184SOPE  C21421080   0.691   0.779   7.905 -0.4211 -0.2424  0.3659
  184SOPE  H14R21081   0.641   0.684   7.933 -1.0801  0.1563  0.5557
  184SOPE  H14S21082   0.634   0.857   7.960 -2.5264 -0.7289 -1.0655
  184SOPE  C21521083   0.842   0.780   7.942  0.1970  0.1268  0.5801
  184SOPE  H15R21084   0.864   0.884   7.977 -1.8613  0.8364 -0.1643
  184SOPE  H15S21085   0.879   0.758   7.840 -2.1160 -0.8319 -0.0790
  184SOPE  C21621086   0.893   0.681   8.044  0.6061 -0.4101  0.1076
  184SOPE  H16R21087   1.004   0.680   8.038  0.8848  1.8397  3.4303
  184SOPE  H16S21088   0.862   0.581   8.007 -1.8778  0.4500 -0.2240
  184SOPE  C21721089   0.841   0.708   8.188 -0.3480 -0.2071 -0.3120
  184SOPE  H17R21090   0.845   0.615   8.249  1.5923  0.4017  0.5349
  184SOPE  H17S21091   0.734   0.737   8.188  0.1867  1.8095 -1.2652
  184SOPE  C21821092   0.909   0.820   8.254 -0.5758 -0.3351  0.1910
  184SOPE  H18R21093   0.854   0.864   8.340 -0.6130  1.0591 -0.5354
  184SOPE  H18S21094   0.929   0.905   8.186  0.2472 -0.0857  0.7378
  184SOPE  H18T21095   1.010   0.785   8.285 -0.0638  0.0640 -0.9983
  184SOPE   C3321096   0.208   0.911   6.784 -0.6992 -0.1702  0.7788
  184SOPE   H3X21097   0.308   0.870   6.760 -0.4883  1.2888 -0.9349
  184SOPE   H3Y21098   0.135   0.829   6.804  0.3367 -1.1755  0.4596
  184SOPE   C3421099   0.212   1.002   6.907 -1.0094  0.2094  0.2167
  184SOPE   H4X21100   0.115   1.055   6.917 -1.1498 -0.2925  1.6971
  184SOPE   H4Y21101   0.283   1.084   6.885  0.4131 -1.1742 -0.3978
  184SOPE   C3521102   0.249   0.935   7.040 -0.5955  0.3604  0.1438
  184SOPE   H5X21103   0.347   0.887   7.020 -1.0945 -0.3468 -0.6316
  184SOPE   H5Y21104   0.163   0.866   7.057 -3.7994  2.8308 -4.7303
  184SOPE   C3621105   0.254   1.042   7.156 -0.3038  0.1594  0.1407
  184SOPE   H6X21106   0.147   1.069   7.166  0.4039  3.7274 -1.4227
  184SOPE   H6Y21107   0.312   1.130   7.122 -0.7385  0.4232  0.0750
  184SOPE   C3721108   0.311   0.993   7.291 -0.1796  0.4617 -0.5449
  184SOPE   H7X21109   0.419   0.976   7.271 -0.0720  0.5576 -0.0519
  184SOPE   H7Y21110   0.274   0.892   7.317 -1.7974  1.1774 -0.0125
  184SOPE   C3821111   0.316   1.086   7.410  0.5814 -0.1278 -0.1729
  184SOPE   H8X21112   0.342   1.022   7.497 -1.3265 -1.5547 -0.6324
  184SOPE   H8Y21113   0.221   1.127   7.450  1.7168  1.0274  1.4463
  184SOPE   C3921114   0.406   1.216   7.406  0.1161  0.1041  0.0688
  184SOPE   H9X21115   0.375   1.274   7.317 -1.4392 -0.9741 -0.1007
  184SOPE   H9Y21116   0.510   1.184   7.382 -0.2836 -0.5253 -0.8678
  184SOPE  C31021117   0.406   1.302   7.533  0.1407 -0.5749 -0.2168
  184SOPE  H10X21118   0.448   1.229   7.606 -0.7910  0.0697  0.9746
  184SOPE  H10Y21119   0.302   1.325   7.562  0.1884 -1.4030  0.6160
  184SOPE  C31121120   0.492   1.429   7.524 -0.1280 -0.5851  0.3024
  184SOPE  H11X21121   0.439   1.496   7.454 -0.1735 -1.4813 -0.5286
  184SOPE  H11Y21122   0.589   1.408   7.473 -0.8048  0.9228 -1.6492
  184SOPE  C31221123   0.515   1.495   7.668 -0.7110 -0.0763  0.6723
  184SOPE  H12X21124   0.595   1.572   7.663  1.5993 -2.4573 -0.0529
  184SOPE  H12Y21125   0.554   1.416   7.736 -1.0452  1.1952  2.3719
  184SOPE  C31321126   0.393   1.558   7.740 -0.4237  0.1714  0.7377
  184SOPE  H13X21127   0.315   1.486   7.772 -0.3334 -0.4122 -0.3360
  184SOPE  H13Y21128   0.352   1.618   7.656 -2.5275  1.3237  2.4924
  184SOPE  C31421129   0.445   1.639   7.858  0.0410 -0.2265 -0.6195
  184SOPE  H14X21130   0.351   1.693   7.880  0.6515  0.3675  0.6079
  184SOPE  H14Y21131   0.528   1.707   7.828  0.9732  0.3600  3.0080
  184SOPE  C31521132   0.472   1.557   7.990 -0.1834  0.9802 -0.1132
  184SOPE  H15X21133   0.572   1.512   7.972  0.0725  0.6504  2.0600
  184SOPE  H15Y21134   0.392   1.484   8.011 -0.6146  1.4099 -0.2568
  184SOPE  C31621135   0.486   1.649   8.105 -0.4896 -0.2894  0.0392
  184SOPE  H16X21136   0.402   1.721   8.110  0.7133  0.9435  3.4823
  184SOPE  H16Y21137   0.581   1.706   8.104 -0.9396  0.4662 -0.4388
  184SOPE  C31721138   0.474   1.562   8.238  0.3510 -0.4089  0.0766
  184SOPE  H17X21139   0.379   1.505   8.234  0.5707 -0.7413 -0.5068
  184SOPE  H17Y21140   0.461   1.625   8.329 -1.3252 -0.8703  0.1728
  184SOPE  C31821141   0.599   1.475   8.268 -0.0736  0.4607  0.3093
  184SOPE  H18X21142   0.603   1.383   8.207 -2.2123  1.1603 -0.9114
  184SOPE  H18Y21143   0.605   1.437   8.372 -0.2824 -1.4061 -0.3483
  184SOPE  H18Z21144   0.694   1.530   8.249 -0.5358  1.0932 -0.1647
  185SAPI   C1221145   3.120   4.827  11.164 -0.5394 -0.5624 -0.0402
  185SAPI    H221146   3.081   4.885  11.078  1.5591 -0.9226 -1.2761
  185SAPI    O221147   3.256   4.853  11.183  0.4532  0.0418 -0.1660
  185SAPI   HO221148   3.299   4.867  11.098 -0.1465 -0.6496 -0.5903
  185SAPI   C1321149   3.048   4.854  11.293  0.4953  0.1265  0.0842
  185SAPI    H321150   2.941   4.828  11.279  0.8643 -0.2860 -2.2365
  185SAPI    O321151   3.057   4.987  11.348 -0.3648 -0.1089 -0.2831
  185SAPI   HO321152   3.152   4.995  11.360 -0.6703  2.4001  0.7354
  185SAPI   C1421153   3.088   4.750  11.404 -0.4373 -0.3487  0.2070
  185SAPI    H421154   3.194   4.776  11.423 -1.0804  2.3874  0.3659
  185SAPI    O421155   3.028   4.768  11.532 -0.7377 -0.2654 -0.6877
  185SAPI   HO421156   3.029   4.861  11.555  0.5979 -0.4052 -0.1251
  185SAPI   C1521157   3.074   4.608  11.349 -0.5895 -0.6790  0.1804
  185SAPI    H521158   2.968   4.577  11.335 -0.5275  0.1650 -2.4240
  185SAPI    O521159   3.132   4.512  11.436 -0.0612  0.7033  0.2393
  185SAPI   HO521160   3.135   4.431  11.384  1.2863  0.2653  0.9851
  185SAPI   C1621161   3.136   4.582  11.211  0.0784 -0.5293 -0.2094
  185SAPI    H621162   3.244   4.598  11.230 -0.5987  2.0851  1.7728
  185SAPI    O621163   3.115   4.444  11.172 -0.1089  0.4506  0.1409
  185SAPI   HO621164   3.187   4.419  11.114 -0.6340 -0.1716 -0.2519
  185SAPI   C1121165   3.092   4.686  11.118  0.6129  0.3139  0.5804
  185SAPI    H121166   2.985   4.687  11.091  1.4872  3.1254 -3.2635
  185SAPI     P21167   3.110   4.587  10.866 -0.1550 -0.4700  0.3277
  185SAPI   O1321168   3.135   4.677  10.753  0.0305  0.0802 -0.3901
  185SAPI   O1421169   2.971   4.544  10.884  0.3696 -0.1823 -0.2545
  185SAPI   O1221170   3.169   4.666  10.998  0.4710 -0.3277  0.4778
  185SAPI   O1121171   3.201   4.457  10.847 -0.2961 -0.2128 -0.0641
  185SAPI    C121172   3.340   4.479  10.825  0.0901 -1.0364  0.6967
  185SAPI    HA21173   3.351   4.574  10.768  1.0343 -1.6571 -0.1841
  185SAPI    HB21174   3.393   4.491  10.922  0.7107  2.1618  0.0450
  185SAPI    C221175   3.394   4.353  10.745  0.1095 -0.2733  0.4560
  185SAPI    HS21176   3.409   4.275  10.822 -0.7480 -0.8762  0.0132
  185SAPI   O2121177   3.516   4.397  10.682 -0.4599  0.1818  0.0314
  185SAPI   C2121178   3.610   4.302  10.666 -0.1326  0.7126 -0.0773
  185SAPI   O2221179   3.608   4.194  10.725 -0.7765  0.6923 -0.9491
  185SAPI   C2221180   3.713   4.358  10.574 -0.1214 -0.4317  0.6486
  185SAPI   H2R21181   3.684   4.447  10.515  0.7073  0.4743  1.5939
  185SAPI   H2S21182   3.800   4.393  10.635  0.4358  0.0701 -0.4335
  185SAPI    C321183   3.293   4.303  10.643  0.6120 -0.1188  0.7283
  185SAPI    HX21184   3.294   4.380  10.563 -1.0937 -0.9917 -0.1525
  185SAPI    HY21185   3.191   4.303  10.686 -0.7123  2.5186 -2.2186
  185SAPI   O3121186   3.318   4.167  10.597  0.2736  0.8296 -0.2076
  185SAPI   C3121187   3.224   4.092  10.552 -0.0919  0.0348 -0.3601
  185SAPI   O3221188   3.102   4.113  10.548 -0.1395  0.2138 -0.2920
  185SAPI   C3221189   3.281   3.971  10.476 -0.4795  0.1505  0.7648
  185SAPI   H2X21190   3.301   3.892  10.551  0.2393 -0.7201 -0.3148
  185SAPI   H2Y21191   3.373   4.003  10.422  0.5552 -2.2685  1.0326
  185SAPI   C2321192   3.773   4.249  10.482  0.1892 -0.7560 -0.1381
  185SAPI   H3R21193   3.789   4.153  10.536  0.1586  0.5756  2.2952
  185SAPI   H3S21194   3.872   4.280  10.443  0.8962 -0.3565  1.9282
  185SAPI   C2421195   3.678   4.217  10.360 -1.0413 -0.6919  0.0697
  185SAPI   H4R21196   3.672   4.305  10.293  0.7459 -1.6174 -1.3477
  185SAPI   H4S21197   3.582   4.194  10.411  0.2643 -2.6121  1.7756
  185SAPI   C2521198   3.716   4.091  10.286  0.7926  0.4941  0.1516
  185SAPI   H5R21199   3.796   4.032  10.333  1.2838  1.5006  0.5948
  185SAPI   C2621200   3.672   4.057  10.162 -0.1994 -0.3019  0.7240
  185SAPI   H6R21201   3.730   3.973  10.120 -0.2702 -0.4772  0.9769
  185SAPI   C2721202   3.583   4.144  10.080  0.4057 -0.0814 -0.3290
  185SAPI   H7R21203   3.517   4.206  10.144 -0.3652  1.5457 -2.6534
  185SAPI   H7S21204   3.511   4.077  10.028 -1.7885  0.7339  1.6027
  185SAPI   C2821205   3.649   4.238   9.986  0.0758 -0.3884  0.4260
  185SAPI   H8R21206   3.709   4.317  10.032  0.4102 -0.9109  0.8904
  185SAPI   C2921207   3.633   4.243   9.855  0.4197  0.2738 -0.1453
  185SAPI   H9R21208   3.684   4.323   9.798 -1.4972  0.8811 -1.0421
  185SAPI  C21021209   3.555   4.150   9.766  0.0816  0.1737 -0.9482
  185SAPI  H10R21210   3.493   4.215   9.702  0.1439  1.0820 -0.1003
  185SAPI  H10S21211   3.489   4.085   9.828 -1.6454  3.2678  0.5438
  185SAPI  C21121212   3.651   4.079   9.671 -0.1047  0.0779 -0.4627
  185SAPI  H11R21213   3.758   4.077   9.696 -0.4130  0.7740  0.9997
  185SAPI  C21221214   3.602   4.017   9.565 -0.2957 -0.0466  0.1991
  185SAPI  H12R21215   3.673   3.965   9.499 -0.3006  0.9213 -0.5857
  185SAPI  C21321216   3.458   4.016   9.508  0.6270  0.5437  0.0763
  185SAPI  H13R21217   3.436   4.112   9.457 -0.5174 -0.7104 -1.8681
  185SAPI  H13S21218   3.381   4.020   9.588 -0.6812  2.1975 -1.2062
  185SAPI  C21421219   3.452   3.903   9.409 -0.4685  0.0727  0.3760
  185SAPI  H14R21220   3.428   3.801   9.444 -0.8532  0.5045  1.4004
  185SAPI  C21521221   3.478   3.911   9.280 -0.3696 -0.2910  0.0527
  185SAPI  H15R21222   3.474   3.822   9.215  0.9628  0.2041 -0.7218
  185SAPI  C21621223   3.501   4.039   9.199 -0.1802  0.0254 -0.2017
  185SAPI  H16R21224   3.608   4.047   9.171 -0.3005 -1.2265 -1.1001
  185SAPI  H16S21225   3.469   4.136   9.242  1.3858  0.4367  0.0517
  185SAPI  C21721226   3.424   4.035   9.065 -0.3119 -0.4177 -0.4897
  185SAPI  H17R21227   3.437   3.948   8.998  0.1668 -1.2130  0.6248
  185SAPI  H17S21228   3.465   4.124   9.012 -0.0654 -0.3644 -0.2170
  185SAPI  C21821229   3.273   4.058   9.081  0.2335 -0.0275  0.0628
  185SAPI  H18R21230   3.254   4.148   9.143  0.3052 -0.3970  0.6248
  185SAPI  H18S21231   3.219   3.969   9.118 -0.5307  0.4406  0.0909
  185SAPI  C21921232   3.194   4.070   8.952 -1.0144 -0.0573  0.5654
  185SAPI  H19R21233   3.091   4.107   8.972 -0.7866  1.1611 -0.4281
  185SAPI  H19S21234   3.176   3.975   8.898 -1.2750 -0.4683  1.3794
  185SAPI  C22021235   3.259   4.168   8.846 -0.2906 -0.2446 -0.6273
  185SAPI  H20R21236   3.267   4.268   8.893 -1.3303 -0.0671 -0.8175
  185SAPI  H20S21237   3.182   4.187   8.769  1.4194  1.3290 -1.9855
  185SAPI  H20T21238   3.363   4.140   8.817  0.5182 -0.1550  2.0353
  185SAPI   C3321239   3.182   3.920  10.371  0.1473  0.3107 -0.0591
  185SAPI   H3X21240   3.094   3.887  10.430  1.2812  1.0243  2.0776
  185SAPI   H3Y21241   3.226   3.830  10.323 -0.7657  0.4098 -1.0987
  185SAPI   C3421242   3.147   4.020  10.257  0.4746  0.2858  0.3472
  185SAPI   H4X21243   3.078   4.100  10.293  0.4104 -0.5009  1.9806
  185SAPI   H4Y21244   3.089   3.953  10.191 -0.2290 -0.0760  1.3268
  185SAPI   C3521245   3.265   4.073  10.180 -0.3254 -0.1358  0.3471
  185SAPI   H5X21246   3.325   3.980  10.181  0.7097  0.5251 -0.0620
  185SAPI   H5Y21247   3.320   4.142  10.247  0.5823 -1.2353  0.7457
  185SAPI   C3621248   3.234   4.147  10.042 -0.5664 -0.1014  0.2640
  185SAPI   H6X21249   3.327   4.195  10.005  0.0295  0.6790  2.6842
  185SAPI   H6Y21250   3.160   4.228  10.060 -0.8722 -0.8381  2.4951
  185SAPI   C3721251   3.199   4.055   9.930 -0.0232 -0.0208  0.2357
  185SAPI   H7X21252   3.132   3.979   9.974 -0.1608 -0.0209  0.0281
  185SAPI   H7Y21253   3.294   4.012   9.889  0.1532  0.5227  0.0748
  185SAPI   C3821254   3.126   4.116   9.807 -0.2602 -0.2723 -0.4437
  185SAPI   H8X21255   3.187   4.193   9.755  0.0606 -1.5482 -2.0191
  185SAPI   H8Y21256   3.045   4.172   9.859  0.2704 -0.4229  0.5590
  185SAPI   C3921257   3.074   4.002   9.709  0.2805  0.2651  0.2177
  185SAPI   H9X21258   2.999   3.948   9.771  0.1713  1.9827  1.6030
  185SAPI   H9Y21259   3.165   3.941   9.687 -0.0752 -0.3696  0.4769
  185SAPI  C31021260   3.005   4.052   9.574  0.0394  0.7101 -0.3149
  185SAPI  H10X21261   2.915   4.111   9.602  1.6086  3.0726 -0.0870
  185SAPI  H10Y21262   2.972   3.963   9.515 -0.5345 -0.7878  2.1950
  185SAPI  C31121263   3.100   4.133   9.494  0.7140  0.1566  0.2726
  185SAPI  H11X21264   3.188   4.071   9.468  1.2603  1.0000  0.1125
  185SAPI  H11Y21265   3.142   4.220   9.547  1.1915  2.1857 -3.2871
  185SAPI  C31221266   3.036   4.198   9.373 -0.6772 -0.2191  0.6361
  185SAPI  H12X21267   3.115   4.229   9.302 -0.1138 -0.2598  1.2442
  185SAPI  H12Y21268   2.970   4.283   9.402  0.3638 -0.1295  2.8934
  185SAPI  C31321269   2.960   4.096   9.292  0.3468  0.8376 -0.0306
  185SAPI  H13X21270   2.889   4.047   9.362  1.1557  0.3986  0.4965
  185SAPI  H13Y21271   3.020   4.016   9.243 -1.2221 -1.1356  1.1795
  185SAPI  C31421272   2.861   4.155   9.198 -0.2874  0.3062 -0.1275
  185SAPI  H14X21273   2.916   4.230   9.137  0.5935 -0.2117  0.0306
  185SAPI  H14Y21274   2.773   4.195   9.254 -1.8227 -0.1566 -2.1490
  185SAPI  C31521275   2.797   4.044   9.104  0.2883  0.3647 -0.0242
  185SAPI  H15X21276   2.790   3.951   9.163  1.2729  1.8668  2.5420
  185SAPI  H15Y21277   2.868   4.007   9.026  1.8182 -1.4081  2.1491
  185SAPI  C31621278   2.661   4.087   9.046  0.3544 -0.4265 -0.0114
  185SAPI  H16X21279   2.650   4.193   9.013 -0.8185 -0.2938  0.7847
  185SAPI  H16Y21280   2.590   4.090   9.131 -2.3438 -2.4595 -2.0824
  185SAPI  C31721281   2.607   3.996   8.941  0.6970 -0.8321 -0.4048
  185SAPI  H17X21282   2.666   4.004   8.847  0.8841 -0.5475 -0.2637
  185SAPI  H17Y21283   2.501   4.024   8.927  1.3029  0.5391 -2.4738
  185SAPI  C31821284   2.616   3.848   8.969  0.2777  0.3253  1.0182
  185SAPI  H18X21285   2.582   3.786   8.883  1.7377  0.4342  0.3371
  185SAPI  H18Y21286   2.552   3.810   9.052  1.2979 -2.2355  0.6842
  185SAPI  H18Z21287   2.717   3.802   8.983  0.0883 -0.1296  0.8836
  186SAPI   C1221288   3.614   2.323  11.166  0.6865 -0.0735  0.7525
  186SAPI    H221289   3.504   2.339  11.159  0.6566 -0.9309 -0.9553
  186SAPI    O221290   3.653   2.458  11.192  0.3404 -0.3211  0.4281
  186SAPI   HO221291   3.695   2.499  11.116 -0.5108 -0.2979 -0.0366
  186SAPI   C1321292   3.643   2.236  11.281 -0.3969 -0.1860  0.0252
  186SAPI    H321293   3.614   2.133  11.251  0.9535  0.0533 -2.1958
  186SAPI    O321294   3.565   2.269  11.399 -0.4740  0.3351 -0.0841
  186SAPI   HO321295   3.559   2.365  11.399  0.1806  0.4444  3.6823
  186SAPI   C1421296   3.789   2.237  11.309  0.2345  0.3605  0.1882
  186SAPI    H421297   3.810   2.343  11.334 -1.8829  1.1189 -1.0585
  186SAPI    O421298   3.829   2.160  11.423  0.2148 -0.0155  0.1511
  186SAPI   HO421299   3.924   2.150  11.413  0.0578 -1.1561 -0.2565
  186SAPI   C1521300   3.863   2.182  11.183  0.0544 -0.1502 -0.5135
  186SAPI    H521301   3.812   2.084  11.174  1.4194 -0.9468  0.2098
  186SAPI    O521302   4.003   2.159  11.197 -0.9080 -0.2702 -0.5672
  186SAPI   HO521303   4.049   2.091  11.147  0.4978  0.6802 -0.6225
  186SAPI   C1621304   3.831   2.268  11.069 -0.8211 -0.4604  0.4768
  186SAPI    H621305   3.861   2.373  11.088 -3.2269  0.5111 -0.9071
  186SAPI    O621306   3.901   2.235  10.952 -0.0371  0.4790 -0.0874
  186SAPI   HO621307   3.866   2.149  10.926 -0.9726 -0.4138  3.7938
  186SAPI   C1121308   3.680   2.277  11.037 -0.0752  0.0795  0.1211
  186SAPI    H121309   3.646   2.173  11.019  1.6565 -0.3805 -0.6047
  186SAPI     P21310   3.494   2.353  10.860 -0.2703 -0.1296  0.2442
  186SAPI   O1321311   3.438   2.491  10.849  0.3660 -0.3063 -0.2439
  186SAPI   O1421312   3.418   2.248  10.923 -0.0569  1.0118 -0.6166
  186SAPI   O1221313   3.644   2.363  10.932 -0.0907 -0.1379  0.2656
  186SAPI   O1121314   3.540   2.305  10.715 -0.1445 -0.1991 -0.0680
  186SAPI    C121315   3.647   2.231  10.661  0.4777  0.4848 -0.2961
  186SAPI    HA21316   3.727   2.224  10.738  0.7132 -0.1696 -0.5985
  186SAPI    HB21317   3.612   2.128  10.639  4.3170 -0.9500 -0.0331
  186SAPI    C221318   3.709   2.296  10.529  0.4959  0.5225 -0.2727
  186SAPI    HS21319   3.776   2.378  10.561  0.7438 -0.0780  0.7878
  186SAPI   O2121320   3.609   2.344  10.440  0.2853  0.3219  0.0080
  186SAPI   C2121321   3.604   2.477  10.426 -0.6245  0.2012 -0.0362
  186SAPI   O2221322   3.689   2.558  10.462 -0.4901  0.0088 -0.1319
  186SAPI   C2221323   3.469   2.509  10.347  0.4190 -0.6325 -0.4992
  186SAPI   H2R21324   3.433   2.422  10.288  0.4867 -0.9827 -0.0329
  186SAPI   H2S21325   3.389   2.543  10.415  0.2135  1.1659 -1.6002
  186SAPI    C321326   3.794   2.179  10.450 -0.4467  0.4232 -0.1016
  186SAPI    HX21327   3.721   2.104  10.415 -0.5768  0.6733 -0.3684
  186SAPI    HY21328   3.858   2.124  10.523 -1.9197 -1.0738  0.0863
  186SAPI   O3121329   3.864   2.234  10.342  0.1129 -0.6868  0.0846
  186SAPI   C3121330   3.993   2.196  10.312 -0.4559 -0.5362 -0.2537
  186SAPI   O3221331   4.055   2.117  10.381  0.2060  0.7713  0.6923
  186SAPI   C3221332   4.035   2.239  10.168  0.0564 -0.4920 -0.8851
  186SAPI   H2X21333   4.070   2.144  10.124  2.0770 -0.1543 -0.0393
  186SAPI   H2Y21334   4.110   2.321  10.177 -3.0406  2.5854 -1.9372
  186SAPI   C2321335   3.480   2.633  10.258  0.0177  0.1522 -0.1660
  186SAPI   H3R21336   3.503   2.725  10.315 -0.3366 -1.0412  1.9712
  186SAPI   H3S21337   3.387   2.654  10.201 -1.0211  0.4738  1.6209
  186SAPI   C2421338   3.583   2.624  10.143 -0.2116  0.3508  0.1608
  186SAPI   H4R21339   3.684   2.634  10.188  0.4015 -0.6614 -0.9759
  186SAPI   H4S21340   3.565   2.713  10.079 -0.4804 -0.1517 -0.4753
  186SAPI   C2521341   3.567   2.507  10.048 -0.4220 -0.5615  0.0678
  186SAPI   H5R21342   3.557   2.407  10.094 -2.2243 -1.8102 -2.9140
  186SAPI   C2621343   3.569   2.515   9.915 -0.7534  0.2518  0.0815
  186SAPI   H6R21344   3.547   2.417   9.870  1.8414 -1.5073  2.4572
  186SAPI   C2721345   3.579   2.635   9.827  0.5608  0.2383 -0.1844
  186SAPI   H7R21346   3.663   2.637   9.755 -1.4109 -0.8330 -2.5941
  186SAPI   H7S21347   3.594   2.730   9.883 -1.8241  1.7849 -2.0399
  186SAPI   C2821348   3.442   2.649   9.762 -0.6855  0.0253  0.7022
  186SAPI   H8R21349   3.346   2.646   9.815 -0.5735 -2.6184  0.8438
  186SAPI   C2921350   3.423   2.659   9.626 -0.5661 -0.6902 -0.4031
  186SAPI   H9R21351   3.319   2.666   9.592 -0.2661  0.0942 -1.1774
  186SAPI  C21021352   3.518   2.655   9.511  0.0466 -0.3072  0.0140
  186SAPI  H10R21353   3.624   2.675   9.535 -0.2412  1.4560 -0.1092
  186SAPI  H10S21354   3.493   2.740   9.444 -0.5340  0.6340  1.4070
  186SAPI  C21121355   3.498   2.532   9.423 -0.2245  0.1339 -0.0597
  186SAPI  H11R21356   3.558   2.443   9.447 -0.5341  0.2427  1.1363
  186SAPI  C21221357   3.402   2.518   9.330 -0.3463 -0.0520 -0.1715
  186SAPI  H12R21358   3.387   2.423   9.277 -0.1601 -0.3219  0.2556
  186SAPI  C21321359   3.293   2.618   9.294 -0.1612  1.3283  0.2378
  186SAPI  H13R21360   3.319   2.640   9.188 -0.1772 -3.8335 -0.9852
  186SAPI  H13S21361   3.305   2.718   9.342 -1.1977  1.9417 -0.7548
  186SAPI  C21421362   3.155   2.559   9.313  0.7300  0.4711  0.2611
  186SAPI  H14R21363   3.130   2.545   9.419  0.3531 -0.0086  0.1117
  186SAPI  C21521364   3.076   2.515   9.212 -0.3354 -1.0999 -0.1206
  186SAPI  H15R21365   2.987   2.458   9.242 -1.3191  0.6601  0.3169
  186SAPI  C21621366   3.121   2.514   9.068 -0.4451  0.2296  0.1738
  186SAPI  H16R21367   3.167   2.416   9.043  0.1166  0.6141 -0.3215
  186SAPI  H16S21368   3.201   2.588   9.046  0.6724 -0.2382  2.5331
  186SAPI  C21721369   3.008   2.549   8.970  0.5895 -0.2165 -0.0421
  186SAPI  H17R21370   2.958   2.646   8.988  1.3929  0.2074 -0.0862
  186SAPI  H17S21371   2.936   2.464   8.965 -0.3015  0.5680 -0.6663
  186SAPI  C21821372   3.063   2.573   8.830  0.1269 -0.2989  0.5072
  186SAPI  H18R21373   3.105   2.478   8.790 -2.5547 -1.8367  1.2775
  186SAPI  H18S21374   3.150   2.643   8.833  1.4995 -1.8017 -2.4337
  186SAPI  C21921375   2.958   2.630   8.729  0.3073  0.5387 -0.0516
  186SAPI  H19R21376   2.936   2.731   8.770 -0.6425 -0.4079  1.8621
  186SAPI  H19S21377   2.873   2.561   8.748  0.3176  0.9025  1.3853
  186SAPI  C22021378   2.991   2.625   8.581 -0.3119  0.2452  0.4455
  186SAPI  H20R21379   2.999   2.519   8.548  0.7129  0.9511 -1.6508
  186SAPI  H20S21380   3.086   2.682   8.571 -0.0665 -0.2538 -0.0668
  186SAPI  H20T21381   2.912   2.666   8.514 -1.5315 -2.3494  0.2252
  186SAPI   C3321382   3.917   2.297  10.082  0.2129  0.3523 -0.4826
  186SAPI   H3X21383   3.872   2.381  10.140 -2.0354  1.4454 -3.6884
  186SAPI   H3Y21384   3.835   2.227  10.058  1.5483 -0.4005 -3.0705
  186SAPI   C3421385   3.974   2.350   9.950 -0.1851  1.1546 -0.2553
  186SAPI   H4X21386   4.039   2.269   9.912 -2.7480 -0.4597 -1.3057
  186SAPI   H4Y21387   4.035   2.441   9.967  0.9195  0.0763  1.7026
  186SAPI   C3521388   3.880   2.375   9.833  0.0914 -0.0291  0.4480
  186SAPI   H5X21389   3.809   2.449   9.876  1.0542  1.8116 -1.0374
  186SAPI   H5Y21390   3.819   2.284   9.814  1.2708 -0.6113 -0.6461
  186SAPI   C3621391   3.957   2.425   9.702  0.3260  0.0004  0.4892
  186SAPI   H6X21392   4.055   2.379   9.676 -0.2755 -0.7882 -0.4456
  186SAPI   H6Y21393   3.975   2.532   9.726  0.7798  0.2990 -1.0993
  186SAPI   C3721394   3.868   2.408   9.575 -0.6315 -0.1138  0.7421
  186SAPI   H7X21395   3.776   2.467   9.598  0.8951  1.2716  3.5483
  186SAPI   H7Y21396   3.835   2.302   9.566  0.3425 -0.3599  0.0330
  186SAPI   C3821397   3.921   2.473   9.444 -0.1063 -0.2659 -0.2527
  186SAPI   H8X21398   3.854   2.453   9.357 -1.0334  1.0629  0.1474
  186SAPI   H8Y21399   4.015   2.417   9.421  0.3642  0.4007  0.0229
  186SAPI   C3921400   3.956   2.619   9.463  0.3416  1.0262 -0.5568
  186SAPI   H9X21401   4.022   2.637   9.550  0.1573  1.0465 -0.4222
  186SAPI   H9Y21402   3.861   2.673   9.487 -1.0836 -1.0966 -1.2899
  186SAPI  C31021403   4.025   2.688   9.342 -0.0261  0.3394  0.4399
  186SAPI  H10X21404   4.128   2.647   9.344  1.3334  3.6082  0.0184
  186SAPI  H10Y21405   4.036   2.797   9.360  0.8152  0.4333 -0.6382
  186SAPI  C31121406   3.953   2.652   9.207  0.4104 -0.3122  0.2456
  186SAPI  H11X21407   3.844   2.673   9.214  0.3548 -0.7460  0.7670
  186SAPI  H11Y21408   3.960   2.543   9.187  2.7724 -0.1288 -0.0726
  186SAPI  C31221409   4.000   2.727   9.086 -0.2118 -0.4719  0.1727
  186SAPI  H12X21410   3.955   2.681   8.995 -1.8507  2.5543 -0.6064
  186SAPI  H12Y21411   4.109   2.711   9.070 -0.2985 -0.0633 -0.8371
  186SAPI  C31321412   3.963   2.880   9.098  0.6294  0.3209 -0.1685
  186SAPI  H13X21413   4.010   2.927   9.187  0.9469 -0.5171  0.1071
  186SAPI  H13Y21414   3.853   2.891   9.112  0.3112 -0.6074 -1.8384
  186SAPI  C31421415   3.991   2.943   8.965  0.2969  0.5536 -0.0630
  186SAPI  H14X21416   3.934   2.896   8.882  0.4079 -0.3053  0.3525
  186SAPI  H14Y21417   4.098   2.920   8.944  0.6868  1.2662  1.1131
  186SAPI  C31521418   3.974   3.093   8.964  0.6690 -0.4771  0.6173
  186SAPI  H15X21419   4.045   3.149   9.028  0.6513 -0.3816  0.5523
  186SAPI  H15Y21420   3.874   3.114   9.008  0.5072  3.4444 -1.3657
  186SAPI  C31621421   3.974   3.153   8.821 -0.0907 -0.5773 -0.5236
  186SAPI  H16X21422   3.907   3.098   8.752 -3.0769  0.6793  1.2482
  186SAPI  H16Y21423   4.074   3.144   8.776  0.1864  1.0762 -0.2705
  186SAPI  C31721424   3.943   3.300   8.822  0.0384  0.2805  0.1986
  186SAPI  H17X21425   3.999   3.363   8.893  1.3512 -0.7720  0.1162
  186SAPI  H17Y21426   3.833   3.300   8.841 -0.1864  2.3326 -0.8831
  186SAPI  C31821427   3.973   3.374   8.695  0.1686  0.4044 -0.5429
  186SAPI  H18X21428   3.980   3.482   8.721  0.2825  0.4489 -0.7624
  186SAPI  H18Y21429   3.912   3.355   8.605  0.7293 -0.2177 -0.7932
  186SAPI  H18Z21430   4.076   3.346   8.666  1.0389  3.0869 -0.1592
  187SAPI   C1221431   0.307   3.823   6.099  0.1938 -0.2230 -0.2780
  187SAPI    H221432   0.408   3.782   6.080  1.0028  2.6201 -2.5270
  187SAPI    O221433   0.314   3.952   6.163 -0.2293 -0.0039  0.4878
  187SAPI   HO221434   0.401   3.948   6.203 -0.0263 -0.3318  0.0307
  187SAPI   C1321435   0.259   3.840   5.952 -0.1212 -0.1748  0.1748
  187SAPI    H321436   0.262   3.733   5.921 -2.5327 -0.2758  0.2251
  187SAPI    O321437   0.353   3.912   5.861 -0.3139  0.7832  0.2186
  187SAPI   HO321438   0.374   3.998   5.898  0.5362  0.6923 -0.0353
  187SAPI   C1421439   0.118   3.883   5.942 -0.1419  0.1477 -0.1864
  187SAPI    H421440   0.103   3.983   5.990 -0.7666 -0.2185  0.3881
  187SAPI    O421441   0.071   3.888   5.809 -0.1301 -0.3317 -0.2534
  187SAPI   HO421442  -0.020   3.919   5.813 -0.6954 -1.7264 -1.6438
  187SAPI   C1521443   0.034   3.787   6.033  0.2486  0.1367  0.0872
  187SAPI    H521444   0.059   3.687   5.993 -1.5654  0.5035 -2.0757
  187SAPI    O521445  -0.109   3.804   6.016  0.2831 -0.2611  0.0134
  187SAPI   HO521446  -0.138   3.742   6.084  2.5526 -1.0400  0.3100
  187SAPI   C1621447   0.084   3.791   6.182 -0.5165 -0.0772 -0.2020
  187SAPI    H621448   0.075   3.892   6.227  0.0627  0.5029 -1.3760
  187SAPI    O621449  -0.008   3.708   6.260 -0.0471  0.6411  0.1185
  187SAPI   HO621450  -0.015   3.750   6.347 -2.0959  0.7514 -0.0883
  187SAPI   C1121451   0.224   3.731   6.183  0.6298  0.1987 -0.1512
  187SAPI    H121452   0.222   3.631   6.136  2.6168 -1.2166  2.6532
  187SAPI     P21453   0.379   3.619   6.365 -0.0786 -0.3063  0.8379
  187SAPI   O1321454   0.445   3.666   6.489 -0.1916 -0.2549  0.1233
  187SAPI   O1421455   0.466   3.590   6.245  0.5886 -0.1732 -0.2011
  187SAPI   O1221456   0.266   3.731   6.326  0.2249 -0.2975 -0.0194
  187SAPI   O1121457   0.297   3.489   6.399 -0.2390 -0.0242 -0.0144
  187SAPI    C121458   0.191   3.496   6.509  0.3400 -0.0123  0.3842
  187SAPI    HA21459   0.151   3.598   6.526  2.2344  0.5243  1.7887
  187SAPI    HB21460   0.100   3.445   6.471  0.7390 -0.0523 -0.5536
  187SAPI    C221461   0.232   3.430   6.650  0.0132 -1.1235  0.8761
  187SAPI    HS21462   0.142   3.426   6.716 -1.8475 -2.9619 -1.6944
  187SAPI   O2121463   0.350   3.491   6.711  0.0099 -0.2265 -0.2098
  187SAPI   C2121464   0.318   3.610   6.763 -0.1414 -0.4155  0.4167
  187SAPI   O2221465   0.213   3.666   6.751 -0.1803  0.4356 -0.1766
  187SAPI   C2221466   0.442   3.664   6.828  0.3733 -0.3176  0.1588
  187SAPI   H2R21467   0.510   3.587   6.871  0.6556 -0.5869 -0.7645
  187SAPI   H2S21468   0.501   3.719   6.751  0.3732  1.3319  1.2978
  187SAPI    C321469   0.267   3.280   6.625 -0.1204 -0.1903  0.1566
  187SAPI    HX21470   0.335   3.261   6.539 -1.3669 -2.1102 -0.4560
  187SAPI    HY21471   0.166   3.243   6.596 -0.1291  0.5070 -0.7115
  187SAPI   O3121472   0.305   3.219   6.755 -0.0852 -0.4608 -0.8421
  187SAPI   C3121473   0.431   3.189   6.758  0.2636  0.0737 -0.2313
  187SAPI   O3221474   0.513   3.217   6.671 -0.0219 -0.7190 -0.3640
  187SAPI   C3221475   0.467   3.112   6.887 -0.5259 -0.3771 -0.1599
  187SAPI   H2X21476   0.578   3.105   6.892 -0.4591  1.3106  1.3492
  187SAPI   H2Y21477   0.446   3.004   6.870  0.6155 -0.5940 -0.2491
  187SAPI   C2321478   0.399   3.762   6.948 -0.3293  0.1662 -0.1175
  187SAPI   H3R21479   0.366   3.703   7.036 -1.7691  0.7550 -0.2325
  187SAPI   H3S21480   0.309   3.821   6.918 -2.2400 -2.2124  0.7379
  187SAPI   C2421481   0.509   3.867   6.978 -0.3316 -0.0545 -0.6249
  187SAPI   H4R21482   0.520   3.940   6.895 -0.1028  2.1838  1.3454
  187SAPI   H4S21483   0.603   3.810   6.991  0.3641  0.9475 -1.2259
  187SAPI   C2521484   0.491   3.951   7.102 -0.8435 -0.4291 -0.3673
  187SAPI   H5R21485   0.455   4.054   7.088 -1.7744 -0.6180  0.5886
  187SAPI   C2621486   0.535   3.925   7.227  1.0516  0.3104  0.0603
  187SAPI   H6R21487   0.513   3.996   7.308  0.7551 -0.0081  0.2558
  187SAPI   C2721488   0.609   3.802   7.273  0.4214  0.1259  0.0533
  187SAPI   H7R21489   0.643   3.742   7.186 -2.2909 -2.3119  0.5842
  187SAPI   H7S21490   0.530   3.745   7.327 -0.0339  0.9104  0.2207
  187SAPI   C2821491   0.731   3.833   7.360  0.2948  0.2554 -0.7530
  187SAPI   H8R21492   0.801   3.892   7.300 -0.1999  0.7139 -0.8842
  187SAPI   C2921493   0.757   3.811   7.494  0.2532 -0.2434 -0.4008
  187SAPI   H9R21494   0.847   3.850   7.543 -1.0261  1.6758  0.5056
  187SAPI  C21021495   0.669   3.745   7.598  0.4404 -0.6694 -0.0155
  187SAPI  H10R21496   0.695   3.637   7.604  0.3581 -0.7696 -1.4041
  187SAPI  H10S21497   0.563   3.759   7.569  0.5659 -0.0110 -0.1631
  187SAPI  C21121498   0.681   3.811   7.737 -0.2159  0.0936 -0.6076
  187SAPI  H11R21499   0.780   3.809   7.783 -0.0802 -0.1696 -0.9054
  187SAPI  C21221500   0.576   3.861   7.811  0.4375  0.4230 -1.0995
  187SAPI  H12R21501   0.605   3.932   7.889  1.4125 -1.4374  0.2578
  187SAPI  C21321502   0.430   3.863   7.769 -0.5158  0.1943  0.5215
  187SAPI  H13R21503   0.366   3.905   7.850 -2.4535 -1.3939 -0.1522
  187SAPI  H13S21504   0.386   3.761   7.760 -0.5066  0.2956 -0.8520
  187SAPI  C21421505   0.404   3.951   7.650  0.2212 -0.3771 -0.9492
  187SAPI  H14R21506   0.482   4.028   7.646  1.4966 -1.5912 -0.2754
  187SAPI  C21521507   0.298   3.937   7.566 -0.2154  0.1024  0.8441
  187SAPI  H15R21508   0.298   4.007   7.481 -1.2572 -1.5141 -0.5081
  187SAPI  C21621509   0.199   3.828   7.571 -0.4135  0.0517  0.5488
  187SAPI  H16R21510   0.144   3.825   7.667 -2.1418  0.0369 -0.4364
  187SAPI  H16S21511   0.232   3.723   7.552 -1.2344  0.1406 -1.4636
  187SAPI  C21721512   0.094   3.862   7.465 -0.7300 -0.2446 -0.0428
  187SAPI  H17R21513   0.053   3.965   7.470 -0.0310 -0.0411  1.9163
  187SAPI  H17S21514   0.004   3.800   7.481 -0.5280 -1.0945 -1.9970
  187SAPI  C21821515   0.146   3.848   7.323  1.1611 -0.4498  0.1751
  187SAPI  H18R21516   0.199   3.750   7.324  1.0425 -0.5225 -0.5740
  187SAPI  H18S21517   0.225   3.918   7.291  0.6291  0.4922  0.8887
  187SAPI  C21921518   0.034   3.840   7.221 -0.5187  0.3542  1.2796
  187SAPI  H19R21519  -0.010   3.942   7.215  2.0849  1.3876 -1.7235
  187SAPI  H19S21520  -0.037   3.768   7.269  0.2128 -0.2371  1.4815
  187SAPI  C22021521   0.076   3.799   7.085  0.0415  0.0730 -0.5265
  187SAPI  H20R21522   0.144   3.878   7.047 -0.5170  1.0825  0.5429
  187SAPI  H20S21523  -0.016   3.774   7.027 -0.6224  1.6637 -0.1987
  187SAPI  H20T21524   0.137   3.708   7.099  0.5375  0.4555 -0.1837
  187SAPI   C3321525   0.410   3.159   7.025 -0.3010 -0.3070 -0.1662
  187SAPI   H3X21526   0.421   3.085   7.107  1.6391 -1.4371 -1.3721
  187SAPI   H3Y21527   0.300   3.173   7.026 -0.5383 -1.8784 -1.5448
  187SAPI   C3421528   0.485   3.285   7.080  0.0740 -0.1229 -1.5067
  187SAPI   H4X21529   0.460   3.368   7.011  0.5757  2.7022  1.5610
  187SAPI   H4Y21530   0.593   3.260   7.071  0.0293 -1.0541  0.2444
  187SAPI   C3521531   0.444   3.317   7.228  0.3665 -0.4452 -0.0319
  187SAPI   H5X21532   0.507   3.261   7.300  0.3851  1.1622  1.2423
  187SAPI   H5Y21533   0.340   3.278   7.231  0.2718 -0.1066  3.8516
  187SAPI   C3621534   0.445   3.462   7.262 -0.1362 -0.0868 -0.1762
  187SAPI   H6X21535   0.398   3.518   7.179  0.9054  1.0404 -0.0236
  187SAPI   H6Y21536   0.553   3.488   7.265 -0.1338  0.0537 -1.3639
  187SAPI   C3721537   0.388   3.493   7.403  0.0887  0.2589  0.7798
  187SAPI   H7X21538   0.294   3.436   7.422  1.2978 -1.9277  0.4274
  187SAPI   H7Y21539   0.367   3.602   7.405  0.8125  0.4519 -1.0126
  187SAPI   C3821540   0.479   3.445   7.517 -0.5562  0.1631  0.3372
  187SAPI   H8X21541   0.576   3.496   7.505 -0.6102  0.3883  0.8566
  187SAPI   H8Y21542   0.491   3.335   7.517 -0.5418  0.1590  2.0497
  187SAPI   C3921543   0.414   3.468   7.654 -0.0142 -0.2334  0.1458
  187SAPI   H9X21544   0.316   3.416   7.654 -0.0409 -0.1887 -0.2236
  187SAPI   H9Y21545   0.401   3.577   7.671 -2.5982 -0.3839 -0.6436
  187SAPI  C31021546   0.499   3.421   7.766 -0.3985  0.4500  0.3797
  187SAPI  H10X21547   0.597   3.473   7.765  1.2096 -2.5061 -1.8827
  187SAPI  H10Y21548   0.509   3.311   7.753 -0.2747  0.7861 -2.5656
  187SAPI  C31121549   0.445   3.439   7.907 -0.9646  0.0095  0.3071
  187SAPI  H11X21550   0.341   3.405   7.926 -0.9525  0.9915  2.2464
  187SAPI  H11Y21551   0.455   3.545   7.939 -2.6992  0.1071  0.5431
  187SAPI  C31221552   0.525   3.351   8.000  0.6514  0.6387  0.3716
  187SAPI  H12X21553   0.632   3.382   8.007  0.4695  1.1302  0.9628
  187SAPI  H12Y21554   0.513   3.245   7.966  1.0459 -0.2144  2.7891
  187SAPI  C31321555   0.480   3.354   8.148  0.5694  0.3037 -1.0399
  187SAPI  H13X21556   0.539   3.271   8.191 -0.4986 -0.2655 -0.6509
  187SAPI  H13Y21557   0.374   3.322   8.150  0.5809  0.1759 -2.2113
  187SAPI  C31421558   0.493   3.483   8.227 -0.0246  0.7574 -0.2087
  187SAPI  H14X21559   0.408   3.551   8.204 -1.7680 -1.2672  0.1481
  187SAPI  H14Y21560   0.587   3.532   8.192  0.4023 -0.9397 -1.4901
  187SAPI  C31521561   0.508   3.461   8.380 -0.0681  0.5181 -0.3293
  187SAPI  H15X21562   0.559   3.364   8.395 -2.0763 -0.4777  0.2299
  187SAPI  H15Y21563   0.410   3.448   8.431 -0.1243  0.5526 -0.4308
  187SAPI  C31621564   0.577   3.575   8.453 -0.1694 -0.2873  0.9742
  187SAPI  H16X21565   0.506   3.660   8.452  0.9626  0.7123  2.5080
  187SAPI  H16Y21566   0.671   3.593   8.396  0.3708 -0.9570  1.6295
  187SAPI  C31721567   0.605   3.536   8.602  0.1261  0.4644  0.1170
  187SAPI  H17X21568   0.642   3.431   8.597  1.0667  0.7816  0.4074
  187SAPI  H17Y21569   0.504   3.519   8.646 -1.1371  2.4591 -1.9233
  187SAPI  C31821570   0.681   3.637   8.683 -0.1293 -0.5539  0.0141
  187SAPI  H18X21571   0.635   3.737   8.664 -1.8363 -1.1769  0.7968
  187SAPI  H18Y21572   0.784   3.634   8.641 -0.0046  0.2425  0.2513
  187SAPI  H18Z21573   0.656   3.600   8.785 -2.7632  2.1377  0.4278
  188SAPI   C1221574   2.095   6.702   6.440  0.0169 -1.0884  0.0185
  188SAPI    H221575   2.011   6.699   6.512  0.8201  1.1410  1.0647
  188SAPI    O221576   2.036   6.759   6.323 -0.1458  0.5307  0.1309
  188SAPI   HO221577   1.973   6.692   6.295 -0.5210  0.0277  2.1366
  188SAPI   C1321578   2.206   6.797   6.487  0.1387  0.1131 -0.3592
  188SAPI    H321579   2.255   6.755   6.577 -1.6023 -0.5120  0.3267
  188SAPI    O321580   2.143   6.912   6.543  0.4297  0.0936  0.4195
  188SAPI   HO321581   2.180   6.915   6.631  2.6724 -2.8401 -0.3673
  188SAPI   C1421582   2.313   6.826   6.384  0.5934 -0.0401  0.1224
  188SAPI    H421583   2.258   6.867   6.297  0.1788 -0.8568 -0.0077
  188SAPI    O421584   2.401   6.920   6.433 -0.3103 -0.5011  0.0522
  188SAPI   HO421585   2.353   7.003   6.436 -0.0444 -0.3786  1.1726
  188SAPI   C1521586   2.375   6.695   6.341  0.1855 -0.4612  0.1480
  188SAPI    H521587   2.422   6.654   6.433  1.2524 -1.1173 -0.6688
  188SAPI    O521588   2.481   6.717   6.245  0.1862  0.0246  0.1227
  188SAPI   HO521589   2.440   6.745   6.164 -1.8908 -0.4021  0.9941
  188SAPI   C1621590   2.269   6.590   6.299  0.2829  0.3113  0.1683
  188SAPI    H621591   2.210   6.622   6.211  1.3860 -0.4730 -0.8596
  188SAPI    O621592   2.334   6.471   6.261 -0.3259  0.0249 -0.2322
  188SAPI   HO621593   2.272   6.397   6.266 -1.5052  1.0350  0.4638
  188SAPI   C1121594   2.163   6.567   6.409  0.5467 -0.0615 -0.1464
  188SAPI    H121595   2.211   6.512   6.493  1.2345  1.2889  0.3592
  188SAPI     P21596   2.050   6.322   6.392  0.0983 -0.1040  0.1450
  188SAPI   O1321597   2.175   6.267   6.340 -0.2927  0.2348 -0.3963
  188SAPI   O1421598   1.922   6.268   6.338 -0.0884  0.3938  0.1652
  188SAPI   O1221599   2.053   6.481   6.361 -0.6356  0.9049  0.7275
  188SAPI   O1121600   2.044   6.309   6.553 -0.0212  0.0668  0.8236
  188SAPI    C121601   1.923   6.344   6.618  0.0248 -0.2058  0.2383
  188SAPI    HA21602   1.901   6.452   6.601 -3.7767 -0.8554  0.5591
  188SAPI    HB21603   1.838   6.287   6.576  1.9327 -1.7792 -1.5931
  188SAPI    C221604   1.934   6.311   6.769 -0.0800  1.0431  0.3819
  188SAPI    HS21605   1.837   6.331   6.819 -0.5235  0.2966 -0.1581
  188SAPI   O2121606   2.029   6.394   6.838 -0.5638  0.2263 -0.3904
  188SAPI   C2121607   2.002   6.519   6.855 -0.2331  0.1016 -0.7382
  188SAPI   O2221608   1.898   6.575   6.821 -0.4377 -0.2590  0.1241
  188SAPI   C2221609   2.112   6.579   6.950 -0.2204  0.1625  0.1686
  188SAPI   H2R21610   2.196   6.508   6.966  1.1577  1.6158 -0.4474
  188SAPI   H2S21611   2.152   6.673   6.905  0.7962 -0.9414 -1.2865
  188SAPI    C321612   1.970   6.158   6.785  0.5550 -0.2552 -0.1964
  188SAPI    HX21613   2.067   6.138   6.735  0.4556  0.8413 -0.8503
  188SAPI    HY21614   1.898   6.086   6.740  0.0336  0.0456  0.1396
  188SAPI   O3121615   1.968   6.127   6.927 -0.3744 -0.3403  0.0399
  188SAPI   C3121616   2.089   6.142   6.987  0.7414  0.1530  0.2483
  188SAPI   O3221617   2.193   6.180   6.936  0.3753  0.0689  0.0547
  188SAPI   C3221618   2.067   6.113   7.138  0.5644 -0.1443 -0.0841
  188SAPI   H2X21619   2.165   6.074   7.175  1.9210  0.0849 -3.3287
  188SAPI   H2Y21620   1.989   6.041   7.168 -1.0834  1.5265 -0.2907
  188SAPI   C2321621   2.063   6.620   7.089 -0.2827 -0.4616  0.6754
  188SAPI   H3R21622   2.005   6.534   7.129 -0.4081 -2.6925 -3.9274
  188SAPI   H3S21623   2.002   6.713   7.092  0.2600 -0.1634  3.9188
  188SAPI   C2421624   2.181   6.647   7.185 -0.8924 -0.4834 -0.0922
  188SAPI   H4R21625   2.230   6.552   7.216 -0.4534 -0.6642 -1.3377
  188SAPI   H4S21626   2.133   6.682   7.279 -1.1157  1.7124 -1.0118
  188SAPI   C2521627   2.282   6.752   7.148  0.4770  0.2684 -0.6665
  188SAPI   H5R21628   2.318   6.762   7.045 -0.3010 -1.9369 -1.1587
  188SAPI   C2621629   2.339   6.844   7.235 -0.3113  0.2338 -0.1643
  188SAPI   H6R21630   2.401   6.927   7.198 -0.8205  0.9404  0.5593
  188SAPI   C2721631   2.311   6.862   7.385 -0.4823 -0.6526  0.9148
  188SAPI   H7R21632   2.202   6.869   7.408 -0.6117  1.0586 -0.1193
  188SAPI   H7S21633   2.333   6.970   7.400 -2.3260  0.3660 -2.9387
  188SAPI   C2821634   2.385   6.776   7.480 -0.0244  0.5956 -0.3170
  188SAPI   H8R21635   2.437   6.694   7.430 -1.7640  0.5637 -2.1425
  188SAPI   C2921636   2.371   6.765   7.613 -0.7071  0.1494 -0.1896
  188SAPI   H9R21637   2.431   6.688   7.664  0.6106  0.5908 -1.0412
  188SAPI  C21021638   2.294   6.861   7.705 -1.1724 -0.0442 -0.9276
  188SAPI  H10R21639   2.217   6.808   7.765 -1.8641  1.2477 -0.6666
  188SAPI  H10S21640   2.250   6.946   7.649  0.1613  1.0737 -0.3094
  188SAPI  C21121641   2.391   6.919   7.807 -0.2327 -0.6192  0.3717
  188SAPI  H11R21642   2.428   7.017   7.775 -2.4607  0.5716  1.3533
  188SAPI  C21221643   2.431   6.866   7.924 -0.2730 -0.5870  0.5100
  188SAPI  H12R21644   2.511   6.912   7.983 -0.8680  1.9244 -0.5713
  188SAPI  C21321645   2.391   6.738   7.979  0.1062  0.0158  0.9104
  188SAPI  H13R21646   2.283   6.725   7.956  0.3691 -0.2047 -0.1941
  188SAPI  H13S21647   2.391   6.743   8.090 -0.7337 -0.3715  0.9379
  188SAPI  C21421648   2.469   6.617   7.952 -0.3920  0.3321  0.0901
  188SAPI  H14R21649   2.420   6.548   7.882 -1.8391  0.6359  0.7814
  188SAPI  C21521650   2.586   6.590   8.019 -0.1092  0.0378  0.8580
  188SAPI  H15R21651   2.641   6.495   8.003 -0.2914 -0.3470  2.4946
  188SAPI  C21621652   2.655   6.678   8.119 -0.5630  0.0269  0.2276
  188SAPI  H16R21653   2.614   6.780   8.125 -2.1110 -0.6607  1.5385
  188SAPI  H16S21654   2.761   6.689   8.086 -0.4891  2.5253  1.2234
  188SAPI  C21721655   2.646   6.618   8.262 -0.3291  0.2790 -0.5067
  188SAPI  H17R21656   2.678   6.512   8.253 -0.0298  0.4597 -1.5863
  188SAPI  H17S21657   2.538   6.625   8.289 -0.2966  3.0738 -0.9416
  188SAPI  C21821658   2.717   6.702   8.368 -0.1268 -0.6337 -0.6021
  188SAPI  H18R21659   2.822   6.709   8.331 -0.0779  3.0603 -0.0147
  188SAPI  H18S21660   2.699   6.651   8.465  4.0487  0.1547  0.7079
  188SAPI  C21921661   2.667   6.848   8.394  0.2224 -0.0809 -0.1652
  188SAPI  H19R21662   2.570   6.834   8.446  0.4196  2.1261  0.8407
  188SAPI  H19S21663   2.651   6.885   8.291  2.1577 -1.4834 -1.0081
  188SAPI  C22021664   2.760   6.939   8.483 -0.1409 -0.1054  0.0868
  188SAPI  H20R21665   2.712   7.039   8.476 -0.8512 -0.6252 -3.0517
  188SAPI  H20S21666   2.862   6.952   8.440 -0.2404  1.8422  0.3846
  188SAPI  H20T21667   2.773   6.898   8.586  1.9290  0.6225  0.1467
  188SAPI   C3321668   2.049   6.245   7.217 -0.0468  1.2937 -0.3376
  188SAPI   H3X21669   1.986   6.320   7.165  2.0475  0.4936 -4.1322
  188SAPI   H3Y21670   2.147   6.296   7.227  0.9014 -0.6999  0.8849
  188SAPI   C3421671   2.001   6.222   7.360  0.1250 -0.4838 -0.3139
  188SAPI   H4X21672   2.061   6.146   7.416 -1.0289 -0.2179  1.3194
  188SAPI   H4Y21673   1.900   6.176   7.357 -0.4760  0.7942  0.1665
  188SAPI   C3521674   1.972   6.350   7.439 -0.0856  0.0039  0.1985
  188SAPI   H5X21675   1.900   6.320   7.518 -1.0138  2.1169  0.1847
  188SAPI   H5Y21676   1.925   6.428   7.376 -0.9317  0.4240  1.3389
  188SAPI   C3621677   2.105   6.402   7.501  0.2302 -0.5979 -0.0974
  188SAPI   H6X21678   2.161   6.438   7.412 -1.2650  0.3094 -0.6769
  188SAPI   H6Y21679   2.162   6.325   7.558 -1.5231 -1.0686  1.0452
  188SAPI   C3721680   2.080   6.517   7.596 -0.4961  0.4504  0.6156
  188SAPI   H7X21681   1.988   6.569   7.560 -0.2114 -0.5391 -1.5804
  188SAPI   H7Y21682   2.170   6.582   7.594  1.0069 -1.6579 -1.1343
  188SAPI   C3821683   2.071   6.463   7.739 -0.4668 -0.7859  0.8909
  188SAPI   H8X21684   2.164   6.410   7.768  1.0434  0.8677 -0.7654
  188SAPI   H8Y21685   1.998   6.380   7.728  0.1613 -1.0628 -1.4649
  188SAPI   C3921686   2.035   6.570   7.843  0.4513 -0.2788  0.0716
  188SAPI   H9X21687   1.961   6.641   7.801  0.7439  0.1188  0.2314
  188SAPI   H9Y21688   2.122   6.636   7.863  1.1588 -2.0254  3.0335
  188SAPI  C31021689   1.978   6.506   7.973 -0.0748 -0.3582 -0.2187
  188SAPI  H10X21690   2.045   6.421   8.000 -1.9204 -1.6565  0.4009
  188SAPI  H10Y21691   1.882   6.455   7.950  0.0104 -0.6135 -0.0178
  188SAPI  C31121692   1.946   6.604   8.088  0.2968  0.6281  0.3704
  188SAPI  H11X21693   1.854   6.663   8.065  0.1757 -0.4290 -1.9575
  188SAPI  H11Y21694   2.035   6.670   8.099  0.6925 -0.2358  2.7638
  188SAPI  C31221695   1.943   6.530   8.222  1.0356  0.5687  0.0818
  188SAPI  H12X21696   2.037   6.470   8.228  0.4301 -0.5400 -1.3987
  188SAPI  H12Y21697   1.854   6.464   8.221  0.9968  0.5092  2.6283
  188SAPI  C31321698   1.948   6.619   8.349  0.0551  0.2743 -0.1267
  188SAPI  H13X21699   1.928   6.566   8.444  1.5564  1.0424  0.6379
  188SAPI  H13Y21700   1.859   6.683   8.329  0.5883  1.2644  0.6114
  188SAPI  C31421701   2.067   6.716   8.343  0.5945  0.0164 -0.2310
  188SAPI  H14X21702   2.057   6.794   8.264  0.4751  0.1312 -0.1011
  188SAPI  H14Y21703   2.163   6.661   8.332  0.3933 -0.2847 -0.4778
  188SAPI  C31521704   2.071   6.794   8.473 -0.7799 -0.1521  0.6309
  188SAPI  H15X21705   2.092   6.729   8.560  0.6130  0.6877  0.9341
  188SAPI  H15Y21706   1.974   6.847   8.490 -0.9358 -0.2921  0.1842
  188SAPI  C31621707   2.191   6.900   8.483 -0.0839 -0.8179 -0.9295
  188SAPI  H16X21708   2.203   6.969   8.397 -1.3907  1.2055  0.4759
  188SAPI  H16Y21709   2.286   6.842   8.488  1.3165  1.5688  2.5796
  188SAPI  C31721710   2.177   6.992   8.614  0.6311  0.5562 -0.5742
  188SAPI  H17X21711   2.158   6.927   8.702 -0.0858  0.2277 -0.9624
  188SAPI  H17Y21712   2.080   7.045   8.602  1.3828  2.4926  1.6815
  188SAPI  C31821713   2.287   7.096   8.631  0.2367  0.3609  0.3885
  188SAPI  H18X21714   2.299   7.142   8.531 -2.1614 -0.9694 -0.5443
  188SAPI  H18Y21715   2.385   7.049   8.651 -0.5612 -1.6265 -0.2783
  188SAPI  H18Z21716   2.262   7.173   8.708 -0.5014 -1.0442  1.5758
  189POPC     N21717   1.249   1.297  11.010 -0.2607 -0.2659  0.4808
  189POPC   C1221718   1.344   1.365  10.916  0.2433 -0.0498  0.7892
  189POPC  H12A21719   1.350   1.472  10.931 -0.0935 -0.2918  2.7846
  189POPC  H12B21720   1.288   1.351  10.825 -0.6149 -0.5728  1.3790
  189POPC   C1321721   1.284   1.336  11.151  0.2055  0.6669  1.2665
  189POPC  H13A21722   1.313   1.438  11.172 -1.6631  1.0011  2.3546
  189POPC  H13B21723   1.196   1.313  11.210 -0.4847 -1.2496 -0.4533
  189POPC  H13C21724   1.361   1.270  11.190 -0.2758 -0.7617 -0.1396
  189POPC   C1421725   1.116   1.356  10.978  0.0995 -0.4050  0.4872
  189POPC  H14A21726   1.101   1.316  10.879  0.0530 -3.4458  1.6583
  189POPC  H14B21727   1.043   1.321  11.049  2.2482 -1.4443  2.2633
  189POPC  H14C21728   1.120   1.463  10.975  1.1400 -0.4187  1.0665
  189POPC   C1521729   1.239   1.146  11.002 -0.4689 -0.6896  0.4206
  189POPC  H15A21730   1.168   1.107  11.073 -1.4484 -2.0985 -1.2797
  189POPC  H15B21731   1.334   1.100  11.025 -0.3185 -0.4945  0.1938
  189POPC  H15C21732   1.219   1.114  10.901 -0.8249  1.7433 -0.2909
  189POPC   C1121733   1.477   1.293  10.889  0.0200  0.4295  0.2798
  189POPC  H11A21734   1.529   1.343  10.805  0.4411 -2.5805 -1.3188
  189POPC  H11B21735   1.448   1.195  10.846 -0.6978  0.6414  0.2732
  189POPC     P21736   1.623   1.146  11.054  0.0899 -0.2817  0.0189
  189POPC   O1321737   1.521   1.052  11.108 -0.3479 -0.1386 -0.8114
  189POPC   O1421738   1.742   1.180  11.135 -0.0097  0.3131 -0.3325
  189POPC   O1221739   1.561   1.281  11.006  0.4693 -0.3164  0.0062
  189POPC   O1121740   1.676   1.088  10.910 -0.1650 -0.2684  1.0159
  189POPC    C121741   1.795   1.138  10.848  0.0352  0.2514  0.1107
  189POPC    HA21742   1.883   1.077  10.878 -0.2299 -0.2463 -0.1114
  189POPC    HB21743   1.816   1.247  10.862 -0.9476  0.4342  0.1477
  189POPC    C221744   1.795   1.117  10.690  0.2674 -0.3465 -0.6649
  189POPC    HS21745   1.737   1.199  10.643 -0.4100  0.1691  1.0678
  189POPC   O2121746   1.738   0.994  10.655 -0.7924  0.5603 -0.7288
  189POPC   C2121747   1.613   0.990  10.626 -0.6120  0.5553  0.3907
  189POPC   O2221748   1.533   1.084  10.622 -0.5619  0.7311 -0.8572
  189POPC   C2221749   1.581   0.846  10.600  0.0453 -0.3008 -0.4484
  189POPC   H2R21750   1.519   0.805  10.683  2.0949 -0.4888  1.0233
  189POPC   H2S21751   1.670   0.780  10.591 -0.2355 -0.7582  0.0533
  189POPC    C321752   1.941   1.132  10.639  0.9055 -0.2552 -0.6847
  189POPC    HX21753   2.016   1.066  10.687  2.6731  0.5626 -2.2462
  189POPC    HY21754   1.942   1.237  10.675 -0.2971 -0.4022 -0.1982
  189POPC   O3121755   1.951   1.149  10.494 -0.7685  0.6366  0.2497
  189POPC   C3121756   2.028   1.063  10.431 -0.3609  0.2826 -1.0439
  189POPC   O3221757   2.101   0.978  10.484 -0.1297  0.1616  0.0398
  189POPC   C3221758   2.008   1.079  10.285  0.3326 -0.3164 -0.6245
  189POPC   H2X21759   2.056   1.175  10.259  0.0081  0.4847  1.6203
  189POPC   H2Y21760   1.900   1.078  10.260  0.7243 -1.6216 -2.3685
  189POPC   C2321761   1.486   0.831  10.473  0.3067 -0.0123  0.1070
  189POPC   H3R21762   1.389   0.881  10.490  0.2890  0.1552 -0.4800
  189POPC   H3S21763   1.470   0.722  10.453 -0.9637 -0.1010  1.5428
  189POPC   C2421764   1.557   0.888  10.355  0.0768  0.0969  0.4517
  189POPC   H4R21765   1.649   0.827  10.349 -0.2443 -0.3011 -0.4633
  189POPC   H4S21766   1.582   0.996  10.361  0.2722  0.0811 -0.0479
  189POPC   C2521767   1.471   0.860  10.230 -0.7698  0.2225 -0.3608
  189POPC   H5R21768   1.369   0.902  10.243 -0.8393  0.1588 -0.7045
  189POPC   H5S21769   1.450   0.751  10.237  0.2584 -0.1234 -2.3220
  189POPC   C2621770   1.532   0.873  10.093 -0.0539  0.6352 -0.0497
  189POPC   H6R21771   1.548   0.978  10.062  0.7298  1.0804  1.8195
  189POPC   H6S21772   1.462   0.833  10.017  0.2670  1.2104 -0.6508
  189POPC   C2721773   1.655   0.784  10.079 -0.4809 -0.3154 -0.4314
  189POPC   H7R21774   1.620   0.680  10.096  0.9070 -0.6441  0.5304
  189POPC   H7S21775   1.741   0.800  10.148  0.3526 -0.8399 -1.3356
  189POPC   C2821776   1.723   0.791   9.938  0.0519  0.3093  0.4034
  189POPC   H8R21777   1.816   0.731   9.943  0.2270  0.5222 -0.2915
  189POPC   H8S21778   1.764   0.893   9.921  1.2537 -0.4563 -1.4562
  189POPC   C2921779   1.634   0.749   9.829 -0.9431 -0.0435  0.4124
  189POPC   H9121780   1.606   0.644   9.846  2.2956 -0.7516  1.7770
  189POPC  C21021781   1.604   0.823   9.715 -0.0249  0.2225 -0.4468
  189POPC  H10121782   1.548   0.769   9.637  1.3305 -0.7080 -0.7695
  189POPC  C21121783   1.648   0.959   9.675 -0.0358 -0.6535  0.0502
  189POPC  H11R21784   1.739   0.987   9.732 -1.1702 -1.4607  2.3145
  189POPC  H11S21785   1.564   1.022   9.712  0.1351 -0.8505  0.7837
  189POPC  C21221786   1.672   0.982   9.525  0.0632  0.9640 -0.0913
  189POPC  H12R21787   1.743   0.901   9.497 -1.0327 -0.3488  0.9100
  189POPC  H12S21788   1.739   1.070   9.515 -0.5130  1.2287 -1.7736
  189POPC  C21321789   1.555   0.978   9.431 -0.1181  0.6158  0.1670
  189POPC  H13R21790   1.506   1.076   9.444 -0.7332  0.4419 -0.8099
  189POPC  H13S21791   1.482   0.901   9.463 -1.1516  0.9370 -1.3981
  189POPC  C21421792   1.591   0.938   9.284  1.0536  0.4103 -0.6991
  189POPC  H14R21793   1.493   0.903   9.245  0.7025  1.0213 -0.3719
  189POPC  H14S21794   1.637   0.837   9.291  0.2732  0.0229 -1.1241
  189POPC  C21521795   1.677   1.033   9.204  0.0803 -0.6149 -0.0718
  189POPC  H15R21796   1.762   1.080   9.257  0.4656 -2.6045  1.1238
  189POPC  H15S21797   1.613   1.119   9.175  1.7682 -0.3770 -3.3196
  189POPC  C21621798   1.712   0.967   9.071 -0.6592 -1.5316  0.1019
  189POPC  H16R21799   1.621   0.927   9.022 -1.8664 -0.0335  1.1032
  189POPC  H16S21800   1.766   0.871   9.086  0.1043 -1.3117 -1.1539
  189POPC  C21721801   1.792   1.059   8.977  0.1142  0.1742 -0.4523
  189POPC  H17R21802   1.895   1.070   9.017  0.1357  1.7091 -0.8621
  189POPC  H17S21803   1.748   1.161   8.986 -1.5190 -0.3403 -2.3716
  189POPC  C21821804   1.810   1.009   8.839  0.5506  0.3220  0.1351
  189POPC  H18R21805   1.876   0.920   8.835 -0.4563 -0.3701 -3.0593
  189POPC  H18S21806   1.863   1.081   8.772  0.2807 -0.2685 -0.7332
  189POPC  H18T21807   1.708   0.988   8.799  0.4607 -0.9149  0.9702
  189POPC   C3321808   2.053   0.956  10.204  0.3073 -0.3454 -0.0929
  189POPC   H3X21809   2.010   0.866  10.252  0.4971 -0.5937 -0.3902
  189POPC   H3Y21810   2.161   0.947  10.227  0.3963  1.3081  0.2441
  189POPC   C3421811   2.013   0.978  10.058 -0.7574 -0.1069  0.4401
  189POPC   H4X21812   2.062   1.077  10.043 -1.0258 -0.0118  0.1882
  189POPC   H4Y21813   1.906   1.001  10.040 -0.6032 -0.8252 -1.5738
  189POPC   C3521814   2.065   0.874   9.962 -0.1878 -1.0832 -0.3035
  189POPC   H5X21815   2.017   0.775   9.978 -1.2588 -0.5553 -0.2426
  189POPC   H5Y21816   2.176   0.869   9.970 -0.2779 -2.1087  0.3802
  189POPC   C3621817   2.055   0.924   9.818  0.2521 -0.1563  0.3308
  189POPC   H6X21818   2.107   1.022   9.809  1.0416 -0.4437  1.7149
  189POPC   H6Y21819   1.949   0.929   9.783  0.1980 -1.4135  0.2894
  189POPC   C3721820   2.129   0.832   9.717 -0.6311  0.1138  0.5369
  189POPC   H7X21821   2.064   0.742   9.721  0.6942 -0.8762  0.3424
  189POPC   H7Y21822   2.228   0.798   9.755  0.3907  3.1232  0.6889
  189POPC   C3821823   2.146   0.896   9.581 -0.5285 -0.1605  0.2755
  189POPC   H8X21824   2.217   0.982   9.576  1.0499 -1.3822  1.3760
  189POPC   H8Y21825   2.051   0.944   9.548 -0.4721  0.1210  0.5188
  189POPC   C3921826   2.176   0.792   9.471  0.8559 -0.0371 -0.3806
  189POPC   H9X21827   2.098   0.713   9.472 -0.4402  1.1332 -3.2199
  189POPC   H9Y21828   2.270   0.737   9.497 -0.1867 -2.2760 -1.1865
  189POPC  C31021829   2.176   0.848   9.324  0.4449  0.7979  0.2248
  189POPC  H10X21830   2.233   0.942   9.334  1.7289 -0.0964  1.3862
  189POPC  H10Y21831   2.077   0.874   9.279  0.0579  1.8547  1.6595
  189POPC  C31121832   2.261   0.762   9.223 -0.1848 -1.1128 -0.2546
  189POPC  H11X21833   2.229   0.656   9.233 -0.1668 -1.0803  0.1275
  189POPC  H11Y21834   2.370   0.762   9.240  0.0494  0.5432 -1.6774
  189POPC  C31221835   2.238   0.798   9.081 -0.0986 -0.0241 -0.9368
  189POPC  H12X21836   2.246   0.906   9.056 -1.8319  0.5791  1.0282
  189POPC  H12Y21837   2.135   0.771   9.052 -0.0659 -0.6117 -0.5288
  189POPC  C31321838   2.335   0.736   8.986  0.6396  0.7238  0.1381
  189POPC  H13X21839   2.334   0.625   8.986  0.4556  0.7254  0.1874
  189POPC  H13Y21840   2.440   0.756   9.015  0.4885  3.5759 -1.0739
  189POPC  C31421841   2.314   0.787   8.849 -0.1110 -0.1425  0.0930
  189POPC  H14X21842   2.345   0.894   8.859 -0.3876 -0.0798  0.2989
  189POPC  H14Y21843   2.213   0.765   8.810  0.0725  0.8631 -0.9924
  189POPC  C31521844   2.413   0.712   8.758  0.0841 -0.9601 -0.5070
  189POPC  H15X21845   2.392   0.603   8.762 -1.4499 -0.6686 -0.5346
  189POPC  H15Y21846   2.514   0.724   8.803 -0.1281  1.1069 -0.5040
  189POPC  C31621847   2.408   0.753   8.617 -0.0448 -0.0622  0.0624
  189POPC  H16X21848   2.310   0.734   8.569  0.4810  0.0022 -1.0291
  189POPC  H16Y21849   2.482   0.699   8.555  0.6075  1.2325 -0.3074
  189POPC  H16Z21850   2.431   0.860   8.597 -1.4806 -0.1242 -2.1130
  190POPC     N21851   4.538   4.461  10.995 -0.4373  0.1628  0.2146
  190POPC   C1221852   4.410   4.489  10.920 -0.5281  0.0770 -0.1568
  190POPC  H12A21853   4.387   4.398  10.868  1.8491 -1.1045  0.7729
  190POPC  H12B21854   4.430   4.568  10.849 -2.1336  0.8611  0.2325
  190POPC   C1321855   4.525   4.337  11.072 -0.3446  0.1074 -0.6954
  190POPC  H13A21856   4.535   4.254  11.004  1.2959 -1.9710  2.0044
  190POPC  H13B21857   4.608   4.333  11.142 -0.5669 -0.3924 -0.4582
  190POPC  H13C21858   4.431   4.325  11.124  0.9476  0.3832  1.8023
  190POPC   C1421859   4.658   4.441  10.900  0.6697  0.2352 -0.1205
  190POPC  H14A21860   4.749   4.413  10.952  0.7112 -2.3379 -1.4781
  190POPC  H14B21861   4.641   4.367  10.823 -0.1068 -0.0685  0.3334
  190POPC  H14C21862   4.683   4.536  10.856 -0.0615  0.7317  0.5300
  190POPC   C1521863   4.569   4.571  11.090  0.1023 -0.4722 -0.1841
  190POPC  H15A21864   4.567   4.670  11.048 -2.5638  0.5179  2.1349
  190POPC  H15B21865   4.667   4.547  11.127 -0.6938 -1.1045  1.5615
  190POPC  H15C21866   4.497   4.580  11.169  0.6168 -2.0795  0.4956
  190POPC   C1121867   4.276   4.519  10.993 -0.1684 -0.3894 -0.1112
  190POPC  H11A21868   4.202   4.522  10.911  1.9459  0.0328 -2.0449
  190POPC  H11B21869   4.284   4.621  11.036  0.1557 -0.1696 -0.6940
  190POPC     P21870   4.107   4.364  11.126  0.6541 -0.0218 -0.9666
  190POPC   O1321871   4.018   4.463  11.194  0.3614  0.3744  0.4743
  190POPC   O1421872   4.129   4.233  11.191 -0.3381 -0.8642 -0.0714
  190POPC   O1221873   4.241   4.433  11.105  0.0081  0.2491 -0.0604
  190POPC   O1121874   4.043   4.346  10.986  0.4526 -0.7667 -0.1160
  190POPC    C121875   4.022   4.215  10.925 -0.5042 -0.8036  1.1533
  190POPC    HA21876   3.913   4.193  10.918 -0.8956  1.6358 -1.1712
  190POPC    HB21877   4.076   4.135  10.981  0.3063  0.1570  1.7590
  190POPC    C221878   4.088   4.213  10.782 -0.1827  0.6165 -0.4553
  190POPC    HS21879   4.196   4.228  10.800 -0.4025  1.1123  0.4838
  190POPC   O2121880   4.041   4.320  10.695  0.2539  0.2417  0.1805
  190POPC   C2121881   4.128   4.404  10.649  0.6637 -0.3174 -0.7890
  190POPC   O2221882   4.244   4.412  10.688  0.5004  0.4790  0.2609
  190POPC   C2221883   4.082   4.464  10.527 -0.5515 -0.1116  0.2552
  190POPC   H2R21884   3.995   4.516  10.573  0.1396  0.3412  1.0580
  190POPC   H2S21885   4.049   4.387  10.455 -2.2049  0.4843  0.3504
  190POPC    C321886   4.074   4.073  10.710  0.2991  0.6156  0.3631
  190POPC    HX21887   3.968   4.039  10.708  0.0989  1.1677  1.2871
  190POPC    HY21888   4.131   3.998  10.770 -0.6561 -1.0710 -0.7961
  190POPC   O3121889   4.126   4.082  10.574 -0.8574 -0.0481 -0.2678
  190POPC   C3121890   4.176   3.972  10.527  0.4982  0.1220 -0.1250
  190POPC   O3221891   4.160   3.862  10.579 -0.5226 -0.4319 -0.1456
  190POPC   C3221892   4.232   3.997  10.390  0.0370 -0.7581 -0.4481
  190POPC   H2X21893   4.269   3.902  10.347 -3.5597 -2.3498 -0.2194
  190POPC   H2Y21894   4.314   4.069  10.412 -0.2369  0.1515 -2.2606
  190POPC   C2321895   4.168   4.568  10.465  0.3625  0.6647  0.9703
  190POPC   H3R21896   4.259   4.520  10.424 -0.8243 -2.8708  2.3429
  190POPC   H3S21897   4.213   4.637  10.540  3.5056  1.1501 -1.2410
  190POPC   C2421898   4.098   4.659  10.367  0.8257 -0.0186  0.1900
  190POPC   H4R21899   4.167   4.721  10.307  2.1341 -1.6729 -0.0565
  190POPC   H4S21900   4.039   4.741  10.414 -0.5940 -0.6652 -0.4222
  190POPC   C2521901   4.010   4.582  10.272 -0.0296  0.2309  0.3283
  190POPC   H5R21902   3.930   4.534  10.332  0.7723  1.2082  2.2394
  190POPC   H5S21903   4.072   4.497  10.237 -0.0434 -0.2732  1.5164
  190POPC   C2621904   3.958   4.669  10.158  0.2459 -0.5374 -0.3784
  190POPC   H6R21905   4.039   4.710  10.093  1.3873 -1.2887  0.5588
  190POPC   H6S21906   3.911   4.757  10.207  1.0962  0.0178 -0.5306
  190POPC   C2721907   3.866   4.591  10.072 -0.2228  0.4556  1.0081
  190POPC   H7R21908   3.770   4.568  10.123 -1.2603 -0.1464 -1.1903
  190POPC   H7S21909   3.922   4.496  10.056  2.2728  2.3916 -2.6327
  190POPC   C2821910   3.833   4.639   9.937  0.2548  0.3600  0.3614
  190POPC   H8R21911   3.802   4.558   9.867 -0.5429  0.8807  0.1036
  190POPC   H8S21912   3.923   4.686   9.891  0.3086  0.6863  0.7964
  190POPC   C2921913   3.725   4.741   9.940 -0.3654 -0.2181 -0.2319
  190POPC   H9121914   3.681   4.757  10.040  2.3076 -0.7889  1.1064
  190POPC  C21021915   3.684   4.810   9.830 -1.2813 -0.0004  0.4267
  190POPC  H10121916   3.602   4.882   9.822 -1.5608 -0.4766 -1.2741
  190POPC  C21121917   3.744   4.790   9.689 -0.5020 -0.3457 -0.3584
  190POPC  H11R21918   3.693   4.709   9.632 -1.5180 -1.5340  2.1907
  190POPC  H11S21919   3.851   4.762   9.696  0.0420  1.7300 -0.1168
  190POPC  C21221920   3.737   4.924   9.617 -0.7058  0.0404 -0.0948
  190POPC  H12R21921   3.786   4.899   9.520  0.7905  0.0007  0.6660
  190POPC  H12S21922   3.799   5.004   9.661  2.0765 -1.8909 -0.3221
  190POPC  C21321923   3.594   4.978   9.590  0.3089  0.0395  0.1534
  190POPC  H13R21924   3.535   5.022   9.673 -0.2088 -0.0248 -0.1741
  190POPC  H13S21925   3.531   4.895   9.552  0.7493 -0.4911  0.5785
  190POPC  C21421926   3.586   5.096   9.496  0.4664 -0.0923 -0.2384
  190POPC  H14R21927   3.659   5.163   9.548 -3.1350  1.3793  3.2273
  190POPC  H14S21928   3.483   5.137   9.485  0.3777 -0.7145 -1.7292
  190POPC  C21521929   3.639   5.065   9.359 -0.0691 -0.0595 -0.6147
  190POPC  H15R21930   3.585   4.970   9.337 -1.9541  0.7605  0.3030
  190POPC  H15S21931   3.748   5.051   9.369 -0.2240 -0.5692  0.3757
  190POPC  C21621932   3.599   5.172   9.257 -0.4193 -0.3264  0.1265
  190POPC  H16R21933   3.635   5.272   9.288  1.7218 -1.1779  0.4805
  190POPC  H16S21934   3.489   5.183   9.251 -0.0408  3.3076 -1.2504
  190POPC  C21721935   3.652   5.141   9.109 -0.4725  0.3851  0.3266
  190POPC  H17R21936   3.625   5.035   9.093  0.1347  0.5341 -1.8604
  190POPC  H17S21937   3.762   5.161   9.108 -0.7114  1.8118  1.2842
  190POPC  C21821938   3.583   5.228   9.003 -0.1175  0.2105  0.4354
  190POPC  H18R21939   3.475   5.233   9.025 -0.1711 -0.7962  0.4616
  190POPC  H18S21940   3.595   5.193   8.898 -0.4943 -2.7361  1.3068
  190POPC  H18T21941   3.631   5.328   9.008  0.4924 -0.1197  1.2976
  190POPC   C3321942   4.141   4.075  10.295  0.1762  0.6501  0.0601
  190POPC   H3X21943   4.146   4.180  10.333 -1.8591  0.5034  0.7751
  190POPC   H3Y21944   4.033   4.050  10.304  0.4487 -0.4223  0.3494
  190POPC   C3421945   4.199   4.074  10.159  0.7413  0.0023 -0.1787
  190POPC   H4X21946   4.223   3.968  10.135 -2.6471 -1.0427  0.7553
  190POPC   H4Y21947   4.281   4.145  10.135  1.7544 -0.0694  2.9295
  190POPC   C3521948   4.085   4.132  10.074  0.7820 -0.1727 -0.0137
  190POPC   H5X21949   4.063   4.234  10.112  0.7351  0.2359 -1.1455
  190POPC   H5Y21950   3.994   4.072  10.098 -0.0593  1.4229  0.8458
  190POPC   C3621951   4.120   4.139   9.925 -0.3312  0.0018  0.1905
  190POPC   H6X21952   4.131   4.038   9.880  3.4085  1.3656 -2.1362
  190POPC   H6Y21953   4.220   4.186   9.931 -1.1427  1.8766 -0.4376
  190POPC   C3721954   4.024   4.211   9.832 -0.7216  0.4513 -0.4147
  190POPC   H7X21955   4.010   4.317   9.862  1.1335  0.1825  1.5969
  190POPC   H7Y21956   3.927   4.158   9.837 -0.2473 -0.2654  2.1331
  190POPC   C3821957   4.082   4.216   9.688  0.2120 -0.0261 -0.4194
  190POPC   H8X21958   4.089   4.110   9.655  0.9183  0.1889 -0.9587
  190POPC   H8Y21959   4.181   4.265   9.683 -0.1531  1.4436  3.8644
  190POPC   C3921960   3.997   4.286   9.587 -0.1602 -0.2674  0.1237
  190POPC   H9X21961   3.983   4.394   9.609 -2.1989 -0.6318  0.7023
  190POPC   H9Y21962   3.894   4.245   9.586 -1.0485  1.8844  1.0887
  190POPC  C31021963   4.054   4.276   9.452 -0.1498  0.1139 -0.3885
  190POPC  H10X21964   4.076   4.169   9.433 -0.8820 -0.4339  1.7286
  190POPC  H10Y21965   4.153   4.325   9.450 -0.2065  0.2315 -0.3639
  190POPC  C31121966   3.977   4.338   9.332  0.0678  0.1264 -0.3408
  190POPC  H11X21967   3.951   4.440   9.366  0.9182 -0.5474  2.4810
  190POPC  H11Y21968   3.874   4.299   9.317 -0.7298  2.2126 -0.3484
  190POPC  C31221969   4.049   4.338   9.204 -0.3454 -0.2938  0.0315
  190POPC  H12X21970   4.088   4.238   9.175 -1.1428 -0.2015 -1.4598
  190POPC  H12Y21971   4.136   4.403   9.227  0.5772 -1.3056 -0.5382
  190POPC  C31321972   3.965   4.390   9.086 -1.0832 -0.0665  0.3018
  190POPC  H13X21973   3.951   4.499   9.100 -3.8944 -0.3067 -0.4160
  190POPC  H13Y21974   3.872   4.332   9.067 -0.5090 -0.3636 -1.6894
  190POPC  C31421975   4.050   4.391   8.959  0.4654 -0.6641 -0.1621
  190POPC  H14X21976   4.086   4.288   8.943  2.6986  0.1173 -0.3130
  190POPC  H14Y21977   4.143   4.450   8.972 -0.0794  0.9933 -3.3467
  190POPC  C31521978   3.991   4.461   8.830 -0.0064 -0.0716  0.4342
  190POPC  H15X21979   4.061   4.471   8.745 -0.2035 -1.3561  0.1078
  190POPC  H15Y21980   3.959   4.559   8.872 -0.8343 -0.0632 -0.1951
  190POPC  C31621981   3.878   4.372   8.765 -0.4532  0.7487  0.7609
  190POPC  H16X21982   3.785   4.375   8.824 -1.5155 -0.7934 -0.7744
  190POPC  H16Y21983   3.908   4.267   8.745 -2.0686  0.3149  0.5349
  190POPC  H16Z21984   3.849   4.429   8.674  1.2426 -2.6806 -2.0706
  191POPC     N21985   5.194   5.259   6.274 -0.3830 -0.1260  0.0492
  191POPC   C1221986   5.101   5.265   6.399  0.7696 -0.1502 -0.1492
  191POPC  H12A21987   5.153   5.307   6.484  0.3238  2.3700 -1.0828
  191POPC  H12B21988   5.070   5.164   6.421  1.4366 -0.7606 -1.8434
  191POPC   C1321989   5.255   5.391   6.247 -0.7248 -0.2391  0.3852
  191POPC  H13A21990   5.193   5.477   6.227 -1.1363 -0.2395  1.6188
  191POPC  H13B21991   5.327   5.419   6.323  0.1759 -2.3963  0.3733
  191POPC  H13C21992   5.325   5.378   6.166 -0.7483 -0.8006  0.4541
  191POPC   C1421993   5.304   5.161   6.293  0.7362 -0.0705  0.1666
  191POPC  H14A21994   5.258   5.066   6.318 -0.8033  0.5447 -0.2280
  191POPC  H14B21995   5.362   5.151   6.203 -1.1774 -2.0880 -0.9091
  191POPC  H14C21996   5.372   5.182   6.374  0.7661 -1.4819  0.5178
  191POPC   C1521997   5.105   5.226   6.162  0.9688  0.2232  0.4565
  191POPC  H15A21998   5.029   5.303   6.155 -1.3731 -1.9444  1.1241
  191POPC  H15B21999   5.048   5.135   6.179  1.0540  0.4920  2.1804
  191POPC  H15C22000   5.154   5.210   6.067  0.9325 -1.7093  0.7399
  191POPC   C1122001   4.977   5.353   6.395  0.3273 -0.3877 -0.1898
  191POPC  H11A22002   5.009   5.457   6.373 -1.3129  0.2654  0.4570
  191POPC  H11B22003   4.944   5.356   6.501 -1.4683 -0.7634 -0.7313
  191POPC     P22004   4.786   5.191   6.315 -0.3935 -0.1551 -0.1228
  191POPC   O1322005   4.870   5.070   6.314 -0.4698  0.1113 -0.0357
  191POPC   O1422006   4.669   5.199   6.223 -0.4911 -0.3669 -0.2203
  191POPC   O1222007   4.875   5.317   6.298 -0.3353  0.6259  0.2985
  191POPC   O1122008   4.737   5.219   6.460 -0.1039  0.1233 -0.5092
  191POPC    C122009   4.616   5.277   6.490 -0.3233 -0.2063  0.3427
  191POPC    HA22010   4.530   5.233   6.435 -0.5424 -1.7199  1.8189
  191POPC    HB22011   4.613   5.383   6.459 -2.3165  0.0691  1.3616
  191POPC    C222012   4.571   5.269   6.639 -0.0504  0.0702  0.2252
  191POPC    HS22013   4.470   5.314   6.655  0.5081  1.4876 -0.1330
  191POPC   O2122014   4.666   5.328   6.723  0.1151  0.5972  0.1898
  191POPC   C2122015   4.614   5.398   6.820 -0.3509  0.2736 -0.4340
  191POPC   O2222016   4.496   5.427   6.835  0.2112 -0.0090  0.2176
  191POPC   C2222017   4.715   5.444   6.914 -0.6354 -0.1921  0.0730
  191POPC   H2R22018   4.797   5.498   6.862 -0.0692  0.5507  1.6972
  191POPC   H2S22019   4.758   5.357   6.969 -0.9129  0.0382  0.6529
  191POPC    C322020   4.555   5.128   6.683 -0.2681 -0.2860  0.7954
  191POPC    HX22021   4.648   5.067   6.682  0.2801  0.4732  2.1512
  191POPC    HY22022   4.483   5.089   6.609  0.0648  3.0423 -1.3743
  191POPC   O3122023   4.507   5.123   6.824  0.1873  0.1600 -0.0585
  191POPC   C3122024   4.395   5.053   6.829  0.9538 -0.0282  0.3869
  191POPC   O3222025   4.320   5.028   6.737 -0.5543  0.1044 -0.1783
  191POPC   C3222026   4.359   5.008   6.967  0.4366 -0.2641 -0.3052
  191POPC   H2X22027   4.382   4.902   6.987  1.0983  0.2733  1.8547
  191POPC   H2Y22028   4.248   5.014   6.969  0.1988 -3.6554 -0.5446
  191POPC   C2322029   4.651   5.530   7.023 -0.4510 -0.1535  0.4932
  191POPC   H3R22030   4.568   5.464   7.057 -0.9081  0.0018 -0.3274
  191POPC   H3S22031   4.612   5.621   6.973  1.8865  1.2432  1.0952
  191POPC   C2422032   4.757   5.571   7.130  0.2538  0.5580  0.1378
  191POPC   H4R22033   4.841   5.628   7.085  1.1112  0.3227  1.4063
  191POPC   H4S22034   4.807   5.474   7.152 -0.5115 -0.1481 -1.1248
  191POPC   C2522035   4.700   5.634   7.259  0.5947 -0.1228 -0.0847
  191POPC   H5R22036   4.671   5.737   7.230 -0.1104 -0.7498 -1.6492
  191POPC   H5S22037   4.774   5.645   7.341  0.8915  0.9853 -0.5023
  191POPC   C2622038   4.570   5.580   7.332 -0.0441  0.5716  0.2132
  191POPC   H6R22039   4.585   5.476   7.368  0.9573  0.6374  0.0089
  191POPC   H6S22040   4.491   5.578   7.254  2.6832 -2.2352 -2.6395
  191POPC   C2722041   4.542   5.651   7.465  0.2062  0.2269 -0.2003
  191POPC   H7R22042   4.438   5.620   7.492  0.3671  0.2290  0.4335
  191POPC   H7S22043   4.535   5.761   7.456 -1.4976  0.2136  0.7422
  191POPC   C2822044   4.638   5.616   7.583 -0.5971 -0.0676  0.2506
  191POPC   H8R22045   4.743   5.627   7.549 -1.1337 -0.3158 -1.5042
  191POPC   H8S22046   4.638   5.505   7.593  1.5815 -0.2854 -1.8651
  191POPC   C2922047   4.614   5.687   7.715  0.2041 -0.0715 -0.1007
  191POPC   H9122048   4.577   5.788   7.695 -2.5372 -1.0499 -0.1983
  191POPC  C21022049   4.651   5.632   7.831 -0.3026 -0.5657 -0.7627
  191POPC  H10122050   4.633   5.681   7.928 -1.1204 -0.9959 -0.6967
  191POPC  C21122051   4.709   5.498   7.849  0.4316 -0.4469  0.3187
  191POPC  H11R22052   4.817   5.501   7.875  0.2561  1.9919  0.8959
  191POPC  H11S22053   4.688   5.424   7.769 -2.4127  2.2779 -1.5397
  191POPC  C21222054   4.633   5.429   7.966  0.3584 -0.7851  0.1494
  191POPC  H12R22055   4.522   5.434   7.970  0.2182 -0.5695 -2.9754
  191POPC  H12S22056   4.657   5.477   8.063  2.0545 -0.4725 -0.4137
  191POPC  C21322057   4.647   5.276   7.986  0.0629  0.0818  0.5341
  191POPC  H13R22058   4.747   5.230   7.993 -1.2385 -2.9769 -0.0677
  191POPC  H13S22059   4.609   5.237   7.889  0.7993 -0.0130  0.2840
  191POPC  C21422060   4.553   5.215   8.100 -0.1285  0.2708  0.2276
  191POPC  H14R22061   4.549   5.104   8.088  2.7374 -0.1882  2.9641
  191POPC  H14S22062   4.445   5.242   8.091 -1.2227 -3.2890  1.6580
  191POPC  C21522063   4.603   5.250   8.237  0.0495  0.3414  0.3341
  191POPC  H15R22064   4.614   5.360   8.248  1.0426  0.2082  0.6940
  191POPC  H15S22065   4.701   5.207   8.265 -0.0363  1.1558  1.9522
  191POPC  C21622066   4.508   5.184   8.343  0.8794 -0.5800  0.0871
  191POPC  H16R22067   4.510   5.075   8.327 -4.2466 -0.9314  0.8930
  191POPC  H16S22068   4.406   5.227   8.330  2.2366  3.4682  1.9278
  191POPC  C21722069   4.553   5.215   8.486 -0.0152  0.3506  0.7409
  191POPC  H17R22070   4.553   5.324   8.504 -2.4754  0.5494 -0.2041
  191POPC  H17S22071   4.659   5.188   8.504  0.2967  0.6045 -0.6425
  191POPC  C21822072   4.460   5.139   8.592 -0.0803  0.4776  0.5101
  191POPC  H18R22073   4.358   5.180   8.576  0.2715  0.9384 -0.5888
  191POPC  H18S22074   4.495   5.170   8.693 -0.6307  2.2363  0.1628
  191POPC  H18T22075   4.470   5.028   8.582  0.9759  0.8129 -2.4863
  191POPC   C3322076   4.429   5.089   7.076 -0.8600 -0.3408  0.6237
  191POPC   H3X22077   4.427   5.199   7.060 -0.4374 -0.3623  0.4272
  191POPC   H3Y22078   4.536   5.061   7.074 -0.6304  0.6360 -1.1706
  191POPC   C3422079   4.380   5.047   7.216  0.8877  0.1061 -0.3673
  191POPC   H4X22080   4.415   4.942   7.227 -1.0968 -0.5708 -0.2580
  191POPC   H4Y22081   4.269   5.045   7.224  0.9850  0.7969  1.1963
  191POPC   C3522082   4.429   5.137   7.331  0.4127 -0.3291  0.1635
  191POPC   H5X22083   4.382   5.238   7.327 -0.2908 -0.5796  1.7089
  191POPC   H5Y22084   4.538   5.148   7.316  0.4471 -1.2481 -0.2997
  191POPC   C3622085   4.406   5.086   7.478 -0.4301  0.5621  1.0583
  191POPC   H6X22086   4.443   4.982   7.479  1.0254  1.0692  1.1514
  191POPC   H6Y22087   4.301   5.080   7.515 -1.4481 -1.2393 -1.9609
  191POPC   C3722088   4.481   5.169   7.583 -0.2060  0.0284  0.2361
  191POPC   H7X22089   4.587   5.182   7.551 -0.1475 -3.6416 -1.2123
  191POPC   H7Y22090   4.473   5.116   7.681  0.3554 -1.8288 -0.6977
  191POPC   C3822091   4.411   5.303   7.600 -0.2135  0.6362 -0.1249
  191POPC   H8X22092   4.374   5.348   7.505  0.5444  0.2902 -0.5923
  191POPC   H8Y22093   4.485   5.374   7.644  0.7356 -0.0642 -0.5657
  191POPC   C3922094   4.286   5.300   7.692  0.5296 -0.5683 -0.1293
  191POPC   H9X22095   4.324   5.255   7.786  2.6613 -0.2882 -0.8212
  191POPC   H9Y22096   4.206   5.238   7.646 -0.0157 -0.2278  0.3579
  191POPC  C31022097   4.234   5.440   7.719 -0.4067 -0.6075 -0.4446
  191POPC  H10X22098   4.197   5.483   7.624 -4.3969 -2.1361  0.3248
  191POPC  H10Y22099   4.313   5.505   7.762 -1.4077  1.5743 -1.8519
  191POPC  C31122100   4.113   5.436   7.817 -0.9481 -0.0655  0.7699
  191POPC  H11X22101   4.049   5.360   7.768  0.2522  1.5731 -3.5104
  191POPC  H11Y22102   4.057   5.532   7.824 -1.7684 -0.4418 -0.5482
  191POPC  C31222103   4.155   5.400   7.953  0.1073  0.1917  0.1307
  191POPC  H12X22104   4.218   5.481   7.997 -0.2253  1.0679 -0.9737
  191POPC  H12Y22105   4.208   5.303   7.962 -1.7234 -0.8254  0.1569
  191POPC  C31322106   4.039   5.405   8.050  0.1244 -0.2386 -0.1862
  191POPC  H13X22107   3.944   5.374   8.002  0.2655 -1.2421  0.1747
  191POPC  H13Y22108   4.022   5.512   8.073 -2.8286 -0.8760  0.8011
  191POPC  C31422109   4.047   5.328   8.182  0.3020 -0.5701 -0.3890
  191POPC  H14X22110   4.090   5.226   8.172  1.2533 -0.2804  0.7103
  191POPC  H14Y22111   3.950   5.318   8.236  1.9898 -0.9920  2.6458
  191POPC  C31522112   4.148   5.393   8.275 -0.3835  0.1458  0.2014
  191POPC  H15X22113   4.135   5.503   8.263 -0.5290 -0.0572 -1.7302
  191POPC  H15Y22114   4.252   5.370   8.242  0.0130  0.1273  1.4326
  191POPC  C31622115   4.124   5.353   8.422 -0.0634 -0.4128 -0.3713
  191POPC  H16X22116   4.165   5.251   8.440 -1.6748 -1.0287 -0.1402
  191POPC  H16Y22117   4.016   5.360   8.447 -0.4033 -1.1082 -1.5883
  191POPC  H16Z22118   4.174   5.422   8.493 -1.5375 -0.8952  1.1514
  192POPC     N22119   3.288   1.944   6.193 -1.0366  0.1548 -0.5930
  192POPC   C1222120   3.226   1.855   6.301  0.0690  0.2480 -0.3397
  192POPC  H12A22121   3.204   1.764   6.247  2.8957 -1.6143  1.5096
  192POPC  H12B22122   3.134   1.903   6.331  0.4834 -0.4631  2.1879
  192POPC   C1322123   3.331   2.077   6.255  0.0407 -0.1286  0.6459
  192POPC  H13A22124   3.407   2.066   6.332 -0.3644 -2.6288  0.7071
  192POPC  H13B22125   3.359   2.143   6.173 -0.8999 -0.3364  0.1577
  192POPC  H13C22126   3.250   2.122   6.310  1.6620  2.1308  1.3000
  192POPC   C1422127   3.402   1.867   6.137 -0.4364 -0.4586  0.2763
  192POPC  H14A22128   3.370   1.778   6.085  0.9170  0.0418 -1.4764
  192POPC  H14B22129   3.454   1.925   6.062 -2.0040 -0.8336 -1.1310
  192POPC  H14C22130   3.469   1.830   6.213 -0.7136 -1.4853  0.0347
  192POPC   C1522131   3.184   1.969   6.090  0.2773  0.7130 -0.5848
  192POPC  H15A22132   3.146   1.875   6.054 -0.8476  0.4515  1.1975
  192POPC  H15B22133   3.224   2.027   6.008  0.2158  0.8673 -0.5078
  192POPC  H15C22134   3.095   2.009   6.137  0.5450 -1.4145  1.8662
  192POPC   C1122135   3.305   1.824   6.429 -0.3905 -0.1158 -0.5088
  192POPC  H11A22136   3.237   1.762   6.491 -0.2653  1.7466  1.5569
  192POPC  H11B22137   3.319   1.914   6.493 -0.5008 -0.5907  0.1821
  192POPC     P22138   3.450   1.605   6.424  0.0192  0.0237 -0.4577
  192POPC   O1322139   3.569   1.577   6.337 -0.8275 -0.4216  0.7956
  192POPC   O1422140   3.330   1.520   6.410 -0.4220 -0.7210  0.7099
  192POPC   O1222141   3.420   1.758   6.400  0.2340 -0.4478 -0.5783
  192POPC   O1122142   3.495   1.609   6.578 -0.1334 -0.0530  0.8915
  192POPC    C122143   3.584   1.707   6.625  0.1722 -0.5471 -0.0660
  192POPC    HA22144   3.530   1.791   6.675  0.9624  0.1921 -0.4284
  192POPC    HB22145   3.654   1.743   6.547 -0.9203 -1.3238 -1.4106
  192POPC    C222146   3.684   1.654   6.734 -0.4659  0.0121  0.7563
  192POPC    HS22147   3.730   1.740   6.786  0.5974 -0.2867  0.3096
  192POPC   O2122148   3.775   1.569   6.666  0.1150 -0.0746 -0.2091
  192POPC   C2122149   3.884   1.634   6.615 -0.0790  0.5202  0.4132
  192POPC   O2222150   3.895   1.753   6.627 -0.3405  0.4310 -0.1388
  192POPC   C2222151   3.976   1.541   6.547  0.3203  0.2094  0.3756
  192POPC   H2R22152   4.077   1.587   6.545 -0.0288  1.0351  1.2719
  192POPC   H2S22153   3.943   1.518   6.443  1.6035 -1.0425  0.2367
  192POPC    C322154   3.596   1.575   6.832 -0.1550 -0.0352 -0.3587
  192POPC    HX22155   3.548   1.484   6.792 -0.0196  0.7012 -2.2430
  192POPC    HY22156   3.517   1.646   6.863 -0.5180  0.0227 -1.4067
  192POPC   O3122157   3.679   1.537   6.948 -0.0786 -0.0147 -0.0285
  192POPC   C3122158   3.718   1.403   6.948 -0.3518 -0.5074  0.1888
  192POPC   O3222159   3.689   1.328   6.859  0.3164 -0.2794 -0.0253
  192POPC   C3222160   3.794   1.368   7.077  0.1312 -0.2998  0.3617
  192POPC   H2X22161   3.749   1.424   7.163  0.9882  0.7317  0.1487
  192POPC   H2Y22162   3.894   1.409   7.054 -0.1905 -0.4104 -1.2823
  192POPC   C2322163   3.978   1.402   6.610 -1.0284  0.1921 -0.2030
  192POPC   H3R22164   4.044   1.337   6.549 -0.8756  1.2467 -1.1820
  192POPC   H3S22165   3.880   1.352   6.595 -0.1567 -1.7621  0.4507
  192POPC   C2422166   4.023   1.407   6.756 -0.0382 -0.6786  0.2012
  192POPC   H4R22167   4.007   1.305   6.798  0.4726 -1.6487 -1.8754
  192POPC   H4S22168   3.969   1.482   6.818  1.4059  0.1611  0.4596
  192POPC   C2522169   4.170   1.442   6.786 -0.3186  0.7373  0.2486
  192POPC   H5R22170   4.192   1.542   6.743 -0.7798  0.3352 -0.9322
  192POPC   H5S22171   4.233   1.369   6.732  0.1112 -0.4531  2.3088
  192POPC   C2622172   4.215   1.434   6.935 -0.2298 -0.4054 -0.2065
  192POPC   H6R22173   4.192   1.332   6.970  1.6564 -0.9619 -0.4963
  192POPC   H6S22174   4.157   1.499   7.004 -0.0571  2.3668 -2.5806
  192POPC   C2722175   4.355   1.481   6.952  0.5671 -0.4211  0.3622
  192POPC   H7R22176   4.350   1.585   6.912  0.8104 -1.2217 -1.8020
  192POPC   H7S22177   4.427   1.414   6.900  0.8408 -0.8599  1.2939
  192POPC   C2822178   4.397   1.491   7.101  0.2339 -0.3820 -0.3604
  192POPC   H8R22179   4.310   1.536   7.155  1.2937 -0.9067  1.8430
  192POPC   H8S22180   4.492   1.546   7.115 -1.2419  1.4443  3.5093
  192POPC   C2922181   4.411   1.355   7.167  0.1596 -0.2038  0.4279
  192POPC   H9122182   4.467   1.286   7.103 -0.1606 -2.3961  2.4346
  192POPC  C21022183   4.359   1.311   7.281  0.5193  0.7853  0.1513
  192POPC  H10122184   4.387   1.209   7.311  0.6482  0.7660 -0.0325
  192POPC  C21122185   4.276   1.391   7.382 -1.0212 -0.0574  0.2312
  192POPC  H11R22186   4.169   1.397   7.355 -0.8000 -0.3057 -0.7012
  192POPC  H11S22187   4.302   1.499   7.385 -0.1024 -0.2377 -0.8326
  192POPC  C21222188   4.289   1.330   7.520  0.0444 -0.1591 -0.2267
  192POPC  H12R22189   4.392   1.347   7.558  0.9888 -2.5465 -1.5922
  192POPC  H12S22190   4.271   1.221   7.516 -1.1291  0.0382 -0.4488
  192POPC  C21322191   4.183   1.388   7.619  0.1824  0.9200  0.4800
  192POPC  H13R22192   4.082   1.362   7.583  0.6711 -2.4526  1.4105
  192POPC  H13S22193   4.189   1.499   7.624  1.3777  0.7746  3.1584
  192POPC  C21422194   4.194   1.320   7.757  0.5422 -0.2727 -0.7179
  192POPC  H14R22195   4.168   1.212   7.752  0.1332 -0.1103 -2.8190
  192POPC  H14S22196   4.107   1.366   7.809  0.7218 -0.8091  0.0659
  192POPC  C21522197   4.317   1.352   7.844 -0.4552  0.3783 -0.5203
  192POPC  H15R22198   4.344   1.459   7.853 -0.4702  0.4543 -1.3561
  192POPC  H15S22199   4.408   1.301   7.804 -0.6175 -0.2837 -0.0665
  192POPC  C21622200   4.291   1.290   7.984 -0.2775  0.8665 -0.3093
  192POPC  H16R22201   4.261   1.183   7.978  0.0276  0.6551  1.6862
  192POPC  H16S22202   4.204   1.341   8.031 -0.2335 -0.4310  1.2357
  192POPC  C21722203   4.405   1.295   8.092 -0.0570  1.0141 -0.1992
  192POPC  H17R22204   4.369   1.250   8.187 -0.9945 -1.3953 -1.6201
  192POPC  H17S22205   4.430   1.400   8.118 -0.1242  0.2668  3.1355
  192POPC  C21822206   4.526   1.216   8.056  0.1679 -1.1478  0.4716
  192POPC  H18R22207   4.500   1.114   8.019 -1.2839 -0.8746  0.7301
  192POPC  H18S22208   4.588   1.202   8.147  1.6444  0.8169 -0.1956
  192POPC  H18T22209   4.594   1.261   7.980  1.0486 -2.7737  0.2581
  192POPC   C3322210   3.816   1.218   7.111  0.4189 -0.2362  0.1368
  192POPC   H3X22211   3.882   1.174   7.034  1.6589 -0.2426  1.1820
  192POPC   H3Y22212   3.716   1.169   7.106 -0.2073  0.9682  0.6360
  192POPC   C3422213   3.902   1.195   7.239  0.1320 -0.4218  0.4163
  192POPC   H4X22214   3.984   1.270   7.235  0.0440 -0.2636  1.6007
  192POPC   H4Y22215   3.952   1.096   7.237  3.3000  1.0710  1.9901
  192POPC   C3522216   3.815   1.199   7.361 -0.0033  0.1680 -0.2292
  192POPC   H5X22217   3.722   1.139   7.344  1.0124 -1.0237 -1.8151
  192POPC   H5Y22218   3.790   1.305   7.384  2.5115  0.6928  0.1900
  192POPC   C3622219   3.890   1.153   7.478 -0.4841 -0.3249 -0.3799
  192POPC   H6X22220   3.994   1.193   7.475 -1.0276  1.1969  0.6889
  192POPC   H6Y22221   3.906   1.043   7.483 -0.0678 -0.1719  1.8395
  192POPC   C3722222   3.839   1.214   7.612  0.4806  0.0800 -0.2618
  192POPC   H7X22223   3.732   1.234   7.589 -0.0639 -0.7418  1.5078
  192POPC   H7Y22224   3.899   1.304   7.639  0.8888  0.5716 -2.6893
  192POPC   C3822225   3.842   1.111   7.732 -0.1591 -0.0600 -0.2020
  192POPC   H8X22226   3.941   1.065   7.754  0.3070  2.4452  3.3824
  192POPC   H8Y22227   3.784   1.023   7.697 -0.0062 -0.4565  0.5287
  192POPC   C3922228   3.775   1.148   7.860 -0.4019 -0.4751 -0.5421
  192POPC   H9X22229   3.759   1.058   7.923 -1.5375 -0.3964 -0.7123
  192POPC   H9Y22230   3.676   1.193   7.840  0.7019  1.6790 -1.3709
  192POPC  C31022231   3.848   1.249   7.946  0.3739 -0.4714  0.7752
  192POPC  H10X22232   3.838   1.347   7.896  2.1607 -1.1483 -0.9738
  192POPC  H10Y22233   3.956   1.229   7.959  0.1819 -1.6297  0.6844
  192POPC  C31122234   3.794   1.251   8.092 -0.4407  0.6138 -0.5064
  192POPC  H11X22235   3.759   1.155   8.134 -1.2668  0.0693 -2.3950
  192POPC  H11Y22236   3.704   1.316   8.091 -1.2327 -0.4876 -0.5528
  192POPC  C31222237   3.876   1.326   8.193 -0.4839  0.1132 -1.5381
  192POPC  H12X22238   3.873   1.431   8.157 -2.9536  0.1863 -1.1832
  192POPC  H12Y22239   3.979   1.286   8.205 -1.3136 -1.9165 -0.9292
  192POPC  C31322240   3.816   1.335   8.334  0.2323  0.0854  0.7507
  192POPC  H13X22241   3.797   1.233   8.373 -0.9835  1.0744  2.8299
  192POPC  H13Y22242   3.722   1.394   8.334  1.4443  2.0714 -1.0429
  192POPC  C31422243   3.915   1.403   8.424  0.0004  0.1138 -0.7281
  192POPC  H14X22244   3.938   1.506   8.389  1.4601  0.4367  1.0572
  192POPC  H14Y22245   4.014   1.353   8.422 -0.6192 -1.1921  0.3150
  192POPC  C31522246   3.878   1.396   8.577  0.4836  0.0241  0.4621
  192POPC  H15X22247   3.888   1.287   8.595 -1.9868 -0.5868 -1.5000
  192POPC  H15Y22248   3.775   1.434   8.591  0.5654  0.5120 -0.2596
  192POPC  C31622249   3.972   1.476   8.662 -0.0570 -0.4576  0.6299
  192POPC  H16X22250   3.954   1.580   8.629 -0.2541 -0.7209 -0.1064
  192POPC  H16Y22251   4.079   1.452   8.647 -0.4941 -1.5051 -1.0331
  192POPC  H16Z22252   3.942   1.453   8.766 -0.0923  2.9011  1.4183
  193SOD    SOD22253   4.524   5.977   5.574 -0.2737  0.3343 -0.1462
  194SOD    SOD22254   5.435   5.098  16.236  0.2328  0.2116 -0.0821
  195SOD    SOD22255   3.906   6.627  10.886  0.2309 -0.5865  0.1291
  196SOD    SOD22256   3.516   6.320  14.182 -0.3763  0.0575  0.2449
  197SOD    SOD22257   0.096   3.741  13.851 -0.3971 -0.2717  0.2100
  198SOD    SOD22258   2.397   5.702  10.852 -0.4756 -0.2575 -0.3316
  199SOD    SOD22259   2.820   2.918   4.224 -0.1714  0.2232 -0.1155
  200SOD    SOD22260   0.033   5.034   6.102  0.3199  0.0399 -0.1675
  201SOD    SOD22261   6.585   5.411   3.032 -0.2250 -0.3675  0.4160
  202SOD    SOD22262   5.243   5.968  16.247  0.1292  0.3417 -0.0919
  203SOD    SOD22263   2.269   1.288   1.335  0.0674 -0.1363  0.0784
  204SOD    SOD22264   2.343   4.020   3.522  0.2452 -0.2337 -0.3425
  205SOD    SOD22265   2.630   4.181  10.490  0.5481 -0.1838  0.3181
  206SOD    SOD22266   4.338   4.578  14.606 -0.1694  0.2003 -0.1742
  207SOD    SOD22267   6.619   2.455   3.779  0.1301 -0.1212 -0.4987
  208SOD    SOD22268   1.109   2.351  11.591  0.3229 -0.0048 -0.0263
  209SOD    SOD22269   2.102   0.065  11.483 -0.4493  0.2801  0.2140
  210SOD    SOD22270   4.737   0.522  15.534 -0.4301 -0.0912  0.3776
  211SOD    SOD22271   3.066   4.790   2.985  0.0010 -0.1619  0.0302
  212SOD    SOD22272   3.939   1.645  14.781 -0.5152  0.5355 -0.2243
  213SOD    SOD22273   4.305   2.858   3.234  0.1379  0.5485 -0.6429
  214SOD    SOD22274   2.824   4.166   1.979 -0.0960 -0.1540 -0.1996
  215SOD    SOD22275   6.179   3.761   3.888  0.3741 -0.0567  0.6764
  216SOD    SOD22276   3.496   5.415  13.150  0.4778  0.0427 -0.2620
  217SOD    SOD22277   1.271   3.711  12.744 -0.0630  0.5214 -0.1408
  218SOD    SOD22278   3.546   2.148  16.297 -0.3480 -0.8940 -0.1775
  219SOD    SOD22279   4.254   3.886   0.835  0.5341 -0.1062  0.3240
  220SOD    SOD22280   4.817   2.608  11.789 -0.0233 -0.0420  0.4400
  221SOD    SOD22281   4.966   4.552   1.228 -0.1910  0.2697  0.4864
  222SOD    SOD22282   1.346   5.460  12.538 -0.2461  0.0930  0.0325
  223SOD    SOD22283   0.524   3.698   4.564  0.2831  0.0017  0.0760
  224SOD    SOD22284   2.225   2.639   0.519 -0.0905  0.1577 -0.4124
  225SOD    SOD22285   2.963   6.332  11.641 -0.0036  0.3197 -0.1946
  226SOD    SOD22286   2.536   2.691   5.632  0.1210 -0.5315 -0.0294
  227SOD    SOD22287   3.718   0.214   6.438  0.4982 -0.1780 -0.1191
  228SOD    SOD22288   1.977   6.735  14.792 -0.0568 -0.1481 -0.6077
  229SOD    SOD22289   2.485   3.157  10.683 -0.1995  0.3718 -0.0734
  230SOD    SOD22290   6.553   3.567  13.158 -0.1349 -0.0668 -0.1794
  231SOD    SOD22291   1.526   1.652   0.023  0.5333 -0.2469  0.0434
  232SOD    SOD22292   3.136   4.622  16.138  0.1904 -0.0645 -0.3480
  233SOD    SOD22293   0.318   1.865   5.417 -0.0528 -0.0113  0.2904
  234SOD    SOD22294   4.978   3.615  15.066 -0.5677  0.4173  0.0738
  235SOD    SOD22295   4.102   5.953   4.927 -0.1474 -0.3036  0.7780
  236SOD    SOD22296   0.311   6.364   3.826  0.1917  0.8249  0.1030
  237SOD    SOD22297   2.214   1.430  12.936  0.7730 -0.2495 -0.3162
  238SOD    SOD22298   3.675   1.335  12.133  0.1959  0.5554 -0.2252
  239SOD    SOD22299   3.515   3.750  15.416 -0.3516 -0.2294  0.1814
  240SOD    SOD22300   1.836   3.527   6.221 -0.0583  0.3309 -1.0768
  241SOD    SOD22301   3.315   5.005   1.851  0.6310 -0.0441 -0.3436
  242SOD    SOD22302   0.605   3.818  11.058 -0.8124  0.5059 -0.2965
  243SOD    SOD22303   3.943   2.881   4.624 -0.1750  0.4103  0.4728
  244SOD    SOD22304   2.935   6.356   1.675  0.2541 -0.0909 -0.0812
  245SOD    SOD22305   1.713   0.563   6.101  0.0034 -0.1435 -0.0826
  246SOD    SOD22306   0.094   0.090   2.373 -0.2852  0.1159 -0.0833
  247SOD    SOD22307   3.766   0.545  17.013 -0.1273  0.1621  0.0857
  248SOD    SOD22308   3.822   0.326   5.846 -0.2339  0.6816  0.1423
  249SOD    SOD22309   4.516   2.308  10.559 -0.1507  0.3401  0.0731
  250SOD    SOD22310   0.496   3.156   5.409 -0.3750  0.3509 -0.3834
  251SOD    SOD22311   1.228   2.770   1.036  0.0925  0.1713  0.0122
  252SOD    SOD22312   0.760   1.280  11.830 -0.3878 -0.1908 -0.0632
  253SOD    SOD22313   6.481   6.637  13.183  0.0743  0.0276 -0.0725
  254SOD    SOD22314   2.464   5.049   1.968 -0.3465 -0.0828 -0.3336
  255SOD    SOD22315   5.117   0.065  12.047 -0.4561 -0.0757 -0.1505
  256SOD    SOD22316   3.764   4.543   5.967  0.3409  0.1068  0.4365
  257SOD    SOD22317   4.049   1.421   0.971 -0.0994  0.0874  0.2793
  258SOD    SOD22318   2.043   6.125  13.662 -0.3342 -0.6455 -0.1576
  259SOD    SOD22319   6.391   0.247  10.649 -0.1430 -0.0425  0.2990
  260SOD    SOD22320   6.672   3.551  11.399  0.0451  0.1259  0.5871
  261SOD    SOD22321   1.332   5.844   1.017  0.0956 -0.1752  0.1472
  262SOD    SOD22322   0.140   3.828  11.543  0.0265  0.1625  0.4482
  263SOD    SOD22323   4.783   6.587  10.686  0.1167  0.1986  0.2151
  264SOD    SOD22324   3.210   4.500  13.341 -0.4072 -0.0970  0.0697
  265SOD    SOD22325   1.867   5.371   6.559  0.0644  0.1394 -0.1088
  266SOD    SOD22326   2.551   4.617  11.452  0.2132 -0.2552 -0.3273
  267SOD    SOD22327   3.979   5.113  16.675  0.1858 -0.5470  0.0131
  268SOD    SOD22328   3.438   0.009  13.117 -0.4378  0.3368 -0.1081
  269SOD    SOD22329   6.216   0.710  14.928  0.1507  0.1152  0.0077
  270CLA    CLA22330   4.904   2.622   0.090  0.0514  0.0302 -0.0289
  271CLA    CLA22331   5.768   2.132   3.527  0.0127 -0.2004 -0.1311
  272CLA    CLA22332   5.920   3.252  13.456 -0.1904  0.0862  0.2077
  273CLA    CLA22333   0.213   2.100   3.943 -0.1185 -0.1153 -0.2700
  274CLA    CLA22334   1.318   5.487   4.315 -0.1051  0.4978 -0.0964
  275CLA    CLA22335   5.412   4.764   3.322  0.0642 -0.0533  0.3769
  276CLA    CLA22336   5.236   2.820  12.931 -0.1991 -0.1552 -0.0478
  277CLA    CLA22337   2.293   1.997  14.168  0.4822 -0.0105  0.0201
  278CLA    CLA22338   6.157   6.554  16.326  0.3508 -0.1953  0.1291
  279CLA    CLA22339   1.762   0.017  14.624  0.0393 -0.1259 -0.0719
  280CLA    CLA22340   0.933   3.109   5.076  0.2466  0.1722 -0.2806
  281CLA    CLA22341   2.137   0.068   5.599  0.5355  0.2174 -0.4400
  282CLA    CLA22342   0.486   4.390  11.316 -0.1737  0.1428  0.0081
  283CLA    CLA22343   0.326   2.889   4.012  0.4287 -0.2713  0.1156
  284CLA    CLA22344   2.933   3.538  13.915 -0.1642 -0.3681 -0.0588
  285CLA    CLA22345   2.401   4.553  15.116 -0.1113  0.0049  0.2560
  286CLA    CLA22346   4.422   4.749  16.516 -0.1248 -0.3224  0.3296
  287CLA    CLA22347   0.452   4.715   4.038 -0.2338 -0.1009  0.1332
  288CLA    CLA22348   4.615   2.135  11.928 -0.0271 -0.0430 -0.3574
  289CLA    CLA22349   1.398   3.825  13.759  0.1106  0.0786  0.4649
  290CLA    CLA22350   1.064   6.656   3.745  0.3819 -0.2932 -0.1504
  291CLA    CLA22351   4.081   5.692  14.806 -0.2485 -0.1793 -0.1059
  292CLA    CLA22352   3.806   2.249  13.153 -0.2111 -0.2908 -0.4894
  293CLA    CLA22353   2.565   2.617   2.803  0.1615  0.0063  0.0570
  294CLA    CLA22354   2.794   2.223   0.658  0.1242 -0.0144  0.5065
  295CLA    CLA22355   1.846   6.160  11.660 -0.1200 -0.0769  0.1854
  296CLA    CLA22356   6.732   0.314  13.197 -0.0847  0.2416  0.2250
  297CLA    CLA22357   0.040   4.802  16.564 -0.0941  0.0860  0.5591
  298CLA    CLA22358   2.013   1.834  15.233 -0.7090  0.0416 -0.1467
  299CLA    CLA22359   0.368   0.987   1.343 -0.1349  0.1905 -0.7278
  300CLA    CLA22360   3.470   6.345   1.509  0.1824 -0.0576  0.0359
  301CLA    CLA22361   2.331   3.936   1.608  0.0575 -0.2980 -0.5780
  302CLA    CLA22362   1.048   5.513  13.597  0.0437 -0.0423 -0.0332
  303CLA    CLA22363   4.593   0.933   2.706  0.3500  0.3955  0.1104
  304CLA    CLA22364   2.260   0.841  11.349 -0.2250  0.0039  0.2666
  305CLA    CLA22365   3.742   1.091   0.372 -0.1500 -0.3634  0.3387
  306CLA    CLA22366   0.813   4.092  14.476  0.0400 -0.4782  0.5602
  307CLA    CLA22367   2.957   0.798   1.738  0.2356 -0.1886 -0.3237
  308CLA    CLA22368   6.467   2.910  16.304 -0.1919 -0.1293  0.1373
  309CLA    CLA22369   0.249   1.304  12.650  0.0874 -0.1996  0.4570
  310CLA    CLA22370   2.721   5.814   0.754 -0.1330  0.2663  0.0599
  311CLA    CLA22371   4.714   4.141  11.657 -0.2290 -0.1359  0.3128
  312CLA    CLA22372   3.516   4.910   2.349  0.0205 -0.2311 -0.0388
  313CLA    CLA22373   1.081   6.666   0.539  0.4599 -0.1918  0.2194
  314CLA    CLA22374   2.284   5.449   1.661  0.1858  0.1786  0.0089
  315CLA    CLA22375   5.103   0.140  15.683  0.3142  0.5586 -0.2082
  316CLA    CLA22376   5.734   1.585   4.702  0.3565 -0.1517  0.2064
  317CLA    CLA22377   1.512   3.194  12.134 -0.3027  0.1123 -0.1227
  318CLA    CLA22378   2.819   6.698  13.063 -0.0025  0.1270 -0.1430
  319CLA    CLA22379   3.189   5.660   1.796  0.1583 -0.3390 -0.2662
  320CLA    CLA22380   3.164   0.895  12.150  0.2302  0.2217 -0.4649
  321CLA    CLA22381   6.339   0.652  10.964  0.0676  0.6220 -0.0762
  322CLA    CLA22382   4.273   3.197  15.107  0.0248 -0.3131  0.4301
  323TIP3   OH222383   0.764   5.108   5.872 -0.0516 -0.5200  0.0792
  323TIP3    H122384   0.848   5.150   5.890  0.6667 -2.5384  1.7452
  323TIP3    H222385   0.783   5.014   5.875 -2.2214 -1.0044 -0.2698
  324TIP3   OH222386   5.220   2.054  15.045  0.2237  0.0218  0.5538
  324TIP3    H122387   5.212   2.142  15.083  1.3707  0.3923 -0.0574
  324TIP3    H222388   5.312   2.047  15.020  0.1432 -1.3732  0.6274
  325TIP3   OH222389   2.988   6.393   1.901  0.2410 -0.7307  0.6742
  325TIP3    H122390   3.007   6.466   1.959  0.3041 -0.2158  0.0051
  325TIP3    H222391   3.055   6.327   1.922 -0.3037 -0.9139  1.8300
  326TIP3   OH222392   0.704   5.817   3.219 -0.2072 -0.1753  0.8008
  326TIP3    H122393   0.659   5.900   3.202 -2.3686 -1.6413 -0.8870
  326TIP3    H222394   0.636   5.761   3.256  1.0873 -1.3885  1.3516
  327TIP3   OH222395   1.317   1.109   2.137  0.1984  0.2724 -0.6789
  327TIP3    H122396   1.240   1.131   2.084 -0.3920 -1.9222 -0.7832
  327TIP3    H222397   1.382   1.079   2.075  0.4053  0.1483 -0.4039
  328TIP3   OH222398   2.465   4.553  15.933 -0.2164 -0.3238  0.0115
  328TIP3    H122399   2.535   4.573  15.996  1.3722  0.9555 -2.0485
  328TIP3    H222400   2.439   4.463  15.953  3.0946 -1.3747 -0.0949
  329TIP3   OH222401   6.178   3.135  10.525 -0.4377 -0.2606 -0.1693
  329TIP3    H122402   6.218   3.054  10.495 -0.1107 -0.8452  1.7472
  329TIP3    H222403   6.204   3.200  10.460  2.8763 -0.8259  0.5074
  330TIP3   OH222404   2.744   6.707   5.180 -0.2224  0.9167  0.1585
  330TIP3    H122405   2.729   6.695   5.086 -0.6423 -0.5914  0.4062
  330TIP3    H222406   2.790   6.628   5.208 -1.1555  0.7999  1.4418
  331TIP3   OH222407   1.382   6.232  11.697 -0.0440 -0.5360  0.1025
  331TIP3    H122408   1.337   6.258  11.617 -0.2974 -0.4148  0.2842
  331TIP3    H222409   1.396   6.314  11.745 -0.2807 -0.6604  0.3850
  332TIP3   OH222410   2.488   1.893   1.500 -0.9515  0.7513  0.5954
  332TIP3    H122411   2.474   1.805   1.536 -0.4965  0.9514  1.2743
  332TIP3    H222412   2.487   1.881   1.406 -0.2811 -0.0840  0.6944
  333TIP3   OH222413   6.062   4.221  11.742 -0.8982 -0.5544 -0.0464
  333TIP3    H122414   6.050   4.248  11.651 -1.0191 -1.4289 -0.2952
  333TIP3    H222415   6.151   4.187  11.746  0.1646  2.1826  0.8585
  334TIP3   OH222416   3.027   6.774   0.095 -0.3765  0.0139  0.5689
  334TIP3    H122417   3.016   6.826   0.174 -1.6696  1.0112 -0.2566
  334TIP3    H222418   3.083   6.701   0.122 -2.5437 -0.8705  2.9835
  335TIP3   OH222419   4.317   4.405  15.674  0.4667  0.1749 -0.5550
  335TIP3    H122420   4.251   4.437  15.735  1.2313  0.9809 -0.1480
  335TIP3    H222421   4.282   4.426  15.588 -0.6842 -1.1023 -0.4173
  336TIP3   OH222422   5.323   0.628   5.138  0.4362 -0.9921  0.5226
  336TIP3    H122423   5.260   0.690   5.100  1.9507  0.3911  0.2433
  336TIP3    H222424   5.362   0.584   5.062  0.3611 -1.3114  0.6654
  337TIP3   OH222425   1.876   5.350   0.922 -0.2177  0.2015 -0.0596
  337TIP3    H122426   1.915   5.404   0.854 -0.7044 -0.0403 -0.5356
  337TIP3    H222427   1.948   5.294   0.953 -0.0375  0.1960 -0.4895
  338TIP3   OH222428   1.597   0.247   2.625  0.1649  0.4058  0.1458
  338TIP3    H122429   1.649   0.298   2.687  3.6700  0.0949 -2.4134
  338TIP3    H222430   1.573   0.310   2.556 -2.4416  0.4039  0.9932
  339TIP3   OH222431   0.652   0.076  12.881 -0.1777  0.0758 -0.8847
  339TIP3    H122432   0.621   0.030  12.959  3.1597  0.8092  0.9547
  339TIP3    H222433   0.616   0.026  12.808 -2.2406 -1.4260  1.0999
  340TIP3   OH222434   1.167   1.881  16.688  0.2541 -0.2294 -0.1494
  340TIP3    H122435   1.090   1.852  16.737 -0.2789  1.1529 -0.1491
  340TIP3    H222436   1.140   1.963  16.646  1.8086  0.4374  0.0945
  341TIP3   OH222437   3.829   4.808  11.266 -0.4501 -0.1596 -0.2116
  341TIP3    H122438   3.867   4.886  11.225 -1.4186  0.6814  0.4610
  341TIP3    H222439   3.797   4.839  11.351 -0.1047 -1.4822  0.4175
  342TIP3   OH222440   5.468   1.062  16.828  0.6803  0.5487 -0.4400
  342TIP3    H122441   5.421   1.145  16.839  0.3602  0.3901 -0.5905
  342TIP3    H222442   5.519   1.073  16.748  0.9844  0.7626 -0.2169
  343TIP3   OH222443   4.602   0.707   1.943 -0.0307  0.3553  0.0307
  343TIP3    H122444   4.579   0.796   1.971  0.5060  0.6848 -0.5667
  343TIP3    H222445   4.682   0.687   1.991  0.9361  0.9502 -1.2976
  344TIP3   OH222446   0.304   0.305  14.702 -0.4074  0.0018 -0.4072
  344TIP3    H122447   0.267   0.357  14.774  1.2107  0.1781  0.3371
  344TIP3    H222448   0.281   0.353  14.623 -1.8298  0.0447  0.0253
  345TIP3   OH222449   3.280   3.855  15.370 -0.0994  0.5322 -0.5496
  345TIP3    H122450   3.273   3.770  15.325 -0.5731  0.2741  0.0037
  345TIP3    H222451   3.194   3.895  15.357 -1.0404 -0.5306  2.0853
  346TIP3   OH222452   1.180   2.139  11.715 -0.1040 -0.1781  0.3076
  346TIP3    H122453   1.263   2.091  11.712 -0.2287 -0.3670 -0.4097
  346TIP3    H222454   1.136   2.105  11.792 -0.3930 -1.5816 -0.4562
  347TIP3   OH222455   6.527   5.777   4.674  0.3374  0.2048  0.3144
  347TIP3    H122456   6.437   5.745   4.685  0.3759 -0.2125 -0.5260
  347TIP3    H222457   6.550   5.815   4.759 -1.0184  1.2762  0.2208
  348TIP3   OH222458   6.033   0.198   3.483 -0.3603 -0.2674 -0.1214
  348TIP3    H122459   5.975   0.159   3.417  0.5558 -0.7336 -0.6542
  348TIP3    H222460   5.990   0.177   3.566 -0.3055 -1.7230 -0.4460
  349TIP3   OH222461   3.432   4.864  11.416  0.5201  0.3259 -0.4856
  349TIP3    H122462   3.418   4.772  11.439 -0.8487  0.2642 -1.4880
  349TIP3    H222463   3.427   4.866  11.321  0.5671  1.4434 -0.4724
  350TIP3   OH222464   2.386   1.613   5.289  0.6100 -0.0490 -0.5079
  350TIP3    H122465   2.340   1.555   5.228 -0.6467  1.5725 -1.1360
  350TIP3    H222466   2.425   1.553   5.354  0.4781 -1.6700 -1.8895
  351TIP3   OH222467   2.139   2.894  14.697  0.2532  0.0161  0.2279
  351TIP3    H122468   2.106   2.826  14.638  1.3497  1.2382 -1.8651
  351TIP3    H222469   2.188   2.846  14.764 -0.9609 -1.3933  0.1356
  352TIP3   OH222470   0.784   0.120  11.959  0.1199  0.5158 -0.0078
  352TIP3    H122471   0.691   0.130  11.938 -0.1068 -0.5718  0.4171
  352TIP3    H222472   0.828   0.125  11.874 -0.6774 -2.6451 -0.6881
  353TIP3   OH222473   4.811   3.901  16.748  0.1971  0.2493 -0.0672
  353TIP3    H122474   4.840   3.990  16.730 -1.4663  1.0508  1.1158
  353TIP3    H222475   4.797   3.863  16.661  0.8422  1.1447 -0.5787
  354TIP3   OH222476   6.421   1.805   4.616 -0.0282  1.1388 -0.0479
  354TIP3    H122477   6.369   1.756   4.680 -0.1072 -0.5304 -1.3303
  354TIP3    H222478   6.413   1.753   4.536  2.0982  1.8616 -0.7510
  355TIP3   OH222479   3.524   4.843  13.174  0.4829  0.0453 -0.0206
  355TIP3    H122480   3.576   4.893  13.236 -0.3206 -0.3852  1.0151
  355TIP3    H222481   3.541   4.885  13.089  1.3485  0.8220  0.5301
  356TIP3   OH222482   1.319   4.166   1.304 -0.0859 -0.0693  0.0857
  356TIP3    H122483   1.328   4.122   1.388  0.2081 -0.3614 -0.0965
  356TIP3    H222484   1.306   4.258   1.326  0.4865 -0.0695  0.4343
  357TIP3   OH222485   5.532   0.631   5.370 -0.1732  0.1955  0.0746
  357TIP3    H122486   5.605   0.580   5.336 -0.9017 -2.4019  2.2124
  357TIP3    H222487   5.467   0.629   5.300 -0.2103 -1.9297  0.1387
  358TIP3   OH222488   6.304   2.344   2.565 -0.3177 -0.0386 -0.2624
  358TIP3    H122489   6.262   2.344   2.651 -1.0077  0.7502 -0.5984
  358TIP3    H222490   6.279   2.259   2.527 -0.0657 -0.3609  0.2802
  359TIP3   OH222491   6.534   0.055   6.558  0.0709  0.4239 -0.1145
  359TIP3    H122492   6.595   0.027   6.489 -0.3652  1.4578 -0.9283
  359TIP3    H222493   6.450   0.063   6.514 -0.3029  0.6992  0.6355
  360TIP3   OH222494   3.511   0.576  15.129  0.1101 -0.5791 -0.1822
  360TIP3    H122495   3.439   0.632  15.103 -0.9500 -1.5247  0.6629
  360TIP3    H222496   3.535   0.605  15.217  3.0673  1.9945 -1.7481
  361TIP3   OH222497   4.829   0.822   1.543 -0.2342 -0.2857  0.1815
  361TIP3    H122498   4.786   0.879   1.607 -2.5490  1.3002 -2.6790
  361TIP3    H222499   4.906   0.872   1.515  0.0803 -0.4418  0.7428
  362TIP3   OH222500   3.031   0.456   0.294 -0.8905  0.1518  0.8358
  362TIP3    H122501   2.975   0.527   0.262 -2.6303 -1.3706  0.4138
  362TIP3    H222502   3.081   0.429   0.218 -2.0118 -0.6866  0.3756
  363TIP3   OH222503   0.808   1.759  16.422 -0.6777  0.1470  0.1172
  363TIP3    H122504   0.716   1.735  16.434 -0.6872  0.4820  0.7426
  363TIP3    H222505   0.806   1.852  16.398 -0.5238  0.0618 -0.2310
  364TIP3   OH222506   4.473   4.127  13.753  0.0363 -0.5506  0.5413
  364TIP3    H122507   4.480   4.218  13.780 -0.6059 -0.0136 -1.0226
  364TIP3    H222508   4.379   4.115  13.735  0.3165 -1.1064 -0.6014
  365TIP3   OH222509   2.542   4.592  14.323  0.4351 -0.0935 -0.0615
  365TIP3    H122510   2.551   4.531  14.396 -0.7398  0.1692  0.2981
  365TIP3    H222511   2.589   4.549  14.251  0.8405 -0.7562  0.5883
  366TIP3   OH222512   4.614   1.191   3.193  0.2145  0.0518  0.4101
  366TIP3    H122513   4.521   1.179   3.210 -0.3157  1.0150 -1.6779
  366TIP3    H222514   4.632   1.138   3.116  1.0509  1.0589 -0.1012
  367TIP3   OH222515   5.825   1.582   2.121  0.1225 -0.1227  0.4202
  367TIP3    H122516   5.732   1.571   2.142 -0.0650 -0.6057 -0.6484
  367TIP3    H222517   5.870   1.553   2.200 -0.6207 -0.6628  0.6548
  368TIP3   OH222518   0.941   2.247  12.122  0.5715 -0.1962  0.5411
  368TIP3    H122519   1.016   2.305  12.116 -0.0018  0.6315  1.2685
  368TIP3    H222520   0.897   2.256  12.038  0.5271  0.3693  0.6245
  369TIP3   OH222521   3.126   5.643   5.799  0.2628  0.1005  0.2364
  369TIP3    H122522   3.156   5.566   5.847 -0.3771 -0.8317 -0.8227
  369TIP3    H222523   3.031   5.633   5.795  0.1607  1.0438  0.2586
  370TIP3   OH222524   0.594   2.127  13.604  0.2681  0.2616 -0.4444
  370TIP3    H122525   0.633   2.140  13.517  0.2955  1.1099 -0.3129
  370TIP3    H222526   0.653   2.174  13.664  0.1744 -0.2026  0.0121
  371TIP3   OH222527   4.682   1.165   5.642 -0.2157 -0.1756  0.1385
  371TIP3    H122528   4.594   1.151   5.606 -0.1575 -1.3477  0.4489
  371TIP3    H222529   4.740   1.119   5.581  0.0794 -0.3398  0.5410
  372TIP3   OH222530   1.956   5.693   5.652 -0.1092 -0.2236  0.3290
  372TIP3    H122531   1.929   5.775   5.693 -1.7060 -1.1754  1.2090
  372TIP3    H222532   2.037   5.668   5.697 -0.9323 -0.3822  1.7263
  373TIP3   OH222533   1.925   2.128   4.736 -0.2098 -0.1067  0.2815
  373TIP3    H122534   1.862   2.063   4.766  0.1061 -0.7802 -0.4845
  373TIP3    H222535   1.954   2.096   4.650  3.4487 -1.4576  1.8909
  374TIP3   OH222536   0.911   5.641   3.156  0.5439 -0.0306  0.3017
  374TIP3    H122537   0.857   5.720   3.169 -0.4774 -0.8020  0.8000
  374TIP3    H222538   0.997   5.665   3.190  0.0214  0.6047  1.1999
  375TIP3   OH222539   6.349   1.867  12.726  0.3095 -0.3087 -0.1636
  375TIP3    H122540   6.390   1.795  12.774  0.4858  0.3898  0.7418
  375TIP3    H222541   6.385   1.860  12.637  0.8424 -0.9224  0.0944
  376TIP3   OH222542   3.765   5.859  12.044  0.8068 -0.2456 -0.0966
  376TIP3    H122543   3.813   5.869  11.962  2.3042 -1.1753  0.6350
  376TIP3    H222544   3.787   5.937  12.095 -1.7426  1.3411 -1.3394
  377TIP3   OH222545   4.470   0.257  17.172  0.1772  0.4563  0.0966
  377TIP3    H122546   4.482   0.171  17.213  2.6512  0.8971  0.3903
  377TIP3    H222547   4.393   0.247  17.117  0.4184 -1.9648  0.1389
  378TIP3   OH222548   2.861   6.607   1.131 -0.4249 -0.3072  1.1884
  378TIP3    H122549   2.923   6.677   1.152  0.8718 -1.0869  0.0290
  378TIP3    H222550   2.815   6.639   1.053 -0.6738 -0.2358  1.3629
  379TIP3   OH222551   5.578   3.489  14.624 -0.0112 -0.1684 -0.6262
  379TIP3    H122552   5.530   3.554  14.674  0.2296  0.9963 -1.8794
  379TIP3    H222553   5.667   3.493  14.658 -0.2154 -0.5631 -0.0264
  380TIP3   OH222554   0.963   0.838   2.447  0.0465  0.7213 -0.0294
  380TIP3    H122555   0.979   0.923   2.490  0.9479  0.1549  0.7900
  380TIP3    H222556   1.038   0.785   2.472 -0.7805 -0.4935 -0.1059
  381TIP3   OH222557   4.874   0.626   3.304 -0.4241 -0.1100  0.4435
  381TIP3    H122558   4.951   0.601   3.355  1.3512  0.8085 -1.7110
  381TIP3    H222559   4.809   0.654   3.369  1.8541  1.2202  2.1887
  382TIP3   OH222560   0.094   1.962   0.818  0.6050 -0.0390  0.1493
  382TIP3    H122561   0.141   1.893   0.771 -0.4118 -0.4187 -0.3209
  382TIP3    H222562   0.021   1.985   0.760 -0.0132  0.2737  1.0522
  383TIP3   OH222563   1.055   2.028  11.945  0.1966  0.0790 -0.2081
  383TIP3    H122564   1.044   1.938  11.976  1.5515  0.6311  2.0578
  383TIP3    H222565   0.966   2.062  11.939 -0.1955 -0.4488  2.0229
  384TIP3   OH222566   4.903   4.352  14.592 -0.2237  0.1393  0.1753
  384TIP3    H122567   4.877   4.431  14.640  0.0155  0.0660  0.4275
  384TIP3    H222568   4.985   4.326  14.633 -1.0361 -1.0723  1.0580
  385TIP3   OH222569   1.436   5.319  16.408 -0.3629  0.6258 -0.0604
  385TIP3    H122570   1.385   5.376  16.467  0.1164  1.2200 -0.2159
  385TIP3    H222571   1.522   5.314  16.449  0.1616  1.5505 -1.0287
  386TIP3   OH222572   1.468   3.308  13.089 -0.0407 -0.1645  0.5798
  386TIP3    H122573   1.419   3.231  13.059 -1.4012  0.7392  0.4569
  386TIP3    H222574   1.547   3.309  13.035 -1.4845  0.2651 -1.5591
  387TIP3   OH222575   2.997   1.581   5.426  0.0418 -0.3784  0.2993
  387TIP3    H122576   3.022   1.504   5.375  1.3526  0.9496 -1.1180
  387TIP3    H222577   3.075   1.636   5.426 -1.2878  1.5717  0.1427
  388TIP3   OH222578   0.217   2.288  11.947 -0.3301 -0.3023 -0.0102
  388TIP3    H122579   0.190   2.367  11.994  0.1283 -0.1832  0.0553
  388TIP3    H222580   0.144   2.269  11.888 -0.8419 -0.3638  0.6443
  389TIP3   OH222581   0.844   4.461  13.265  0.2969 -0.4508  0.1472
  389TIP3    H122582   0.807   4.373  13.260  3.0960 -1.6807  0.2251
  389TIP3    H222583   0.932   4.448  13.301  0.2545  2.5306  1.5015
  390TIP3   OH222584   3.297   5.553  12.149  0.0357  0.1398  0.2442
  390TIP3    H122585   3.391   5.567  12.164  0.5258 -0.9039 -1.7292
  390TIP3    H222586   3.277   5.604  12.071 -0.8543 -0.3648  0.1376
  391TIP3   OH222587   4.774   3.174   0.627 -0.3141  0.1470 -0.2244
  391TIP3    H122588   4.797   3.226   0.704 -1.1337  0.6037 -0.2907
  391TIP3    H222589   4.686   3.140   0.646  0.1768 -1.1478 -0.2080
  392TIP3   OH222590   5.966   5.863   5.049  0.4198 -0.5300 -0.4778
  392TIP3    H122591   6.008   5.937   5.004  0.8080  0.7600  1.9346
  392TIP3    H222592   5.995   5.786   5.000  0.9186  0.8089 -2.3627
  393TIP3   OH222593   1.670   3.206  11.878  0.4373  0.1404 -0.4505
  393TIP3    H122594   1.704   3.287  11.839  2.3994 -1.9080 -3.1588
  393TIP3    H222595   1.637   3.234  11.964  0.4478  3.9181 -1.5578
  394TIP3   OH222596   1.353   3.875   1.778 -0.1264 -0.4078  0.6856
  394TIP3    H122597   1.433   3.849   1.823 -0.3268 -0.6411  0.9086
  394TIP3    H222598   1.318   3.946   1.832 -1.0991 -1.6062  1.6894
  395TIP3   OH222599   0.978   1.756  16.844 -0.5624  0.3467  0.5303
  395TIP3    H122600   0.921   1.821  16.886 -2.3081 -0.3366 -0.7151
  395TIP3    H222601   0.924   1.677  16.842  0.6033 -0.4169 -0.3231
  396TIP3   OH222602   2.302   1.598  14.918  0.2512  0.3362 -0.1204
  396TIP3    H122603   2.314   1.639  14.832 -0.6417 -1.3782 -1.0953
  396TIP3    H222604   2.390   1.596  14.956  0.5118  1.9127 -0.6008
  397TIP3   OH222605   6.774   3.654  14.762 -0.1665  0.1700 -0.3227
  397TIP3    H122606   6.740   3.732  14.718  0.7244  0.0738 -1.2067
  397TIP3    H222607   6.707   3.587  14.749 -0.4951  0.5174 -0.4071
  398TIP3   OH222608   6.574   2.371   1.283  0.0690  0.1843  0.2183
  398TIP3    H122609   6.498   2.428   1.277  0.6351  0.8762 -0.5460
  398TIP3    H222610   6.560   2.319   1.363 -0.3465  1.5390  1.0277
  399TIP3   OH222611   5.827   6.691  14.963  0.4256 -0.6972 -0.0533
  399TIP3    H122612   5.782   6.644  15.033  0.5658 -0.2285  0.3566
  399TIP3    H222613   5.757   6.713  14.900  0.1997 -0.5984  0.2305
  400TIP3   OH222614   3.397   1.435  16.518  0.2357  0.8453 -0.0907
  400TIP3    H122615   3.392   1.339  16.522  1.0753  0.8345  1.2423
  400TIP3    H222616   3.489   1.453  16.497 -0.1069  1.3438 -1.1478
  401TIP3   OH222617   6.163   6.140  12.845 -0.3493  0.2344 -0.4280
  401TIP3    H122618   6.106   6.103  12.778  0.2562  1.4602 -1.6555
  401TIP3    H222619   6.240   6.170  12.796  0.2013  0.9279  0.8457
  402TIP3   OH222620   1.077   5.455  12.987  0.0196 -0.2817  0.0336
  402TIP3    H122621   1.092   5.550  12.989 -2.5206  0.1988 -0.9451
  402TIP3    H222622   1.064   5.431  13.078  2.5234 -0.0451  0.4878
  403TIP3   OH222623   5.154   1.669  13.774 -0.2627 -0.4060 -0.4052
  403TIP3    H122624   5.092   1.722  13.725  1.5860  0.3243 -2.0313
  403TIP3    H222625   5.151   1.704  13.863 -0.8086  0.8607 -0.9134
  404TIP3   OH222626   3.222   2.846   1.425 -0.2871  0.0573  0.6636
  404TIP3    H122627   3.164   2.889   1.488 -0.5158  1.5084 -0.5261
  404TIP3    H222628   3.304   2.833   1.473 -1.6775 -2.4108  2.5015
  405TIP3   OH222629   5.229   3.305   2.619 -0.3737 -0.1644 -0.6856
  405TIP3    H122630   5.293   3.375   2.630 -0.7118  0.0031  0.2505
  405TIP3    H222631   5.147   3.341   2.651 -1.0272 -0.2603 -2.2230
  406TIP3   OH222632   4.502   1.405  15.907 -0.2236 -0.0932 -0.0101
  406TIP3    H122633   4.520   1.350  15.832  2.3454  1.5893 -0.7035
  406TIP3    H222634   4.528   1.353  15.983  4.4436  0.9019 -0.7894
  407TIP3   OH222635   1.400   2.876  15.741 -0.3217 -0.1971  0.1709
  407TIP3    H122636   1.327   2.815  15.729  0.4803 -1.5359  1.8289
  407TIP3    H222637   1.461   2.855  15.670  0.0108 -1.4591  0.8091
  408TIP3   OH222638   5.883   2.395  13.412  0.0174 -0.4419 -0.2705
  408TIP3    H122639   5.798   2.439  13.406  0.3077  0.0160 -1.1091
  408TIP3    H222640   5.924   2.410  13.327  1.1827 -0.1416  0.3326
  409TIP3   OH222641   5.925   4.171  13.388 -0.3906 -0.2198 -0.3568
  409TIP3    H122642   5.957   4.106  13.326 -1.4351 -1.9530  0.8566
  409TIP3    H222643   5.918   4.123  13.471  0.8335  1.9957  1.0657
  410TIP3   OH222644   1.845   1.361   4.451 -0.2587  0.3168 -0.5424
  410TIP3    H122645   1.869   1.410   4.372  0.8692  1.5314  0.5410
  410TIP3    H222646   1.783   1.417   4.496  1.9728  1.3564  1.3337
  411TIP3   OH222647   0.427   2.532  11.861  0.0051 -0.1131  0.3937
  411TIP3    H122648   0.466   2.620  11.863 -1.9119  0.8255 -1.8094
  411TIP3    H222649   0.459   2.494  11.779 -0.8864 -0.6643  0.3029
  412TIP3   OH222650   5.361   3.491  13.576  0.1736  0.0835 -0.2792
  412TIP3    H122651   5.455   3.493  13.591  0.2069 -1.6507 -0.0582
  412TIP3    H222652   5.348   3.536  13.493  1.0340  1.5838  0.3924
  413TIP3   OH222653   0.823   4.861   1.520  0.1873  0.9937  0.4395
  413TIP3    H122654   0.895   4.913   1.484 -0.2991 -1.3003 -4.2297
  413TIP3    H222655   0.865   4.805   1.586  2.7475 -0.2324 -2.1141
  414TIP3   OH222656   1.365   1.446   1.972 -0.4383 -0.0498 -0.5416
  414TIP3    H122657   1.431   1.387   1.936  0.3612  0.7732 -0.4559
  414TIP3    H222658   1.374   1.526   1.920 -0.8553  0.3317 -0.0319
  415TIP3   OH222659   5.944   1.677  11.732 -0.1326 -0.2437  0.0666
  415TIP3    H122660   5.878   1.711  11.792 -0.6052 -0.1371 -0.5013
  415TIP3    H222661   6.018   1.737  11.741 -0.2754 -0.1209  0.4098
  416TIP3   OH222662   2.816   0.270   3.106  0.3739 -0.1165  0.5319
  416TIP3    H122663   2.760   0.300   3.035 -0.3382  1.5658  1.7740
  416TIP3    H222664   2.793   0.178   3.117  1.8373 -0.9345 -2.6396
  417TIP3   OH222665   4.445   5.336  14.866 -0.3097  0.5545  0.4977
  417TIP3    H122666   4.422   5.422  14.830 -0.6652  0.0524 -0.4797
  417TIP3    H222667   4.493   5.293  14.796 -0.2313 -0.0880  0.9498
  418TIP3   OH222668   2.324   1.108   3.388 -0.2951  0.3412  0.3371
  418TIP3    H122669   2.291   1.078   3.303 -0.2894  0.2020  0.3840
  418TIP3    H222670   2.276   1.189   3.405  1.6388  1.8325 -1.0767
  419TIP3   OH222671   6.220   5.073   4.856 -0.3078  0.3130 -0.1592
  419TIP3    H122672   6.277   5.094   4.930 -1.0600 -1.6150  0.9990
  419TIP3    H222673   6.138   5.118   4.876 -0.0546  0.9517 -0.5362
  420TIP3   OH222674   6.041   6.660  11.663  0.1915  0.3269  0.4715
  420TIP3    H122675   5.994   6.626  11.739 -1.4376  0.3656 -0.5072
  420TIP3    H222676   6.120   6.606  11.658 -1.9200 -2.7968 -0.5319
  421TIP3   OH222677   3.516   1.150  14.457 -0.2083  0.2522  0.8220
  421TIP3    H122678   3.458   1.226  14.451 -0.2459  0.0653 -1.4145
  421TIP3    H222679   3.576   1.159  14.383  0.9395 -0.9552  1.5857
  422TIP3   OH222680   6.223   2.201   5.535  0.1811  0.0888 -0.0752
  422TIP3    H122681   6.139   2.157   5.529 -0.5653  1.3225  1.0513
  422TIP3    H222682   6.261   2.169   5.617 -0.1420  1.1401  0.4927
  423TIP3   OH222683   6.582   5.953  14.379 -0.0059 -0.2106 -0.4639
  423TIP3    H122684   6.636   5.876  14.361  1.2786  0.7069 -0.5920
  423TIP3    H222685   6.595   5.972  14.472 -1.0520 -0.6843 -0.2080
  424TIP3   OH222686   5.639   3.322  15.253  0.0876  0.0909  0.1875
  424TIP3    H122687   5.564   3.274  15.219  0.5704  1.1687 -2.6116
  424TIP3    H222688   5.687   3.349  15.174  2.8520  0.2940  1.8811
  425TIP3   OH222689   2.072   4.036   1.469  0.2246  0.4133  0.5845
  425TIP3    H122690   2.036   4.049   1.556  0.7139 -1.5650  1.0884
  425TIP3    H222691   2.163   4.011   1.483  0.2293 -0.2229 -0.4725
  426TIP3   OH222692   5.462   1.878  12.122  0.6061 -0.1860  0.1365
  426TIP3    H122693   5.490   1.836  12.204  0.0148 -0.7597  0.0477
  426TIP3    H222694   5.482   1.814  12.054  1.5748  0.4962 -0.2359
  427TIP3   OH222695   6.729   3.828  16.083  0.2894 -0.0967 -0.3029
  427TIP3    H122696   6.810   3.786  16.052 -0.2504 -0.0589 -1.7938
  427TIP3    H222697   6.758   3.911  16.121  0.6730  1.3752 -3.6385
  428TIP3   OH222698   4.079   6.151  13.330 -0.4828 -1.0980 -0.0807
  428TIP3    H122699   4.080   6.240  13.294  1.3752 -0.6370  1.0631
  428TIP3    H222700   4.072   6.095  13.253 -1.2051  0.0054 -0.8515
  429TIP3   OH222701   5.002   6.408  12.156 -0.1675 -0.3566  0.8497
  429TIP3    H122702   4.999   6.407  12.061 -0.4869  0.5758  0.8493
  429TIP3    H222703   5.015   6.316  12.180 -0.6887 -0.6802 -0.0673
  430TIP3   OH222704   5.865   0.532  12.781 -0.2417 -0.5370 -0.5118
  430TIP3    H122705   5.859   0.497  12.870  0.0162 -0.6889 -0.5511
  430TIP3    H222706   5.939   0.485  12.742  0.3892  0.3701 -0.4229
  431TIP3   OH222707   2.204   0.734   0.235  0.4215 -0.3295 -0.6572
  431TIP3    H122708   2.235   0.824   0.240 -3.0769  0.8544  0.7823
  431TIP3    H222709   2.180   0.712   0.325  0.5414 -2.4630 -1.1247
  432TIP3   OH222710   2.916   2.884  12.680 -0.2280  0.5628  0.4397
  432TIP3    H122711   2.859   2.826  12.629 -0.2749  1.1657 -0.2058
  432TIP3    H222712   2.985   2.910  12.619  0.5202  0.1608  1.1028
  433TIP3   OH222713   3.363   6.021   1.561  0.4481  0.0653  0.1235
  433TIP3    H122714   3.451   6.025   1.598 -0.0134  0.0779  1.2532
  433TIP3    H222715   3.370   6.064   1.476  0.8605  3.0804  1.5873
  434TIP3   OH222716   0.265   3.303  16.866 -0.1897 -0.0939 -0.6944
  434TIP3    H122717   0.224   3.351  16.794 -0.3662 -2.1396 -1.9915
  434TIP3    H222718   0.266   3.365  16.938  0.7826  2.3185 -2.7116
  435TIP3   OH222719   1.496   3.542   3.236 -0.2958  0.2705 -0.3247
  435TIP3    H122720   1.435   3.593   3.290 -1.9182 -2.3709  0.4365
  435TIP3    H222721   1.474   3.566   3.146 -0.9269  1.0185  0.0158
  436TIP3   OH222722   2.917   3.150   2.406  0.1431  0.4262  0.2418
  436TIP3    H122723   2.954   3.064   2.425  0.7352  0.2411 -1.7352
  436TIP3    H222724   2.888   3.145   2.315 -1.1911  1.8335  0.5635
  437TIP3   OH222725   2.649   4.582  15.662 -0.1139 -0.0450  0.4479
  437TIP3    H122726   2.678   4.674  15.667 -1.0075  0.3129 -0.8438
  437TIP3    H222727   2.554   4.586  15.672 -0.0936 -0.9131  1.0934
  438TIP3   OH222728   3.044   4.683   2.083  0.0071 -0.4015 -0.1841
  438TIP3    H122729   3.091   4.718   2.007 -1.0839 -1.8466 -1.5542
  438TIP3    H222730   2.966   4.738   2.090  1.2647  1.2607  1.3915
  439TIP3   OH222731   0.242   3.415   0.492  0.4884 -0.1581  0.7815
  439TIP3    H122732   0.271   3.506   0.494 -0.2003  0.1485 -1.7230
  439TIP3    H222733   0.148   3.419   0.509  0.4490 -0.3876  0.6305
  440TIP3   OH222734   0.301   6.692   0.019 -0.4835 -0.9944 -0.1232
  440TIP3    H122735   0.235   6.761   0.021 -0.3595 -0.8965  1.5490
  440TIP3    H222736   0.256   6.616  -0.018 -1.8012 -1.1823  1.8147
  441TIP3   OH222737   6.401   2.152   1.154  1.0486  0.3686  0.1744
  441TIP3    H122738   6.306   2.159   1.148  1.1297 -0.1594 -1.7404
  441TIP3    H222739   6.431   2.243   1.165  0.2580  0.4211  2.0802
  442TIP3   OH222740   6.478   1.323   1.884 -0.1959  0.1146 -0.0662
  442TIP3    H122741   6.529   1.378   1.944  0.4927 -1.2571  0.6349
  442TIP3    H222742   6.512   1.235   1.899 -1.8839 -0.6289 -0.5503
  443TIP3   OH222743   1.757   4.228   0.506 -0.0552  0.3153 -0.0883
  443TIP3    H122744   1.707   4.310   0.510  0.9142  0.9035  0.1636
  443TIP3    H222745   1.846   4.256   0.486 -0.1200 -0.8324 -2.1177
  444TIP3   OH222746   0.083   6.450   2.157  0.4852  0.3478  0.1947
  444TIP3    H122747   0.162   6.407   2.190 -0.4329 -1.8357 -0.4055
  444TIP3    H222748   0.012   6.389   2.177 -1.0480  2.1992  0.5701
  445TIP3   OH222749   1.136   3.884  14.944  0.1239  0.0950  0.2016
  445TIP3    H122750   1.211   3.882  14.885 -0.9229 -0.5627 -1.1479
  445TIP3    H222751   1.061   3.902  14.887 -0.9115 -0.5590  1.3149
  446TIP3   OH222752   4.714   4.970  14.587  0.0666 -0.1758 -0.0128
  446TIP3    H122753   4.804   4.954  14.557  0.6743  1.1843  0.9936
  446TIP3    H222754   4.682   5.039  14.530 -0.1522 -0.3073 -0.0471
  447TIP3   OH222755   4.836   3.517  14.640  0.5103  0.4176  0.2365
  447TIP3    H122756   4.798   3.433  14.665  0.0545  0.6961  0.4948
  447TIP3    H222757   4.765   3.580  14.651  1.0261  0.9357  0.6660
  448TIP3   OH222758   0.274   5.103  15.619 -0.1117  0.1578  0.1205
  448TIP3    H122759   0.242   5.025  15.664  0.7898  0.3555  1.1288
  448TIP3    H222760   0.360   5.078  15.585 -0.4859  0.2322 -0.8910
  449TIP3   OH222761   5.366   4.246  12.622 -0.2866  0.3737 -0.3627
  449TIP3    H122762   5.302   4.279  12.685  0.8265 -1.2134  1.6956
  449TIP3    H222763   5.320   4.245  12.538 -2.5235  0.4534  0.8376
  450TIP3   OH222764   2.174   3.237  15.136  0.1708  0.4100  0.7998
  450TIP3    H122765   2.161   3.298  15.210 -1.2400  0.7176  0.3240
  450TIP3    H222766   2.085   3.213  15.110  0.7007 -1.1514  0.3819
  451TIP3   OH222767   2.102   6.476  16.200  0.6992  0.0168  0.0484
  451TIP3    H122768   2.152   6.542  16.151 -0.5381  0.2014 -1.0096
  451TIP3    H222769   2.100   6.400  16.143 -1.2734  0.4364 -0.5019
  452TIP3   OH222770   2.989   6.656  15.892  0.2659 -0.0050 -0.2534
  452TIP3    H122771   3.069   6.660  15.945  0.0749  2.6183 -0.1056
  452TIP3    H222772   2.921   6.628  15.953  0.4904  0.7751  0.3686
  453TIP3   OH222773   1.749   5.623   4.486 -0.0334  0.7075  0.4322
  453TIP3    H122774   1.690   5.583   4.421 -0.7902  1.3113  0.7427
  453TIP3    H222775   1.828   5.569   4.482  0.1469  1.0743 -1.3975
  454TIP3   OH222776   6.614   1.127  11.251 -0.2461  0.0798 -0.0161
  454TIP3    H122777   6.686   1.080  11.294 -0.7974 -0.8375 -0.0681
  454TIP3    H222778   6.538   1.071  11.266 -0.6463  0.2771 -1.2642
  455TIP3   OH222779   2.182   4.549   3.447 -0.0974  0.0314 -0.2312
  455TIP3    H122780   2.211   4.479   3.388 -1.4435  1.0023 -2.1082
  455TIP3    H222781   2.090   4.563   3.424 -0.7005  0.3288  2.2587
  456TIP3   OH222782   5.905   4.906   2.105  0.1751  0.3124  0.3350
  456TIP3    H122783   5.971   4.902   2.035  0.9471  1.3638  0.9889
  456TIP3    H222784   5.913   4.994   2.140 -0.7519  0.0435  1.2425
  457TIP3   OH222785   2.053   0.675  13.840 -0.3104 -0.0298 -0.1172
  457TIP3    H122786   1.991   0.607  13.867  0.2271 -1.0272 -1.3746
  457TIP3    H222787   2.017   0.709  13.758  0.0027  0.4643 -0.0534
  458TIP3   OH222788   4.084   0.216  14.435 -0.2468  0.1999  0.3219
  458TIP3    H122789   4.070   0.248  14.346  0.7846  1.4346  0.5868
  458TIP3    H222790   4.042   0.281  14.491  0.7189  0.4194  0.8124
  459TIP3   OH222791   5.784   4.559   5.455  0.5766 -0.5124  0.4626
  459TIP3    H122792   5.740   4.526   5.533 -0.3369 -0.6228 -0.1043
  459TIP3    H222793   5.860   4.501   5.444  0.1244 -1.1406  0.6560
  460TIP3   OH222794   2.188   2.614   1.909  0.1242  0.1043 -0.0622
  460TIP3    H122795   2.217   2.611   1.818  0.4240 -2.3839  0.0741
  460TIP3    H222796   2.269   2.604   1.960 -0.1533  0.5368  0.4717
  461TIP3   OH222797   3.881   1.371   3.279 -0.2781 -0.0166  0.4000
  461TIP3    H122798   3.934   1.313   3.226 -1.2416 -1.4267  0.9598
  461TIP3    H222799   3.806   1.318   3.305 -2.2578  2.0913 -0.8324
  462TIP3   OH222800   4.291   4.896  14.239  0.1846  0.2891  0.6144
  462TIP3    H122801   4.223   4.830  14.227 -0.9038  1.1995  1.6676
  462TIP3    H222802   4.373   4.846  14.235 -0.6048 -1.0588  0.9368
  463TIP3   OH222803   2.712   1.335   1.310 -0.6605  1.0982  0.5121
  463TIP3    H122804   2.775   1.265   1.329 -1.3486  0.2821 -0.2004
  463TIP3    H222805   2.748   1.411   1.354  0.0138  0.2549  1.4407
  464TIP3   OH222806   1.371   0.828   2.216 -0.1745  0.0788 -0.0928
  464TIP3    H122807   1.372   0.770   2.292  1.2624  0.0460 -0.1127
  464TIP3    H222808   1.346   0.914   2.251 -0.1411 -0.0774  0.3111
  465TIP3   OH222809   6.481   3.120  12.067 -0.2684 -0.4968  0.7267
  465TIP3    H122810   6.410   3.067  12.103  0.4148 -0.4258  2.2009
  465TIP3    H222811   6.487   3.196  12.126  0.1781  0.1500 -0.1283
  466TIP3   OH222812   6.442   5.426   4.097  0.1277  0.4358 -0.3691
  466TIP3    H122813   6.529   5.407   4.134  1.1181  1.1520 -2.2603
  466TIP3    H222814   6.410   5.341   4.065  1.2731  0.5838 -1.9877
  467TIP3   OH222815   2.873   5.167  11.460 -0.3520 -0.1512 -0.3234
  467TIP3    H122816   2.940   5.098  11.451 -1.2844 -0.8125 -2.3281
  467TIP3    H222817   2.904   5.220  11.534  0.8344 -2.2031  0.7120
  468TIP3   OH222818   0.184   5.851   2.580  0.4966  0.0203  0.4501
  468TIP3    H122819   0.167   5.929   2.633 -0.0189  1.8905 -2.3760
  468TIP3    H222820   0.278   5.834   2.589  0.7887  1.5632  0.3002
  469TIP3   OH222821   4.990   3.965  15.552  0.1742 -0.5446  0.7122
  469TIP3    H122822   4.994   3.988  15.645 -1.5387 -0.2865  0.7385
  469TIP3    H222823   5.036   3.881  15.546  1.5419  0.1479  1.5523
  470TIP3   OH222824   0.161   4.865  15.679  0.2637 -0.2949 -0.4411
  470TIP3    H122825   0.178   4.800  15.747 -1.5315 -0.1951  0.1554
  470TIP3    H222826   0.108   4.818  15.614  0.2903  0.1336 -0.7748
  471TIP3   OH222827   4.610   2.424   4.564 -0.1012  0.6318  0.5037
  471TIP3    H122828   4.660   2.478   4.625 -0.9762  1.7321  0.2742
  471TIP3    H222829   4.530   2.474   4.548 -0.1325  0.0943 -1.1200
  472TIP3   OH222830   6.400   4.279   1.188  0.2218 -0.1797 -0.3985
  472TIP3    H122831   6.479   4.226   1.190 -0.3965 -1.1112  0.4060
  472TIP3    H222832   6.430   4.369   1.199  1.1136 -0.6002  0.6345
  473TIP3   OH222833   3.477   6.542  13.180 -0.4130 -0.1481  0.0005
  473TIP3    H122834   3.394   6.511  13.143 -0.7944  0.7015  0.1510
  473TIP3    H222835   3.495   6.480  13.251 -1.1582 -0.0704  0.2657
  474TIP3   OH222836   4.274   2.181   0.706  0.7717  0.1922  0.3169
  474TIP3    H122837   4.313   2.211   0.624 -0.9612 -0.2562 -0.7031
  474TIP3    H222838   4.277   2.085   0.700  0.5755  0.1564  0.7560
  475TIP3   OH222839   5.962   1.823  13.419  0.2389 -0.4380  0.0155
  475TIP3    H122840   5.958   1.816  13.324  2.1637 -0.8485 -0.0569
  475TIP3    H222841   6.002   1.908  13.436 -0.4692 -0.1893  0.4808
  476TIP3   OH222842   1.161   6.384   3.762 -0.2448 -0.4802 -0.2991
  476TIP3    H122843   1.112   6.390   3.844  0.8140 -1.0217  0.3922
  476TIP3    H222844   1.145   6.467   3.718  0.7722  0.6461  1.3784
  477TIP3   OH222845   4.135   0.959  13.729  0.0535 -0.2828 -0.0258
  477TIP3    H122846   4.051   0.926  13.698  0.3741 -0.2377 -0.9569
  477TIP3    H222847   4.175   0.999  13.651  0.7215  0.1292  0.5230
  478TIP3   OH222848   1.865   6.335  12.899 -0.1176 -0.4370 -0.1068
  478TIP3    H122849   1.776   6.300  12.901 -0.1261 -0.3946  0.1782
  478TIP3    H222850   1.920   6.263  12.930 -0.1376 -0.1867  0.5056
  479TIP3   OH222851   2.955   6.771  13.585  0.2241 -0.4913  0.0456
  479TIP3    H122852   2.918   6.691  13.547  0.1503  0.3003 -1.5787
  479TIP3    H222853   2.930   6.767  13.677 -0.8280 -1.7532 -0.2724
  480TIP3   OH222854   5.494   1.478  14.723 -0.6047 -0.6434 -0.5025
  480TIP3    H122855   5.509   1.405  14.783 -2.5486 -0.1715  0.5998
  480TIP3    H222856   5.432   1.444  14.658  0.5233 -0.7653 -1.5290
  481TIP3   OH222857   4.914   2.474  10.778 -0.0735  0.4107  0.0280
  481TIP3    H122858   4.845   2.528  10.816 -1.4537 -0.4256 -1.2720
  481TIP3    H222859   4.994   2.503  10.823 -1.5391 -0.0302  3.0376
  482TIP3   OH222860   4.632   2.535  16.686 -0.5778  0.3552 -0.2482
  482TIP3    H122861   4.576   2.611  16.705 -1.4330 -0.0047 -1.2462
  482TIP3    H222862   4.708   2.572  16.641  0.2358  0.9003  1.4970
  483TIP3   OH222863   0.315   5.541   5.939  0.4780 -0.4453  0.0920
  483TIP3    H122864   0.371   5.557   5.863 -1.4453 -1.2931 -1.5438
  483TIP3    H222865   0.302   5.627   5.978  0.2203  0.2309 -1.4439
  484TIP3   OH222866   1.820   2.705   6.190  0.1855 -0.0472  0.2584
  484TIP3    H122867   1.773   2.787   6.208 -2.4728 -0.9191 -2.3548
  484TIP3    H222868   1.752   2.644   6.162  2.3145 -2.7724  0.8628
  485TIP3   OH222869   4.477   5.438  12.483 -0.7685  0.2822 -0.4326
  485TIP3    H122870   4.570   5.457  12.496 -0.6622 -1.0088  0.8633
  485TIP3    H222871   4.433   5.500  12.540 -0.6696  0.4637 -0.5532
  486TIP3   OH222872   0.353   0.947   1.932 -0.2746 -0.1031  0.3585
  486TIP3    H122873   0.322   0.945   1.842  2.3988  0.8021 -0.6365
  486TIP3    H222874   0.281   0.987   1.982 -2.1352 -1.4511 -1.1817
  487TIP3   OH222875   6.408   4.060   3.517  0.0982  1.0730 -0.3525
  487TIP3    H122876   6.463   4.121   3.567  0.7918  0.5388 -0.4439
  487TIP3    H222877   6.361   4.115   3.455 -0.0385  1.6296  0.2376
  488TIP3   OH222878   1.602   3.443   3.520 -0.4993 -0.5370  0.5200
  488TIP3    H122879   1.575   3.435   3.612 -0.5096 -2.6426  0.3647
  488TIP3    H222880   1.527   3.485   3.477 -1.8982 -2.6001  0.8666
  489TIP3   OH222881   4.078   0.065   5.298 -0.2434 -0.1738  0.9285
  489TIP3    H122882   4.121   0.046   5.216  0.9504 -1.7363  1.8926
  489TIP3    H222883   4.119   0.146   5.329 -1.6261  1.1628 -0.6142
  490TIP3   OH222884   1.246   2.180  12.642 -0.2771  0.3898  0.0053
  490TIP3    H122885   1.216   2.178  12.733  1.0242  3.2364  0.5634
  490TIP3    H222886   1.166   2.172  12.590 -1.4348  2.3285  1.4348
  491TIP3   OH222887   2.052   1.375   0.870 -0.0795  0.5276 -0.3310
  491TIP3    H122888   2.014   1.443   0.815  0.7744  0.4448 -1.0150
  491TIP3    H222889   2.144   1.371   0.845 -0.0311 -0.6018 -0.0188
  492TIP3   OH222890   4.639   2.540   1.491  0.0457  0.1287  0.4496
  492TIP3    H122891   4.662   2.447   1.484  0.9631  0.1991  2.2722
  492TIP3    H222892   4.588   2.546   1.571  0.3978  1.2791  0.5988
  493TIP3   OH222893   1.276   6.505  16.688 -0.3880  0.1956  0.0990
  493TIP3    H122894   1.315   6.592  16.679 -0.1592  0.0218 -0.6062
  493TIP3    H222895   1.285   6.465  16.602 -0.4533 -0.5501  0.4283
  494TIP3   OH222896   1.541   4.959  12.777 -0.1441  0.1358 -1.3232
  494TIP3    H122897   1.461   5.011  12.765 -0.6074 -0.0577  0.7410
  494TIP3    H222898   1.599   5.017  12.827 -0.5801 -1.1874  0.8072
  495TIP3   OH222899   4.195   6.570   3.075 -0.1244  0.5869 -0.2277
  495TIP3    H122900   4.170   6.659   3.102 -0.0409  0.5529 -0.0388
  495TIP3    H222901   4.178   6.568   2.981  0.2480  0.9274 -0.3036
  496TIP3   OH222902   0.085   5.973   1.990 -0.2009  0.0200 -0.0307
  496TIP3    H122903   0.139   5.902   1.954  0.6510  0.5996  0.0930
  496TIP3    H222904   0.119   6.052   1.948 -0.2228  0.5201  0.8885
  497TIP3   OH222905   2.927   4.015   2.992 -0.1055 -0.2337 -0.2219
  497TIP3    H122906   2.970   3.956   2.930 -1.1643 -1.8152  0.5176
  497TIP3    H222907   2.986   4.019   3.067 -0.7855 -1.7269  0.4309
  498TIP3   OH222908   6.460   1.907  15.192 -0.0976  0.9916 -0.2839
  498TIP3    H122909   6.422   1.825  15.159  2.1572  0.2513 -1.1649
  498TIP3    H222910   6.411   1.975  15.146 -0.9484  0.1108 -0.7312
  499TIP3   OH222911   0.509   5.216  11.982  0.0184  0.2332  0.4878
  499TIP3    H122912   0.547   5.129  11.970 -2.0692 -0.6664  0.1939
  499TIP3    H222913   0.528   5.238  12.073  1.7845  0.0886  0.1710
  500TIP3   OH222914   3.671   1.390   3.474  0.2943  0.4073 -0.1699
  500TIP3    H122915   3.736   1.458   3.488  0.7683 -0.0338 -0.2173
  500TIP3    H222916   3.714   1.309   3.501 -0.2138  0.1045 -0.2522
  501TIP3   OH222917   1.722   3.008  14.412 -0.0939 -0.3490 -0.1543
  501TIP3    H122918   1.677   2.923  14.418 -2.3066  0.9237  2.0957
  501TIP3    H222919   1.705   3.050  14.496  0.4713  2.5857 -1.4580
  502TIP3   OH222920   1.605   3.589  13.681 -0.3368  0.0444 -0.0310
  502TIP3    H122921   1.641   3.576  13.593  0.8686 -0.6083  0.5369
  502TIP3    H222922   1.559   3.673  13.676 -0.7890 -0.2754 -1.4393
  503TIP3   OH222923   6.577   5.866   3.829  0.3239 -0.2548 -0.3503
  503TIP3    H122924   6.521   5.789   3.835  0.2537 -0.0312  2.4966
  503TIP3    H222925   6.632   5.850   3.753 -0.4108 -2.6317 -0.4122
  504TIP3   OH222926   5.356   4.239  11.768 -0.1231  0.7726  0.0116
  504TIP3    H122927   5.262   4.248  11.758 -0.1912 -1.2809 -1.4806
  504TIP3    H222928   5.387   4.210  11.682  1.5426 -0.7948  1.0866
  505TIP3   OH222929   2.521   5.214   3.059 -0.5999  0.0635  0.3415
  505TIP3    H122930   2.550   5.268   3.132 -0.6724 -1.1672  1.2880
  505TIP3    H222931   2.546   5.264   2.981  2.3288 -0.0678  1.1342
  506TIP3   OH222932   1.883   3.428  17.238 -0.0615 -0.6724  0.3025
  506TIP3    H122933   1.914   3.519  17.236 -3.3696  0.5333 -1.2037
  506TIP3    H222934   1.824   3.422  17.163 -3.1119 -2.8578  2.7592
  507TIP3   OH222935   1.530   1.049   5.343 -0.0814  0.2527  0.2935
  507TIP3    H122936   1.567   1.136   5.325 -1.4418  0.9302  0.7026
  507TIP3    H222937   1.444   1.050   5.299 -0.7978 -0.2966  1.6476
  508TIP3   OH222938   1.315   4.208  15.707 -0.2754 -0.2965 -1.2343
  508TIP3    H122939   1.396   4.259  15.705 -0.3362 -0.0896  0.5101
  508TIP3    H222940   1.246   4.274  15.695 -0.3638  0.1136  1.1994
  509TIP3   OH222941   1.686   6.275   4.889 -0.5827  0.4023 -0.0118
  509TIP3    H122942   1.677   6.368   4.906 -3.3830  0.0634  0.6089
  509TIP3    H222943   1.619   6.234   4.944 -0.6832 -1.8124 -1.7211
  510TIP3   OH222944   4.700   6.261  15.525  0.7287  0.5765  0.1047
  510TIP3    H122945   4.673   6.350  15.549 -1.8341  0.0965 -0.8936
  510TIP3    H222946   4.773   6.242  15.584  0.9756  3.1460  0.6803
  511TIP3   OH222947   2.747   1.337   6.452  0.4775 -0.4643  0.0390
  511TIP3    H122948   2.836   1.304   6.457  0.4067 -0.7312 -0.4247
  511TIP3    H222949   2.706   1.285   6.383  0.3295  0.5183 -0.6201
  512TIP3   OH222950   0.543   0.673   4.251 -0.1640 -0.2154  0.4534
  512TIP3    H122951   0.455   0.634   4.248 -0.1577 -0.1570 -0.7759
  512TIP3    H222952   0.543   0.725   4.331 -1.0703 -0.6385  0.7438
  513TIP3   OH222953   2.703   0.618  10.936 -0.2002  0.4123  0.0238
  513TIP3    H122954   2.778   0.622  10.996  1.3498 -0.2149 -1.8307
  513TIP3    H222955   2.740   0.633  10.849 -2.3611  0.9324 -0.8447
  514TIP3   OH222956   2.788   2.241  16.513 -0.4977 -0.8006 -0.5150
  514TIP3    H122957   2.723   2.210  16.575 -1.0482 -1.2967 -1.3284
  514TIP3    H222958   2.806   2.165  16.457  0.5827 -0.5966 -0.4669
  515TIP3   OH222959   2.535   3.882   2.972  0.1485  0.2307  0.7336
  515TIP3    H122960   2.577   3.945   2.914  0.6454 -1.0350 -0.3098
  515TIP3    H222961   2.607   3.827   3.005 -0.4257 -0.6491  0.5561
  516TIP3   OH222962   2.405   3.476   2.159 -0.4039 -0.1771  0.2497
  516TIP3    H122963   2.324   3.510   2.122  0.1088  1.1616  0.3203
  516TIP3    H222964   2.470   3.487   2.089 -0.3472 -1.5445  0.0767
  517TIP3   OH222965   1.801   5.461   0.134 -0.5818  0.4690 -0.3267
  517TIP3    H122966   1.868   5.394   0.122 -1.2367 -0.0472 -1.2476
  517TIP3    H222967   1.849   5.542   0.149  0.2381  0.0177 -0.5099
  518TIP3   OH222968   3.399   5.794  15.554 -0.7378  0.3083  0.2748
  518TIP3    H122969   3.381   5.742  15.475 -1.5979  0.8571  0.1019
  518TIP3    H222970   3.446   5.871  15.521  0.3411 -0.2384  0.5038
  519TIP3   OH222971   4.422   5.960   4.467 -0.7843 -0.2226  0.1379
  519TIP3    H122972   4.508   5.972   4.508 -1.9928  0.2012  2.6651
  519TIP3    H222973   4.417   5.866   4.449 -0.0731 -0.3632  0.6437
  520TIP3   OH222974   0.856   1.493   4.549  0.1025 -0.0097 -0.0319
  520TIP3    H122975   0.794   1.561   4.573  0.8410  0.6245  0.1206
  520TIP3    H222976   0.897   1.527   4.469 -1.5333 -1.5742 -1.5672
  521TIP3   OH222977   0.232   2.464  11.616  0.0329 -0.3310 -0.4278
  521TIP3    H122978   0.319   2.499  11.597  0.5069 -1.4464 -0.3227
  521TIP3    H222979   0.192   2.530  11.673  1.1447 -0.2238  0.2570
  522TIP3   OH222980   3.940   1.461   4.643  0.0170  0.0130 -0.6720
  522TIP3    H122981   3.938   1.367   4.624  1.4832 -0.0007 -0.7670
  522TIP3    H222982   3.901   1.469   4.730  2.1276 -0.9445  0.3860
  523TIP3   OH222983   1.483   5.301   1.639 -0.2347 -0.2380 -0.0309
  523TIP3    H122984   1.558   5.245   1.661 -0.6987 -0.6700  0.4746
  523TIP3    H222985   1.514   5.355   1.567  1.0109  0.5162  1.0427
  524TIP3   OH222986   2.430   2.728   5.200 -0.5450 -0.4784 -0.1131
  524TIP3    H122987   2.507   2.732   5.143  1.4760  0.8756  2.6172
  524TIP3    H222988   2.368   2.672   5.152  1.4781 -0.2872 -3.0976
  525TIP3   OH222989   3.426   5.047   4.828 -0.0222  0.7394 -0.2909
  525TIP3    H122990   3.518   5.032   4.808 -0.2164  0.1961 -0.7461
  525TIP3    H222991   3.389   4.960   4.842 -0.5710  0.9273 -0.5507
  526TIP3   OH222992   4.581   3.686   5.417  0.2592 -0.1968 -0.6061
  526TIP3    H122993   4.512   3.624   5.392  0.1861 -0.4998  0.3229
  526TIP3    H222994   4.533   3.765   5.443  0.3819  0.5697 -2.5892
  527TIP3   OH222995   2.123   3.291  12.414 -0.0381 -0.3020 -0.5189
  527TIP3    H122996   2.046   3.342  12.388 -1.1122 -0.7099  1.7235
  527TIP3    H222997   2.088   3.223  12.471  2.0231 -0.3554  0.7200
  528TIP3   OH222998   0.028   3.260   5.974  0.3442 -0.0213 -0.0838
  528TIP3    H122999  -0.001   3.345   6.007 -0.2318  0.0256 -0.6959
  528TIP3    H223000   0.082   3.282   5.898 -0.3826 -0.2280 -0.6666
  529TIP3   OH223001   5.471   3.036  11.631  0.5183 -0.2794  0.0038
  529TIP3    H123002   5.533   3.085  11.577  0.3545 -1.2182 -1.0356
  529TIP3    H223003   5.388   3.040  11.583  0.4344 -1.3471  0.0479
  530TIP3   OH223004   6.441   3.195  13.388  0.6335 -0.2953 -0.0341
  530TIP3    H123005   6.366   3.185  13.330  1.0885  0.4079 -0.7520
  530TIP3    H223006   6.510   3.142  13.347  1.6315  1.9692 -1.3394
  531TIP3   OH223007   5.632   0.751   0.068 -0.3416  0.2340  0.3565
  531TIP3    H123008   5.680   0.827   0.037  1.2733 -1.1063 -0.5612
  531TIP3    H223009   5.672   0.677   0.021 -2.1931 -1.1167  0.8368
  532TIP3   OH223010   5.510   3.490   3.114  0.4203  0.1289 -0.1815
  532TIP3    H123011   5.434   3.535   3.150  0.2365  0.9305 -1.5567
  532TIP3    H223012   5.583   3.551   3.126  0.6187 -0.1495  0.0481
  533TIP3   OH223013   1.328   6.239  14.471 -0.7583  0.0679 -0.4595
  533TIP3    H123014   1.338   6.332  14.456  0.6036  0.0174  0.0723
  533TIP3    H223015   1.416   6.208  14.493 -0.9079 -1.6003 -2.0321
  534TIP3   OH223016   5.430   4.843  11.772  0.0214 -0.4665 -0.4188
  534TIP3    H123017   5.359   4.899  11.802  1.3069  1.1186 -0.2804
  534TIP3    H223018   5.390   4.756  11.765 -1.5160  0.0812  1.1787
  535TIP3   OH223019   2.510   2.671   5.853  0.0392 -0.3557  0.1329
  535TIP3    H123020   2.468   2.596   5.894  1.4185 -1.2699 -0.1136
  535TIP3    H223021   2.522   2.734   5.924 -0.7336 -0.5432  0.4275
  536TIP3   OH223022   4.784   5.527   4.271  0.1664 -0.1267  0.8858
  536TIP3    H123023   4.840   5.600   4.297  1.0570 -0.2530 -0.6013
  536TIP3    H223024   4.835   5.480   4.204 -0.7551 -1.5938  1.1826
  537TIP3   OH223025   1.237   5.844  15.837  0.4496  0.0128 -0.1370
  537TIP3    H123026   1.247   5.898  15.916  0.9933  0.0281 -0.2158
  537TIP3    H223027   1.191   5.766  15.867 -0.3430  0.5215 -0.0210
  538TIP3   OH223028   4.994   6.318   4.679  0.5695 -0.7891  0.2555
  538TIP3    H123029   4.983   6.411   4.699  2.2270 -0.3536 -0.7816
  538TIP3    H223030   4.926   6.299   4.615  0.0943 -0.3423  0.6230
  539TIP3   OH223031   5.216   4.794  13.400 -0.1077 -0.4862  0.0845
  539TIP3    H123032   5.150   4.785  13.469  0.6504  1.1789  1.0799
  539TIP3    H223033   5.255   4.881  13.416  2.6933 -1.6656 -0.0962
  540TIP3   OH223034   3.579   6.637  14.756  0.1941 -0.5079 -0.1104
  540TIP3    H123035   3.488   6.608  14.763 -0.1067  0.0956 -1.3990
  540TIP3    H223036   3.629   6.557  14.749 -0.2856 -0.8294  0.1037
  541TIP3   OH223037   0.184   1.041  15.947 -0.0690 -0.1175  0.0789
  541TIP3    H123038   0.203   1.110  15.883 -1.6214  0.6074  0.3642
  541TIP3    H223039   0.233   1.067  16.025  1.6068 -0.8565 -0.7194
  542TIP3   OH223040   1.904   4.251   4.769  0.4852  0.2138  0.9632
  542TIP3    H123041   1.930   4.338   4.738 -0.2274 -0.1391 -0.6768
  542TIP3    H223042   1.839   4.268   4.837 -0.0309  0.9506  0.2895
  543TIP3   OH223043   2.829   4.387  17.187 -0.4899  0.5691 -0.8407
  543TIP3    H123044   2.864   4.409  17.100  0.3092 -1.3720 -1.0368
  543TIP3    H223045   2.735   4.374  17.172 -0.2731 -0.2551 -1.5177
  544TIP3   OH223046   5.692   3.462  13.553 -0.2103 -0.1902 -0.1514
  544TIP3    H123047   5.716   3.394  13.491  1.5898  2.1445 -2.1531
  544TIP3    H223048   5.764   3.526  13.547 -1.5820  1.6311  1.9996
  545TIP3   OH223049   0.759   0.979  13.360  0.2739 -0.2539  0.5841
  545TIP3    H123050   0.768   0.917  13.432 -0.5295 -0.0227  0.8913
  545TIP3    H223051   0.770   1.065  13.400  2.0892 -0.2207  0.0390
  546TIP3   OH223052   5.096   6.427   2.749 -0.2635 -0.2219  0.4173
  546TIP3    H123053   5.108   6.521   2.757  2.9981 -0.5935  0.6433
  546TIP3    H223054   5.027   6.417   2.684  0.2981  2.3326 -0.6280
  547TIP3   OH223055   0.754   4.083   4.592 -0.2393  0.1456 -0.0431
  547TIP3    H123056   0.757   4.022   4.665 -2.8960 -0.3255 -0.2782
  547TIP3    H223057   0.801   4.160   4.623 -1.2463 -0.0934  2.1612
  548TIP3   OH223058   5.316   1.505   0.496  0.1879 -0.1310 -0.1021
  548TIP3    H123059   5.245   1.538   0.441 -0.4479 -0.5896  0.4378
  548TIP3    H223060   5.281   1.424   0.534  0.8324 -0.1135  0.5335
  549TIP3   OH223061   2.097   5.493   3.916 -0.0290  0.3742 -0.1740
  549TIP3    H123062   2.159   5.426   3.888 -1.3983 -0.9918 -0.0061
  549TIP3    H223063   2.133   5.526   3.998 -0.4592 -1.7185  0.8853
  550TIP3   OH223064   2.064   3.942  14.458 -0.1662  0.2981  0.4926
  550TIP3    H123065   2.153   3.908  14.473 -0.7817 -1.2182  0.7989
  550TIP3    H223066   2.071   3.990  14.375  0.7908 -0.3837  0.1603
  551TIP3   OH223067   0.208   4.928  16.911 -0.1887 -0.0230  0.0959
  551TIP3    H123068   0.293   4.956  16.878 -0.3709  0.5319  0.0958
  551TIP3    H223069   0.228   4.887  16.995  0.1131 -0.1613 -0.0421
  552TIP3   OH223070   4.860   3.055  13.524  0.7624  0.9002  0.3492
  552TIP3    H123071   4.823   2.967  13.516  0.2706  1.2473 -1.4296
  552TIP3    H223072   4.929   3.046  13.589  0.8097 -0.8466  0.0811
  553TIP3   OH223073   1.321   1.280  12.240 -0.9769 -0.1344  0.1023
  553TIP3    H123074   1.235   1.307  12.206 -1.3219  1.4274  2.1252
  553TIP3    H223075   1.304   1.252  12.330  0.5521 -0.3375  0.3450
  554TIP3   OH223076   6.118   2.542   0.452  0.6167 -0.5125 -0.0629
  554TIP3    H123077   6.074   2.550   0.368  1.0397 -2.5291 -0.4890
  554TIP3    H223078   6.136   2.632   0.478 -2.6902  0.3161 -0.4387
  555TIP3   OH223079   6.592   3.470   3.323  0.3103  1.1209 -0.4266
  555TIP3    H123080   6.680   3.469   3.285  0.5161  0.4471  0.0590
  555TIP3    H223081   6.563   3.379   3.319  0.1996  1.1002  0.7177
  556TIP3   OH223082   2.986   5.285   6.800 -0.0665  0.8895  0.2435
  556TIP3    H123083   2.966   5.194   6.778 -2.5498  1.7078 -1.0891
  556TIP3    H223084   2.996   5.328   6.715  3.1431  1.4851  0.8508
  557TIP3   OH223085   1.029   4.569   3.884 -0.6014 -0.3786 -0.2052
  557TIP3    H123086   1.057   4.567   3.792  0.3009  0.3635  0.0530
  557TIP3    H223087   0.934   4.564   3.880 -0.7325  2.5086 -1.2937
  558TIP3   OH223088   1.520   6.174   5.440 -0.1583 -0.2155 -0.2447
  558TIP3    H123089   1.595   6.151   5.384 -1.0665 -0.0816 -1.5389
  558TIP3    H223090   1.553   6.165   5.529  1.3840 -0.2218 -0.8053
  559TIP3   OH223091   0.656   0.870  11.682 -0.0696 -0.5395  0.4144
  559TIP3    H123092   0.729   0.877  11.621 -1.8056  1.0645 -1.5920
  559TIP3    H223093   0.645   0.776  11.696  0.4873 -0.9329 -1.6188
  560TIP3   OH223094   0.709   1.403  12.039  0.0604  0.1878 -0.1225
  560TIP3    H123095   0.771   1.441  12.101 -0.0906 -0.7750  0.6130
  560TIP3    H223096   0.632   1.459  12.046  1.0343  1.7964 -1.5191
  561TIP3   OH223097   6.270   3.127  14.584 -0.6527  0.1494  0.2036
  561TIP3    H123098   6.349   3.123  14.637 -1.6000  0.7723  1.7001
  561TIP3    H223099   6.241   3.036  14.576  1.7815 -0.4404 -2.8365
  562TIP3   OH223100   5.428   3.150   5.481  0.0850  0.5050  0.1933
  562TIP3    H123101   5.443   3.127   5.573 -1.4209  1.5303  0.6972
  562TIP3    H223102   5.485   3.090   5.432  0.8786 -0.0586  1.7853
  563TIP3   OH223103   5.138   2.157  11.940  0.0420  0.4092 -0.0748
  563TIP3    H123104   5.093   2.177  11.857  0.1389 -0.5842 -0.3762
  563TIP3    H223105   5.190   2.079  11.920  1.2282  1.0397  0.5171
  564TIP3   OH223106   5.918   3.764   3.570  0.1140 -0.7806 -0.0361
  564TIP3    H123107   5.852   3.817   3.525  1.6687 -0.0719 -1.5705
  564TIP3    H223108   5.951   3.705   3.502  1.6457 -0.5278  0.4662
  565TIP3   OH223109   0.674   5.195   2.329  0.4773  0.2487 -0.3970
  565TIP3    H123110   0.654   5.284   2.357 -0.5364 -0.7816  2.3681
  565TIP3    H223111   0.766   5.197   2.304  1.0692  1.5951  1.7814
  566TIP3   OH223112   4.939   6.637   0.528 -0.6053  0.2034 -0.3246
  566TIP3    H123113   4.846   6.614   0.531 -0.9339  1.4695 -0.7085
  566TIP3    H223114   4.944   6.721   0.573  0.8292 -1.3439  2.4983
  567TIP3   OH223115   1.878   5.687   0.968 -0.6726 -0.3226 -0.0408
  567TIP3    H123116   1.792   5.657   0.938 -0.8912 -0.3731  0.6137
  567TIP3    H223117   1.940   5.645   0.909 -1.1631  0.9057 -1.4644
  568TIP3   OH223118   1.214   4.351  12.995  0.7885  0.1503  0.1221
  568TIP3    H123119   1.252   4.317  12.914 -1.2278 -0.7980 -0.4668
  568TIP3    H223120   1.198   4.274  13.049  2.7329  0.8429  1.7202
  569TIP3   OH223121   5.283   3.788  13.256  0.4332 -0.4944 -0.3136
  569TIP3    H123122   5.245   3.792  13.344  1.3413 -2.3593  0.1844
  569TIP3    H223123   5.208   3.799  13.198  0.2667  4.3756  0.6310
  570TIP3   OH223124   2.866   0.938  12.204  0.3183  0.2462 -0.0366
  570TIP3    H123125   2.833   0.979  12.124  0.1337  0.1686 -0.0001
  570TIP3    H223126   2.960   0.927  12.188  0.5113  1.3776  0.2426
  571TIP3   OH223127   3.089   6.051   3.522  0.3028  0.4992  0.0469
  571TIP3    H123128   3.058   5.975   3.472  2.0759 -2.3113  2.9841
  571TIP3    H223129   3.174   6.072   3.484 -0.4928  1.4497 -1.2090
  572TIP3   OH223130   5.798   2.462   3.506 -0.1736  0.1401 -0.4560
  572TIP3    H123131   5.868   2.447   3.442  0.7029 -1.4515  0.8397
  572TIP3    H223132   5.750   2.380   3.509 -1.7171  1.0092 -0.8373
  573TIP3   OH223133   3.703   0.219   4.978 -0.1466  0.5201  0.0163
  573TIP3    H123134   3.732   0.286   5.040 -0.5134  0.3409  0.3831
  573TIP3    H223135   3.773   0.153   4.978 -0.1468  0.5210  0.2366
  574TIP3   OH223136   4.608   5.175  15.659  0.1282  0.0768 -0.1263
  574TIP3    H123137   4.701   5.157  15.672  0.1180  1.3751  2.0313
  574TIP3    H223138   4.604   5.224  15.577  1.2473 -0.7157 -0.6611
  575TIP3   OH223139   6.151   6.365   2.962 -0.9087 -0.0715 -0.0552
  575TIP3    H123140   6.093   6.321   3.023  0.1191 -1.9841 -0.4055
  575TIP3    H223141   6.239   6.351   2.998 -0.2503 -1.6731 -2.2113
  576TIP3   OH223142   6.444   3.559  16.300 -0.2518  0.0243  0.4886
  576TIP3    H123143   6.468   3.633  16.355  1.0005 -1.1468  1.5500
  576TIP3    H223144   6.521   3.544  16.245 -0.3893 -0.6627  0.4734
  577TIP3   OH223145   1.315   2.652   4.110 -0.4355 -0.1451 -0.5692
  577TIP3    H123146   1.393   2.707   4.102 -0.1748 -0.6731 -1.8616
  577TIP3    H223147   1.276   2.676   4.194  0.6567  0.7271 -0.3075
  578TIP3   OH223148   5.506   1.153   2.232  0.6022  0.3378  0.0820
  578TIP3    H123149   5.475   1.199   2.154 -0.4114  0.0197  0.2992
  578TIP3    H223150   5.435   1.160   2.295 -0.2191 -2.8776 -0.4234
  579TIP3   OH223151   5.112   1.316   3.821 -0.2214 -0.2811  0.0993
  579TIP3    H123152   5.124   1.298   3.728  1.3396 -1.6752  0.5429
  579TIP3    H223153   5.200   1.338   3.852 -0.3325 -1.9546  1.6765
  580TIP3   OH223154   4.699   6.532  13.109 -0.2412 -0.3585  0.0088
  580TIP3    H123155   4.622   6.577  13.074 -0.9506  0.1346  2.0988
  580TIP3    H223156   4.749   6.600  13.153  0.7225 -0.9200 -0.2167
  581TIP3   OH223157   0.444   0.353   1.588 -0.1768  0.3385  0.0680
  581TIP3    H123158   0.402   0.297   1.523  1.7971  1.6058 -2.4096
  581TIP3    H223159   0.383   0.355   1.662 -1.3593 -3.1177 -0.7291
  582TIP3   OH223160   4.516   2.031   1.153  0.0786  0.1485  0.1289
  582TIP3    H123161   4.424   2.037   1.180  0.3808  1.6499  0.9414
  582TIP3    H223162   4.553   2.117   1.176  1.4689 -0.1214 -0.9993
  583TIP3   OH223163   5.815   0.782  14.450 -0.5139 -0.2057  0.3814
  583TIP3    H123164   5.821   0.690  14.472  2.2323  0.4514  2.5901
  583TIP3    H223165   5.758   0.820  14.517 -0.4295 -0.0166  0.3485
  584TIP3   OH223166   4.106   4.962  11.346 -0.0941  0.2021 -0.1770
  584TIP3    H123167   4.052   5.008  11.281 -1.4115 -1.4754 -0.3057
  584TIP3    H223168   4.172   4.917  11.294  0.1440  0.5442 -0.1774
  585TIP3   OH223169   5.874   5.692  14.344  0.0919 -0.1377 -0.1042
  585TIP3    H123170   5.954   5.647  14.372  0.1866 -0.6088 -1.1294
  585TIP3    H223171   5.822   5.624  14.301  0.1185  0.6711 -1.4280
  586TIP3   OH223172   1.706   4.827  12.352 -0.5853  0.4690 -0.2250
  586TIP3    H123173   1.751   4.912  12.351 -0.8880  0.6528  1.1962
  586TIP3    H223174   1.613   4.850  12.343 -0.6026  0.2310 -0.6824
  587TIP3   OH223175   3.812   3.471  15.644  0.8123 -0.1419  0.6658
  587TIP3    H123176   3.750   3.447  15.712 -0.2993 -1.4365 -0.7729
  587TIP3    H223177   3.785   3.559  15.617  0.3197 -0.2367  0.8492
  588TIP3   OH223178   4.623   2.398   4.877 -0.0959 -0.3008 -0.5970
  588TIP3    H123179   4.613   2.338   4.951  0.5418  1.5141  1.0075
  588TIP3    H223180   4.547   2.455   4.882  0.5453  0.5703 -0.6288
  589TIP3   OH223181   1.918   5.730  15.427 -0.3517 -0.8042  0.0506
  589TIP3    H123182   1.875   5.804  15.384 -0.2675 -0.8268 -0.0732
  589TIP3    H223183   1.861   5.656  15.408 -0.6319 -0.7028  0.4880
  590TIP3   OH223184   0.692   0.216   2.243 -0.1658  0.1336  0.9496
  590TIP3    H123185   0.731   0.141   2.199 -2.5400 -0.8386  0.4293
  590TIP3    H223186   0.721   0.208   2.334 -1.4853 -2.2167  1.2065
  591TIP3   OH223187   3.452   3.846  11.796 -0.2916 -0.4782  0.4906
  591TIP3    H123188   3.454   3.941  11.797  0.0692 -0.3717 -3.2241
  591TIP3    H223189   3.398   3.822  11.872 -1.3421  2.6916  0.8110
  592TIP3   OH223190   5.292   3.425  15.713 -0.0360 -0.0755  0.0536
  592TIP3    H123191   5.299   3.432  15.618 -0.0950  1.0324  0.1214
  592TIP3    H223192   5.383   3.422  15.743 -0.0285 -1.1352 -0.0873
  593TIP3   OH223193   6.487   6.370   0.849 -0.4666 -0.1118  0.2882
  593TIP3    H123194   6.537   6.311   0.906  0.5290  1.1531  0.7444
  593TIP3    H223195   6.462   6.315   0.775  1.6097 -0.7944  0.0608
  594TIP3   OH223196   0.963   2.544  12.515 -0.0886  0.2405 -0.4083
  594TIP3    H123197   0.970   2.449  12.524 -0.2442  0.3741  1.3315
  594TIP3    H223198   0.960   2.559  12.421  0.4990 -1.4374 -0.7098
  595TIP3   OH223199   3.685   2.420  16.041 -0.1424 -0.0580 -0.2413
  595TIP3    H123200   3.634   2.344  16.013 -2.2954  1.2369  0.0405
  595TIP3    H223201   3.626   2.494  16.029  1.4698  1.4188  0.7002
  596TIP3   OH223202   3.491   2.758  10.754 -0.2399  0.4409  0.3339
  596TIP3    H123203   3.583   2.786  10.762 -0.1644  0.2259  0.2411
  596TIP3    H223204   3.486   2.678  10.807 -0.2398  0.1543 -0.0940
  597TIP3   OH223205   0.518   3.240   4.644 -0.3359 -0.4588 -0.3149
  597TIP3    H123206   0.472   3.160   4.670  0.2425 -0.7611 -0.2202
  597TIP3    H223207   0.594   3.244   4.702 -1.1125  0.9001  0.6183
  598TIP3   OH223208   0.018   3.988  16.744 -0.3129 -0.4453  0.3702
  598TIP3    H123209   0.044   4.037  16.665  0.8846 -1.1296  0.3248
  598TIP3    H223210  -0.076   3.973  16.733 -0.4893  0.9400 -0.1095
  599TIP3   OH223211   1.598   6.281  14.656 -1.1807  0.2127  0.3925
  599TIP3    H123212   1.647   6.333  14.593  1.4401 -2.1940  0.3293
  599TIP3    H223213   1.644   6.294  14.739  0.8013 -3.4366 -0.0161
  600TIP3   OH223214   4.576   5.383  13.591  0.3711 -0.4954  0.3115
  600TIP3    H123215   4.648   5.422  13.642  0.9062  0.6615 -1.3011
  600TIP3    H223216   4.499   5.435  13.614  0.3392 -0.7965  0.9072
  601TIP3   OH223217   2.352   4.131  11.703 -0.5594 -0.0478 -0.3392
  601TIP3    H123218   2.385   4.209  11.659  0.4941 -0.2836  0.0216
  601TIP3    H223219   2.350   4.156  11.796  1.0198 -0.8753 -0.0708
  602TIP3   OH223220   4.159   2.925   3.399  0.4313  0.1496 -0.5240
  602TIP3    H123221   4.118   3.011   3.397  1.3338  0.5978 -0.0053
  602TIP3    H223222   4.159   2.900   3.491 -0.8143 -0.8990 -0.7877
  603TIP3   OH223223   2.152   3.624  12.700 -0.3225 -0.0512  0.3900
  603TIP3    H123224   2.183   3.699  12.650  0.7638 -0.6391  0.1617
  603TIP3    H223225   2.190   3.548  12.655 -2.7186 -0.8646 -0.3618
  604TIP3   OH223226   2.387   3.794   3.498 -0.1417  0.3787 -0.2899
  604TIP3    H123227   2.315   3.767   3.441 -0.3640  1.7051 -0.6478
  604TIP3    H223228   2.465   3.761   3.455 -0.3202  1.2236 -1.2959
  605TIP3   OH223229   0.463   0.245  15.017  0.1806  0.3903  0.1051
  605TIP3    H123230   0.414   0.291  14.949 -0.4684 -0.2042  0.1698
  605TIP3    H223231   0.402   0.179  15.050  0.6886  0.3059  0.8698
  606TIP3   OH223232   2.523   6.718  16.594  0.1429  0.1956 -0.3133
  606TIP3    H123233   2.588   6.782  16.563  0.3162 -1.3868 -3.3825
  606TIP3    H223234   2.565   6.633  16.580 -1.3897 -0.7331  0.6405
  607TIP3   OH223235   4.371   0.375   1.546 -0.0705  0.1338  0.0059
  607TIP3    H123236   4.418   0.442   1.596  0.5811 -0.9392  0.8487
  607TIP3    H223237   4.428   0.298   1.549 -1.0376 -0.6177 -0.5368
  608TIP3   OH223238   0.169   0.268  15.932  0.5920 -0.6390  0.5145
  608TIP3    H123239   0.223   0.215  15.873  1.1539  0.2954  0.1664
  608TIP3    H223240   0.227   0.285  16.007  1.0702  0.9737 -0.1798
  609TIP3   OH223241   1.448   4.494   5.458  0.3390  0.0295 -0.2029
  609TIP3    H123242   1.355   4.497   5.431  0.4360  1.9605 -0.3941
  609TIP3    H223243   1.475   4.404   5.438 -1.3935 -0.4605 -0.4887
  610TIP3   OH223244   6.210   0.411   3.865 -0.0883  0.2869  0.1080
  610TIP3    H123245   6.229   0.317   3.861  0.7268  0.3395  2.1740
  610TIP3    H223246   6.296   0.453   3.856 -0.1487  0.7546  1.6236
  611TIP3   OH223247   2.534   1.343  15.523  0.1698 -0.2531 -0.0087
  611TIP3    H123248   2.475   1.392  15.466  1.0921  0.1358 -0.6330
  611TIP3    H223249   2.531   1.390  15.607  0.3403  0.3278 -0.3293
  612TIP3   OH223250   2.824   2.037   3.158 -0.4564  0.2980 -0.1999
  612TIP3    H123251   2.764   2.111   3.158 -2.9567 -1.6612  0.0570
  612TIP3    H223252   2.853   2.029   3.067 -1.0422  0.9164 -0.4402
  613TIP3   OH223253   4.883   3.198   0.347 -0.0817  0.2558  0.4351
  613TIP3    H123254   4.817   3.131   0.334 -0.1764  0.2077  1.1441
  613TIP3    H223255   4.851   3.250   0.421  0.5498  0.3795  0.6271
  614TIP3   OH223256   3.843   4.542  12.507  0.2846 -0.5344  0.4357
  614TIP3    H123257   3.759   4.497  12.518  1.0795 -2.2814 -0.2898
  614TIP3    H223258   3.860   4.584  12.591 -0.7614 -1.1528  0.9633
  615TIP3   OH223259   0.998   6.168  16.223 -0.4919  0.8157  0.0178
  615TIP3    H123260   0.983   6.105  16.293  0.3244 -0.3850 -0.8568
  615TIP3    H223261   0.962   6.250  16.256 -1.2249 -0.0179  1.3364
  616TIP3   OH223262   3.232   5.213   5.560  0.1109 -0.7690 -0.1286
  616TIP3    H123263   3.274   5.223   5.475  0.2326 -0.6623 -0.0549
  616TIP3    H223264   3.262   5.128   5.592  1.5057 -0.0034  0.6237
  617TIP3   OH223265   5.833   6.340   4.172  0.6607  0.7857 -0.4156
  617TIP3    H123266   5.748   6.384   4.176  0.1655 -0.1006 -1.0155
  617TIP3    H223267   5.855   6.338   4.079  0.8699  0.1166 -0.3559
  618TIP3   OH223268   6.607   5.494  10.123 -0.4351 -0.4347 -0.1882
  618TIP3    H123269   6.578   5.486  10.214 -0.4336  1.7119  0.0305
  618TIP3    H223270   6.527   5.491  10.072 -0.4473 -1.5141 -0.1175
  619TIP3   OH223271   3.056   2.575  17.107  0.3732  0.9591 -0.3089
  619TIP3    H123272   3.041   2.549  17.016  2.7041 -0.1923 -0.4023
  619TIP3    H223273   2.981   2.539  17.155  0.8722 -1.4739 -1.2767
  620TIP3   OH223274   3.227   0.414  14.999  0.4553  0.2913  0.8502
  620TIP3    H123275   3.293   0.345  14.993  1.0954  0.9358  0.3790
  620TIP3    H223276   3.188   0.416  14.911  1.6631  1.7291  0.3397
  621TIP3   OH223277   2.220   5.298  15.807 -0.0927  0.3974 -0.1296
  621TIP3    H123278   2.129   5.324  15.796  0.2071  2.6966  2.1734
  621TIP3    H223279   2.262   5.319  15.723 -1.1915  1.5639 -0.3938
  622TIP3   OH223280   6.622   5.900  14.644 -0.2265  0.4629 -0.0350
  622TIP3    H123281   6.545   5.952  14.668  0.4120  1.0411  0.8094
  622TIP3    H223282   6.616   5.822  14.700 -0.9341 -0.1715 -0.9700
  623TIP3   OH223283   1.790   5.974   0.152  0.1415 -0.0164  0.1251
  623TIP3    H123284   1.836   6.006   0.230  0.0321 -1.4556  0.7892
  623TIP3    H223285   1.712   6.029   0.146  1.4162  1.7635 -0.4220
  624TIP3   OH223286   5.234   2.839   3.220 -0.0594 -0.7971 -0.8203
  624TIP3    H123287   5.233   2.923   3.175  2.1852 -0.9761 -1.2430
  624TIP3    H223288   5.270   2.859   3.307  1.6251 -1.5141 -1.3447
  625TIP3   OH223289   1.330   5.362   5.111 -0.1039  0.7487  0.2691
  625TIP3    H123290   1.400   5.424   5.092  0.4022 -0.4150 -1.8151
  625TIP3    H223291   1.249   5.409   5.092  0.2597  0.9833 -0.7114
  626TIP3   OH223292   2.505   1.853   0.650  0.3606 -0.0537  0.1006
  626TIP3    H123293   2.581   1.855   0.592 -0.3862 -1.6265 -0.9937
  626TIP3    H223294   2.468   1.941   0.644  0.4341 -0.1242 -1.6607
  627TIP3   OH223295   6.629   6.519   5.925 -0.5365 -0.1161 -0.2064
  627TIP3    H123296   6.538   6.547   5.937 -0.8941 -0.1902 -2.5204
  627TIP3    H223297   6.673   6.597   5.891  0.5582  0.2533  1.9473
  628TIP3   OH223298   3.845   6.597   5.988  0.3423 -0.3864  0.2601
  628TIP3    H123299   3.750   6.590   5.990  0.3013  0.2708  0.8704
  628TIP3    H223300   3.868   6.588   5.896 -0.1913 -1.9654  0.2686
  629TIP3   OH223301   4.500   5.882  15.933 -0.0553  0.3074  0.0529
  629TIP3    H123302   4.529   5.853  15.846 -3.3785 -1.2402 -0.6039
  629TIP3    H223303   4.486   5.801  15.982 -2.1868  1.0429  0.6849
  630TIP3   OH223304   6.557   0.718   3.463  0.0598 -0.2913 -0.4168
  630TIP3    H123305   6.524   0.788   3.519 -0.8802 -0.5781 -0.5922
  630TIP3    H223306   6.527   0.637   3.505  0.6483 -0.5625 -0.5167
  631TIP3   OH223307   3.801   0.981  13.976 -0.2114  0.2107 -0.1150
  631TIP3    H123308   3.757   0.898  13.958  1.0623 -0.4246 -0.3109
  631TIP3    H223309   3.880   0.957  14.025 -0.4771  1.4033  0.9394
  632TIP3   OH223310   3.002   6.435  11.424 -0.3243  0.3653 -0.1864
  632TIP3    H123311   2.968   6.521  11.399  1.9811  1.0336 -1.1646
  632TIP3    H223312   3.057   6.408  11.350 -0.4967 -1.6549  0.3918
  633TIP3   OH223313   4.968   1.751  11.460 -0.1985  0.2480 -0.0090
  633TIP3    H123314   4.955   1.680  11.398  0.2502  2.3395 -2.6143
  633TIP3    H223315   4.883   1.795  11.465 -0.7078 -0.9005  2.2386
  634TIP3   OH223316   5.275   1.714  13.311  0.5999  0.0751 -0.6965
  634TIP3    H123317   5.180   1.725  13.314  0.5483 -0.4964 -0.1461
  634TIP3    H223318   5.289   1.659  13.233  0.6813  2.0856 -2.1376
  635TIP3   OH223319   2.954   0.559  17.000 -0.2879  0.5975 -0.2527
  635TIP3    H123320   2.915   0.571  17.086  1.1897 -0.5876  0.6146
  635TIP3    H223321   2.970   0.648  16.967  1.6736  1.0940  1.9021
  636TIP3   OH223322   4.447   0.221  15.986  0.2129  0.3112 -0.3828
  636TIP3    H123323   4.353   0.237  15.975  0.6209  3.3571  0.0551
  636TIP3    H223324   4.473   0.181  15.903 -1.3398  0.0958 -0.7950
  637TIP3   OH223325   5.685   5.746   1.529 -0.7714  0.0929 -0.3449
  637TIP3    H123326   5.648   5.769   1.614 -2.4827  0.6633 -1.2296
  637TIP3    H223327   5.682   5.828   1.478  0.9417 -0.0526 -0.7208
  638TIP3   OH223328   0.392   0.859   5.750  0.1730 -0.5392  0.0105
  638TIP3    H123329   0.453   0.812   5.806 -1.4653  0.5015  2.8075
  638TIP3    H223330   0.443   0.931   5.713  0.8061 -0.0907  1.7378
  639TIP3   OH223331   4.123   1.161  13.495 -0.1085  0.3811  0.8644
  639TIP3    H123332   4.045   1.148  13.442 -0.1636 -0.7290  1.1955
  639TIP3    H223333   4.192   1.185  13.433  0.0909 -1.9755  0.1348
  640TIP3   OH223334   0.411   5.045   3.071  0.3816  0.6205 -0.0688
  640TIP3    H123335   0.496   5.030   3.031  0.0711 -1.6518  0.0823
  640TIP3    H223336   0.431   5.068   3.162  0.8267 -0.1587  0.0342
  641TIP3   OH223337   3.743   3.646  15.435 -0.1766 -0.2242 -0.3489
  641TIP3    H123338   3.753   3.565  15.386  0.3588  0.2529 -1.0333
  641TIP3    H223339   3.830   3.688  15.431 -0.4997  0.4735 -0.1701
  642TIP3   OH223340   3.778   5.813   3.529  0.4055  0.1548 -0.0092
  642TIP3    H123341   3.766   5.744   3.464 -0.9045 -1.1367  1.5514
  642TIP3    H223342   3.857   5.788   3.576  0.9440  0.6951 -0.6244
  643TIP3   OH223343   1.860   2.819  17.107  0.3001 -0.1106  0.0345
  643TIP3    H123344   1.788   2.773  17.062 -0.4521  0.2635  0.8347
  643TIP3    H223345   1.875   2.898  17.055 -0.4853  0.2588  0.3591
  644TIP3   OH223346   2.465   2.965   5.056  0.3486 -0.0857 -0.3036
  644TIP3    H123347   2.432   2.934   5.140  2.4378 -0.9410  0.2463
  644TIP3    H223348   2.435   3.055   5.049  1.9315  0.6860  2.3648
  645TIP3   OH223349   5.298   1.863   4.383 -0.0103  0.9699  0.3191
  645TIP3    H123350   5.369   1.838   4.443 -0.3759 -0.1205  0.2962
  645TIP3    H223351   5.235   1.908   4.439 -0.7690 -0.8169  0.9460
  646TIP3   OH223352   4.027   1.341   0.738 -0.0937  0.0617 -0.1526
  646TIP3    H123353   4.072   1.278   0.683 -0.2623  1.2451 -1.6804
  646TIP3    H223354   3.937   1.343   0.703 -0.3161  0.4915  0.4394
  647TIP3   OH223355   6.147   4.408  14.189 -0.1156 -0.6752  0.0576
  647TIP3    H123356   6.180   4.352  14.118  1.1552 -0.1838  0.2485
  647TIP3    H223357   6.067   4.447  14.153  0.3838 -0.6280 -1.0180
  648TIP3   OH223358   6.177   5.783   2.374 -0.6243  0.7606  0.1609
  648TIP3    H123359   6.085   5.806   2.389 -0.4028  1.0427  1.1635
  648TIP3    H223360   6.222   5.867   2.374 -0.4248  0.6539 -0.7832
  649TIP3   OH223361   1.940   0.796  12.221  0.4241  0.1871  0.2253
  649TIP3    H123362   1.909   0.881  12.252 -1.0664  0.5303 -2.0238
  649TIP3    H223363   2.030   0.813  12.191  0.5438  0.7050  0.8776
  650TIP3   OH223364   4.933   0.467  11.763 -0.1775  0.0160  0.6760
  650TIP3    H123365   5.005   0.505  11.813 -0.7283  0.2003  1.3502
  650TIP3    H223366   4.945   0.500  11.674  0.5381  0.0877  0.7982
  651TIP3   OH223367   1.235   5.269   0.779 -0.5830 -0.1111 -0.4662
  651TIP3    H123368   1.179   5.192   0.773 -0.6398 -0.1969  1.1273
  651TIP3    H223369   1.318   5.241   0.739 -0.7370 -0.8547 -0.2750
  652TIP3   OH223370   0.692   3.375   3.577 -0.0521 -0.3293  0.3139
  652TIP3    H123371   0.705   3.416   3.662  0.1741  1.2396 -0.4582
  652TIP3    H223372   0.646   3.294   3.597 -1.1075  0.6028  1.8232
  653TIP3   OH223373   0.544   1.895  13.033  0.1650 -0.2904 -0.2942
  653TIP3    H123374   0.454   1.892  13.066  0.1650  0.1054 -0.2637
  653TIP3    H223375   0.538   1.945  12.952  0.4231  0.0689 -0.0910
  654TIP3   OH223376   1.268   2.469  14.478  0.0932  0.4586  0.3424
  654TIP3    H123377   1.359   2.481  14.452  0.2033  1.1429  1.0178
  654TIP3    H223378   1.262   2.511  14.564 -0.9634  0.8193  0.1004
  655TIP3   OH223379   3.149   0.342   0.080 -0.1044  0.1232  0.1271
  655TIP3    H123380   3.166   0.294  -0.001 -1.0550  1.3275 -0.8200
  655TIP3    H223381   3.229   0.393   0.095 -1.0253  2.2688 -1.8061
  656TIP3   OH223382   3.265   2.554  14.129  0.5452  0.0546 -0.7776
  656TIP3    H123383   3.357   2.565  14.154  0.3573 -0.3720  0.1069
  656TIP3    H223384   3.241   2.469  14.166 -0.1995  0.1577 -1.0338
  657TIP3   OH223385   3.710   2.043  15.601  0.4911  0.2348 -0.0696
  657TIP3    H123386   3.718   2.032  15.506  0.6947 -0.7387  0.0511
  657TIP3    H223387   3.796   2.018  15.635 -0.1131 -1.0798  0.4987
  658TIP3   OH223388   3.686   2.886  12.195  0.2033 -0.1239  0.5905
  658TIP3    H123389   3.775   2.869  12.166 -0.0818 -1.1329  0.3052
  658TIP3    H223390   3.684   2.980  12.211  0.2635  0.5685 -3.0260
  659TIP3   OH223391   4.762   3.578   1.303  0.1153  0.0240 -0.4221
  659TIP3    H123392   4.759   3.495   1.256  1.2574 -1.2593  1.7401
  659TIP3    H223393   4.849   3.581   1.342 -0.4256  1.5829  0.7248
  660TIP3   OH223394   6.443   2.235   1.510 -0.0190  0.0081 -0.1848
  660TIP3    H123395   6.363   2.183   1.525 -0.7108  1.1940  0.3005
  660TIP3    H223396   6.469   2.264   1.597 -1.0356  2.5112 -0.6823
  661TIP3   OH223397   6.343   2.543   1.247  0.0605  0.2335  0.3841
  661TIP3    H123398   6.304   2.630   1.234  0.2062  0.4739  1.4911
  661TIP3    H223399   6.276   2.482   1.217 -0.1695  0.7215 -0.1092
  662TIP3   OH223400   0.790   3.426   5.161 -0.3813  0.3994 -0.5160
  662TIP3    H123401   0.818   3.412   5.251 -1.2626 -0.4077 -0.3628
  662TIP3    H223402   0.751   3.343   5.134  1.5647  0.0309 -2.2781
  663TIP3   OH223403   0.749   5.117  17.222  0.2168  0.4358  0.4237
  663TIP3    H123404   0.755   5.168  17.141 -0.2915 -0.4224 -0.1547
  663TIP3    H223405   0.839   5.094  17.243  0.2894  0.1106 -0.2452
  664TIP3   OH223406   2.106   1.262   5.273  0.0892  0.4862 -0.2615
  664TIP3    H123407   2.080   1.282   5.363  0.5928  0.4089 -0.0995
  664TIP3    H223408   2.121   1.168   5.272  1.5779  0.7026 -0.0385
  665TIP3   OH223409   2.663   6.674  14.501 -1.0470  0.1582  0.1357
  665TIP3    H123410   2.617   6.593  14.523 -0.2121  0.1134  1.7779
  665TIP3    H223411   2.746   6.643  14.463 -1.3480  0.2449 -0.5993
  666TIP3   OH223412   2.844   5.987   0.999 -0.0161 -0.9194  0.7119
  666TIP3    H123413   2.934   5.964   0.979  0.0981  1.4237 -1.7545
  666TIP3    H223414   2.791   5.937   0.938 -0.1596  0.1835 -0.0881
  667TIP3   OH223415   3.262   2.397  15.590  0.5141 -0.0195  0.4486
  667TIP3    H123416   3.225   2.464  15.533 -1.5146  0.8546  2.6689
  667TIP3    H223417   3.310   2.339  15.532  0.7338  2.3065 -1.7706
  668TIP3   OH223418   1.734   0.813  15.778  0.1965 -0.1486 -0.6016
  668TIP3    H123419   1.756   0.906  15.781 -2.3302  0.4817  0.0286
  668TIP3    H223420   1.783   0.774  15.851  0.3878  0.9050 -0.1591
  669TIP3   OH223421   4.444   4.105  10.606 -0.0153 -0.0534  0.3386
  669TIP3    H123422   4.441   4.193  10.567  0.2778 -0.3591 -0.3743
  669TIP3    H223423   4.487   4.119  10.691 -0.4961  0.5833  0.4845
  670TIP3   OH223424   5.912   2.387   6.383  0.7353  0.3728 -0.6859
  670TIP3    H123425   6.001   2.354   6.371  0.7572  0.2920 -0.3028
  670TIP3    H223426   5.872   2.326   6.445 -0.2823 -0.8452 -2.5139
  671TIP3   OH223427   5.847   2.568  14.013  0.1561 -0.3147  0.3250
  671TIP3    H123428   5.765   2.617  14.022 -0.2146 -0.7650 -0.4974
  671TIP3    H223429   5.863   2.532  14.100  0.1028  0.7374  0.7843
  672TIP3   OH223430   4.839   2.166   6.278 -0.1407 -0.4152  0.9285
  672TIP3    H123431   4.766   2.108   6.253  0.4204 -1.5007  1.7457
  672TIP3    H223432   4.912   2.137   6.224 -0.0186 -0.0652  0.9093
  673TIP3   OH223433   1.916   4.279   3.998 -0.4672 -0.3696  0.0288
  673TIP3    H123434   1.929   4.277   3.903 -1.9075 -1.1897 -0.1645
  673TIP3    H223435   1.849   4.212   4.015 -2.6010  2.0043  1.2457
  674TIP3   OH223436   1.959   2.969  14.259 -0.2666  0.1881 -0.0572
  674TIP3    H123437   1.875   2.996  14.295 -0.6691 -0.7313 -0.2868
  674TIP3    H223438   1.986   2.895  14.313 -0.3513 -0.4984 -0.9349
  675TIP3   OH223439   0.407   2.222   2.414  0.5681 -0.3298 -0.4077
  675TIP3    H123440   0.491   2.207   2.457  0.3524 -1.9651 -0.5129
  675TIP3    H223441   0.429   2.238   2.323  0.7272 -1.5318 -0.5876
  676TIP3   OH223442   2.159   2.524   5.549 -0.6656  0.5915  0.0090
  676TIP3    H123443   2.234   2.473   5.578 -0.4977  1.0916  0.4629
  676TIP3    H223444   2.083   2.471   5.573 -0.5666  1.3594  2.1087
  677TIP3   OH223445   4.727   5.719  12.364  0.3993  0.5774 -0.4340
  677TIP3    H123446   4.676   5.705  12.284 -2.2609 -1.3702  1.4788
  677TIP3    H223447   4.757   5.632  12.389 -1.3703  0.6428  2.2277
  678TIP3   OH223448   3.556   2.718   0.024 -0.0371 -0.5628  0.3208
  678TIP3    H123449   3.626   2.783   0.021 -0.9004  0.3351 -1.5263
  678TIP3    H223450   3.488   2.757   0.078 -0.4094 -0.0584 -0.5010
  679TIP3   OH223451   3.464   4.502   4.908 -0.5473 -0.2269 -0.4157
  679TIP3    H123452   3.536   4.563   4.921 -0.4879  0.3594 -3.1507
  679TIP3    H223453   3.470   4.441   4.982  0.5124  1.9498  1.3670
  680TIP3   OH223454   3.519   1.078  13.103 -0.1710  0.0815 -0.5285
  680TIP3    H123455   3.564   1.158  13.131  1.3063 -1.0263  0.3139
  680TIP3    H223456   3.488   1.039  13.185 -0.2894 -0.5539 -0.8783
  681TIP3   OH223457   2.222   5.686   1.889 -0.2171 -0.4883 -0.2225
  681TIP3    H123458   2.152   5.678   1.954  0.3421 -1.6355  0.2683
  681TIP3    H223459   2.210   5.610   1.831  0.6495 -0.7421 -0.0852
  682TIP3   OH223460   1.272   6.289   3.126 -0.0137  0.0495 -0.0812
  682TIP3    H123461   1.300   6.198   3.132 -1.0198 -0.2593 -0.0158
  682TIP3    H223462   1.185   6.290   3.167 -0.3277  0.8844 -0.7648
  683TIP3   OH223463   1.637   3.988  16.420 -0.5618  0.2208 -0.6662
  683TIP3    H123464   1.573   3.937  16.370 -1.7541  1.4571 -0.4378
  683TIP3    H223465   1.645   4.070  16.372 -1.1842  1.1394  0.7476
  684TIP3   OH223466   1.537   1.958   0.913 -0.2158 -0.3269 -0.4058
  684TIP3    H123467   1.588   2.039   0.920 -0.6105 -0.0138 -1.1323
  684TIP3    H223468   1.587   1.894   0.964 -0.2848  0.5573  0.8061
  685TIP3   OH223469   6.760   1.071   0.107 -0.1752 -0.4941 -0.0913
  685TIP3    H123470   6.762   1.055   0.201 -0.5292 -1.2973 -0.2126
  685TIP3    H223471   6.675   1.039   0.079 -0.1905  0.0080 -0.6448
  686TIP3   OH223472   2.267   0.585   3.024  0.0504  0.2147  0.4083
  686TIP3    H123473   2.180   0.618   3.000  0.1625  0.7277  0.7094
  686TIP3    H223474   2.248   0.506   3.075 -0.1973 -0.5471 -0.8475
  687TIP3   OH223475   4.825   3.408   0.803  1.0213  0.3957 -0.1784
  687TIP3    H123476   4.807   3.496   0.769  0.7494  1.1483  1.8458
  687TIP3    H223477   4.910   3.415   0.846  1.5541 -0.6449 -1.0510
  688TIP3   OH223478   1.660   4.521  13.121  0.2475  0.5131  0.2407
  688TIP3    H123479   1.641   4.536  13.028  0.2026  0.4390  0.2384
  688TIP3    H223480   1.657   4.426  13.130  1.7853  0.4311 -0.0039
  689TIP3   OH223481   4.389   6.412  13.021  0.1268 -0.2587 -0.3871
  689TIP3    H123482   4.409   6.500  13.052 -0.8180  0.0537 -0.6328
  689TIP3    H223483   4.297   6.416  12.996  0.4150 -0.9607 -1.6127
  690TIP3   OH223484   1.666   2.463  12.358  0.4098  0.0923 -0.6493
  690TIP3    H123485   1.698   2.506  12.437  0.5413 -3.0692  1.0758
  690TIP3    H223486   1.577   2.436  12.380  0.4635 -0.8770 -1.5914
  691TIP3   OH223487   6.630   2.375  13.052 -0.1261 -1.0119 -0.0384
  691TIP3    H123488   6.539   2.350  13.038 -0.6618  0.7307  0.1748
  691TIP3    H223489   6.646   2.356  13.145  0.3434 -3.1595 -0.5476
  692TIP3   OH223490   6.580   1.274  16.902 -0.7090  0.1014  0.1314
  692TIP3    H123491   6.599   1.337  16.832  0.2620 -2.2562 -1.7913
  692TIP3    H223492   6.663   1.261  16.946 -0.7575 -0.4109  0.0629
  693TIP3   OH223493   3.215   3.755   0.654  0.5652 -0.0053 -0.2401
  693TIP3    H123494   3.301   3.772   0.616  0.3393 -1.3204 -1.3680
  693TIP3    H223495   3.166   3.709   0.586 -0.7385 -0.0615  0.7004
  694TIP3   OH223496   5.911   2.367  17.110  0.1504  0.6331  0.2357
  694TIP3    H123497   5.896   2.458  17.083  0.4945 -0.0892 -2.5481
  694TIP3    H223498   6.006   2.356  17.104  0.0565 -0.0632  0.0002
  695TIP3   OH223499   3.355   2.504  14.501 -0.4457 -0.6144  0.4202
  695TIP3    H123500   3.292   2.468  14.439  0.9414 -2.1212 -0.1652
  695TIP3    H223501   3.317   2.487  14.587 -0.3661 -2.4645  0.1037
  696TIP3   OH223502   1.241   3.467   4.686 -0.3225 -0.6772 -0.2063
  696TIP3    H123503   1.171   3.477   4.750 -0.1927 -1.3912  0.0570
  696TIP3    H223504   1.299   3.401   4.724  0.0563 -0.6892 -0.7953
  697TIP3   OH223505   1.306   5.261  12.454 -0.2352  0.2649  0.0258
  697TIP3    H123506   1.254   5.181  12.464 -0.7658  0.6871  0.5896
  697TIP3    H223507   1.396   5.229  12.447 -0.1972 -0.2781  2.4872
  698TIP3   OH223508   4.896   2.581  12.293 -0.6686 -0.1657  0.0867
  698TIP3    H123509   4.839   2.509  12.321 -1.0255 -0.2560 -0.8775
  698TIP3    H223510   4.971   2.576  12.352 -1.9229  0.3245  1.7829
  699TIP3   OH223511   4.557   4.041   3.170  0.7510 -0.3251 -0.4024
  699TIP3    H123512   4.507   4.009   3.245 -0.0127 -0.7016 -1.0661
  699TIP3    H223513   4.637   4.077   3.209  0.1616 -0.0948  0.6296
  700TIP3   OH223514   4.012   4.650   0.099  0.0630 -0.3118 -0.5369
  700TIP3    H123515   3.964   4.567   0.098  0.2556 -0.4337 -0.0409
  700TIP3    H223516   4.103   4.626   0.078  0.3787 -0.4128  0.8414
  701TIP3   OH223517   4.557   5.759  14.588  0.2139  0.3336 -0.0827
  701TIP3    H123518   4.636   5.806  14.560  0.0330  1.0275  0.5631
  701TIP3    H223519   4.547   5.781  14.680 -0.3572 -0.3008  0.0106
  702TIP3   OH223520   6.177   5.045   6.684 -0.4461  0.3854  0.4056
  702TIP3    H123521   6.269   5.068   6.695 -0.3907  0.8018 -0.8336
  702TIP3    H223522   6.154   5.079   6.598 -1.8880  0.6755  0.8913
  703TIP3   OH223523   6.768   4.505   2.691  0.7376 -0.2802 -0.4960
  703TIP3    H123524   6.850   4.515   2.739  0.3871 -0.8302  0.2241
  703TIP3    H223525   6.710   4.573   2.726  0.3913 -0.8579  0.0572
  704TIP3   OH223526   5.869   5.756   4.613  0.4226  0.3407 -0.3074
  704TIP3    H123527   5.811   5.821   4.652 -0.0972 -0.4112  0.1943
  704TIP3    H223528   5.911   5.713   4.688  1.2947  0.5744 -0.6543
  705TIP3   OH223529   0.624   3.684  16.924 -0.0378  0.0266 -0.2002
  705TIP3    H123530   0.600   3.595  16.898 -2.6009  1.1855 -2.0414
  705TIP3    H223531   0.683   3.714  16.855  0.8679 -0.2547  0.4464
  706TIP3   OH223532   5.466   5.442  11.028  0.4204 -0.1631 -0.0345
  706TIP3    H123533   5.433   5.529  11.052 -2.3270 -0.8722 -1.0074
  706TIP3    H223534   5.512   5.455  10.946 -0.6718  0.2858 -0.5925
  707TIP3   OH223535   2.564   2.011  14.342  0.0037  0.1097 -0.1780
  707TIP3    H123536   2.519   1.967  14.270 -1.0556  2.5115 -1.0337
  707TIP3    H223537   2.501   2.012  14.414  0.0692  0.1247 -0.1195
  708TIP3   OH223538   3.670   2.155  11.902  0.2453 -0.3451 -0.4625
  708TIP3    H123539   3.747   2.099  11.895  0.8716  0.7613 -2.8495
  708TIP3    H223540   3.669   2.205  11.820 -1.7470  1.2713  0.5106
  709TIP3   OH223541   2.786   5.360  13.321 -1.0055  0.6550 -0.2303
  709TIP3    H123542   2.754   5.308  13.395 -1.3920  1.6688  0.3237
  709TIP3    H223543   2.787   5.450  13.354  0.7301  0.8604 -0.8314
  710TIP3   OH223544   4.430   0.673  11.339 -0.1994 -0.0487  0.0901
  710TIP3    H123545   4.421   0.578  11.340 -1.2241  0.0420  0.0103
  710TIP3    H223546   4.502   0.691  11.399 -0.4575 -0.8295  0.6371
  711TIP3   OH223547   6.304   6.590  11.599  0.1115 -0.5071  0.3514
  711TIP3    H123548   6.277   6.665  11.546 -1.7613 -0.6559  1.0541
  711TIP3    H223549   6.399   6.596  11.603  0.0925  0.8722 -1.0115
  712TIP3   OH223550   3.191   0.732   5.582  0.1722 -0.4996  0.2693
  712TIP3    H123551   3.165   0.699   5.668  0.8270 -1.1028  0.2347
  712TIP3    H223552   3.224   0.820   5.599 -0.7236 -0.1969  0.4818
  713TIP3   OH223553   6.502   2.825   6.431 -0.0463 -0.2476 -0.0101
  713TIP3    H123554   6.529   2.904   6.384 -1.2218  0.9556  1.2920
  713TIP3    H223555   6.568   2.812   6.498 -1.7599  1.8324  2.2003
  714TIP3   OH223556   5.314   2.653  16.315  0.0023 -0.1700  0.9620
  714TIP3    H123557   5.310   2.570  16.267  1.7813  0.3995 -0.2213
  714TIP3    H223558   5.392   2.697  16.280 -1.9110  2.8118  0.2429
  715TIP3   OH223559   0.418   1.768  14.959  0.1688  0.2775 -0.3489
  715TIP3    H123560   0.504   1.809  14.954  1.1194 -1.4146  1.6566
  715TIP3    H223561   0.358   1.840  14.980  1.4376  1.0573  0.6165
  716TIP3   OH223562   4.226   5.640   2.425 -0.0488  0.1904 -1.0916
  716TIP3    H123563   4.283   5.563   2.422 -0.1664  0.1427 -2.1667
  716TIP3    H223564   4.184   5.642   2.339  1.0180  2.2841 -1.5824
  717TIP3   OH223565   6.178   5.020  11.174 -0.3605  0.4126  0.1363
  717TIP3    H123566   6.205   4.992  11.086 -0.2568 -1.0293  0.6204
  717TIP3    H223567   6.086   5.045  11.164 -0.7331 -1.0112 -0.1109
  718TIP3   OH223568   4.388   4.803  12.191 -0.3930 -0.2151  0.1496
  718TIP3    H123569   4.329   4.874  12.216  0.7240  0.4845  0.8356
  718TIP3    H223570   4.334   4.745  12.138 -1.3177  1.1748 -0.4698
  719TIP3   OH223571   0.782   5.686  13.486 -0.4296  0.2706 -0.6650
  719TIP3    H123572   0.718   5.627  13.524  0.0609  0.9975  1.3452
  719TIP3    H223573   0.865   5.663  13.529 -0.2278  2.3783  0.1455
  720TIP3   OH223574   2.191   3.891   4.447  0.9671 -0.1979 -0.0351
  720TIP3    H123575   2.265   3.832   4.435  0.5931 -1.2217  2.3329
  720TIP3    H223576   2.218   3.950   4.517 -0.2689 -0.3293  0.5797
  721TIP3   OH223577   1.747   3.113  16.114 -0.2182 -0.2580 -0.4393
  721TIP3    H123578   1.789   3.199  16.108 -0.9111  0.1118 -0.0701
  721TIP3    H223579   1.713   3.097  16.026 -0.3122 -0.0404 -0.4437
  722TIP3   OH223580   1.049   3.701   4.463 -0.3225 -0.3905  0.2282
  722TIP3    H123581   1.068   3.735   4.550  0.8773  2.3181 -1.0374
  722TIP3    H223582   1.121   3.732   4.408 -1.9879 -0.4766 -2.1180
  723TIP3   OH223583   2.068   6.630  14.981 -0.1329 -0.6597 -0.3109
  723TIP3    H123584   2.054   6.626  15.075  2.0822  2.1371  0.2108
  723TIP3    H223585   2.159   6.602  14.969 -0.1711 -0.2977 -1.5278
  724TIP3   OH223586   2.457   1.834   1.907  0.1306 -0.3242  0.5423
  724TIP3    H123587   2.525   1.799   1.849 -0.3048 -1.2240  0.5713
  724TIP3    H223588   2.401   1.886   1.849  1.3118  1.1239  0.6647
  725TIP3   OH223589   0.821   3.014   5.552  0.5026 -0.5063 -0.0652
  725TIP3    H123590   0.860   2.928   5.536 -0.2001 -1.0122  0.8864
  725TIP3    H223591   0.728   2.996   5.565  0.1573  0.5347 -1.0052
  726TIP3   OH223592   1.458   6.006  16.790 -0.0784  0.1184 -0.2931
  726TIP3    H123593   1.440   6.073  16.855  0.1864 -0.9991  0.9676
  726TIP3    H223594   1.503   6.052  16.719 -0.1356  1.3066  0.4335
  727TIP3   OH223595   6.025   2.548  10.739 -0.0508 -0.7388  0.1534
  727TIP3    H123596   6.042   2.634  10.699  0.7407  0.5389  3.1216
  727TIP3    H223597   5.964   2.567  10.810  0.4955 -2.5756  1.1241
  728TIP3   OH223598   2.474   0.533   4.900 -0.0825 -0.2713  0.9317
  728TIP3    H123599   2.459   0.591   4.824 -1.3293  0.3393  1.6263
  728TIP3    H223600   2.456   0.445   4.867 -1.4026  0.0696  0.7076
  729TIP3   OH223601   2.458   3.885  15.650 -0.3250  0.0746 -0.2289
  729TIP3    H123602   2.423   3.947  15.585 -0.9270 -0.6853 -0.6392
  729TIP3    H223603   2.408   3.805  15.635  0.6228 -0.5854  0.1324
  730TIP3   OH223604   6.393   6.761  16.361 -0.8243 -0.0670 -0.5830
  730TIP3    H123605   6.324   6.696  16.344 -0.9174  0.1804 -1.1775
  730TIP3    H223606   6.442   6.765  16.279  0.4384 -0.8785  0.1193
  731TIP3   OH223607   2.320   2.490   5.935 -0.5671 -0.2413 -0.2867
  731TIP3    H123608   2.292   2.545   6.009 -0.6611  0.7851 -1.0856
  731TIP3    H223609   2.239   2.473   5.887 -0.6104 -1.4530  0.1948
  732TIP3   OH223610   3.639   1.879  11.147 -0.2331 -0.2193  0.5548
  732TIP3    H123611   3.570   1.916  11.092  1.6693  2.1907 -0.3099
  732TIP3    H223612   3.598   1.869  11.233 -1.7122  1.0514  0.0266
  733TIP3   OH223613   6.035   2.671   4.786  0.2564 -0.3086 -0.3840
  733TIP3    H123614   6.017   2.756   4.825  0.4558 -0.7683  0.7240
  733TIP3    H223615   5.952   2.644   4.747 -0.3182 -0.4548  0.9169
  734TIP3   OH223616   5.567   4.574   0.846  0.3179 -0.0487 -0.9568
  734TIP3    H123617   5.577   4.644   0.782 -0.7168  0.1570 -0.9050
  734TIP3    H223618   5.639   4.587   0.908  0.6133  0.4697 -1.4075
  735TIP3   OH223619   4.790   0.712  12.434 -0.4249 -0.0034 -0.2347
  735TIP3    H123620   4.834   0.796  12.445 -2.0177  0.5588  2.4540
  735TIP3    H223621   4.704   0.735  12.399 -1.1975 -0.3973  1.3534
  736TIP3   OH223622   4.358   2.628   2.567 -0.3222 -0.2180 -0.4634
  736TIP3    H123623   4.428   2.607   2.504 -0.7218 -0.4660 -0.8229
  736TIP3    H223624   4.280   2.641   2.513 -1.0973 -2.2711  0.1193
  737TIP3   OH223625   3.643   1.328  15.137 -0.4882  0.1428 -0.2912
  737TIP3    H123626   3.712   1.262  15.145 -0.0610  0.6775  0.5083
  737TIP3    H223627   3.652   1.382  15.215 -1.7973  0.2433 -0.1948
  738TIP3   OH223628   1.985   4.631  13.699  0.6702  0.4434 -0.0173
  738TIP3    H123629   1.917   4.673  13.646  1.1950 -0.2381 -1.2509
  738TIP3    H223630   1.952   4.542  13.714  0.0430  0.9635  1.6923
  739TIP3   OH223631   0.047   4.991   0.226  0.4828 -0.7333  0.6853
  739TIP3    H123632   0.079   4.906   0.257 -1.0199 -1.7098 -0.3346
  739TIP3    H223633  -0.011   5.021   0.295 -2.1677 -2.4900 -0.6791
  740TIP3   OH223634   1.967   3.601  15.458  0.4667 -0.1825  0.3200
  740TIP3    H123635   2.016   3.519  15.465  0.7880 -0.0469 -0.3170
  740TIP3    H223636   1.978   3.628  15.367 -1.0201 -0.2894  0.0834
  741TIP3   OH223637   1.179   5.283   5.332 -0.3753 -0.0343 -1.1226
  741TIP3    H123638   1.136   5.198   5.345  0.4759 -0.2135  0.6792
  741TIP3    H223639   1.228   5.272   5.250 -1.5468 -0.7253 -1.7530
  742TIP3   OH223640   2.538   3.565   4.924  0.2063 -0.1556 -0.0558
  742TIP3    H123641   2.619   3.515   4.918 -0.1246 -0.6954 -0.0849
  742TIP3    H223642   2.481   3.513   4.980  0.7787  1.4483  2.0897
  743TIP3   OH223643   1.529   5.776  16.580 -0.0018  0.3014 -0.3245
  743TIP3    H123644   1.458   5.830  16.544 -0.6035 -1.2175 -1.4722
  743TIP3    H223645   1.495   5.687  16.577  0.9306 -0.1581  1.6664
  744TIP3   OH223646   5.919   5.119  11.114  0.4057  0.6442  0.4199
  744TIP3    H123647   5.841   5.064  11.125  1.8238 -1.8184 -1.2416
  744TIP3    H223648   5.888   5.193  11.062 -0.9190 -0.1379  0.0483
  745TIP3   OH223649   2.827   4.332  14.455  0.7568 -0.0384 -0.6639
  745TIP3    H123650   2.761   4.372  14.511 -0.6625 -1.2469 -1.4593
  745TIP3    H223651   2.885   4.286  14.516  0.4891  0.4568 -0.0313
  746TIP3   OH223652   4.189   2.208  15.160  0.1658 -0.1282  0.5027
  746TIP3    H123653   4.150   2.279  15.109  0.7400 -0.6587 -0.6823
  746TIP3    H223654   4.210   2.249  15.244 -2.0720  0.3955  0.8279
  747TIP3   OH223655   6.561   5.355  15.138  0.2459 -0.1367 -0.3174
  747TIP3    H123656   6.509   5.278  15.116  0.7807 -0.8095  0.7509
  747TIP3    H223657   6.643   5.344  15.091  0.9695 -1.0447  1.1351
  748TIP3   OH223658   0.339   0.454  14.194  0.4317 -0.2684  0.4378
  748TIP3    H123659   0.340   0.491  14.106  1.3497  0.3686  0.7052
  748TIP3    H223660   0.406   0.385  14.191 -1.4910 -2.1697 -0.1519
  749TIP3   OH223661   6.597   6.468   4.632  0.2555  0.1660  0.3846
  749TIP3    H123662   6.546   6.517   4.697  1.2921  1.6946  0.0770
  749TIP3    H223663   6.681   6.514   4.629  1.6910 -2.3508  0.9384
  750TIP3   OH223664   4.414   2.750  12.200 -0.3941  0.2961  0.2236
  750TIP3    H123665   4.414   2.795  12.285  0.3592  1.4565 -0.3747
  750TIP3    H223666   4.501   2.712  12.193 -0.9910 -1.1825  0.6696
  751TIP3   OH223667   5.763   4.619  13.886  0.0165  0.0786  0.7948
  751TIP3    H123668   5.788   4.674  13.811  0.8742  0.2817  1.2239
  751TIP3    H223669   5.672   4.644  13.904 -0.3927 -0.3942 -0.5481
  752TIP3   OH223670   0.054   1.365  13.845 -0.2530 -0.4764 -0.6079
  752TIP3    H123671   0.104   1.355  13.764 -0.2874  1.0455 -0.8202
  752TIP3    H223672   0.063   1.280  13.889  0.2529 -1.1203 -1.9179
  753TIP3   OH223673   0.722   0.175  15.468  0.1326  0.3207 -0.3107
  753TIP3    H123674   0.767   0.126  15.399 -0.1009  1.3811 -1.2102
  753TIP3    H223675   0.777   0.252  15.483 -1.1101  1.3782 -1.0818
  754TIP3   OH223676   2.503   5.787  11.038 -0.1105  0.1079  0.7168
  754TIP3    H123677   2.505   5.882  11.052 -0.8911  0.0530  1.2862
  754TIP3    H223678   2.564   5.752  11.103  1.0430  0.2999 -0.2618
  755TIP3   OH223679   5.740   4.673   2.110 -0.6517  0.0907  0.3514
  755TIP3    H123680   5.819   4.726   2.096 -0.6724  0.1173  0.3375
  755TIP3    H223681   5.767   4.605   2.172  0.0371 -1.3885 -1.5336
  756TIP3   OH223682   1.633   1.809  11.577 -0.4895  0.1148  0.2898
  756TIP3    H123683   1.632   1.729  11.524  1.5758 -0.2839  0.7804
  756TIP3    H223684   1.584   1.785  11.656 -2.3147  0.2511 -0.7804
  757TIP3   OH223685   2.789   0.234   1.166  0.5671  0.7515 -0.4054
  757TIP3    H123686   2.773   0.214   1.258  0.5706  1.2269 -0.2986
  757TIP3    H223687   2.719   0.189   1.119  1.3377 -0.5778 -0.2795
  758TIP3   OH223688   3.924   4.058  15.577 -0.0221  0.0668  0.0100
  758TIP3    H123689   3.924   4.038  15.483  0.7946  0.9470 -0.1899
  758TIP3    H223690   3.834   4.083  15.596  0.4305  2.9120 -1.2380
  759TIP3   OH223691   3.641   4.821  14.315 -0.8135 -0.0568  0.4836
  759TIP3    H123692   3.584   4.837  14.390 -1.2937  1.4017 -0.1730
  759TIP3    H223693   3.709   4.889  14.321 -1.2133  0.4673 -0.7366
  760TIP3   OH223694   6.566   4.339   3.145  0.3421 -0.0346 -0.2353
  760TIP3    H123695   6.500   4.272   3.129  2.3858 -1.5632 -2.6227
  760TIP3    H223696   6.559   4.399   3.072  0.8912  0.3712  0.0380
  761TIP3   OH223697   3.784   2.397   6.336 -0.1416  0.0640 -0.4968
  761TIP3    H123698   3.785   2.402   6.240  1.6624  0.0106 -0.4857
  761TIP3    H223699   3.756   2.485   6.364 -2.2766 -0.4027 -1.0921
  762TIP3   OH223700   0.514   0.691  14.279  0.0884 -0.3657  0.4099
  762TIP3    H123701   0.478   0.639  14.207 -0.2758 -0.4948  0.6842
  762TIP3    H223702   0.583   0.636  14.316  2.0449  0.7352 -1.4534
  763TIP3   OH223703   5.792   2.053  16.488  0.0015 -0.3032 -0.5396
  763TIP3    H123704   5.727   1.983  16.484 -0.1536 -0.4179  2.8159
  763TIP3    H223705   5.872   2.009  16.518  0.5163  0.5828 -0.6101
  764TIP3   OH223706   4.427   1.875  11.919 -0.4794  0.6119  0.1336
  764TIP3    H123707   4.493   1.941  11.896  0.2170  0.7054  2.2587
  764TIP3    H223708   4.351   1.926  11.947 -0.7874  0.5085 -0.5195
  765TIP3   OH223709   6.092   1.574  14.165  0.8229  0.2877 -0.2246
  765TIP3    H123710   6.082   1.481  14.182 -0.0973  0.8705  2.6858
  765TIP3    H223711   6.174   1.582  14.117  0.3947 -2.0953 -1.3981
  766TIP3   OH223712   0.273   2.678   1.988  0.2372  0.1279 -0.0156
  766TIP3    H123713   0.267   2.663   1.894  0.3994 -1.7128  0.2472
  766TIP3    H223714   0.190   2.721   2.011  0.4612  1.1463 -1.0907
  767TIP3   OH223715   2.073   1.917  16.382  0.1866 -0.1568  0.2992
  767TIP3    H123716   2.130   1.993  16.376 -2.1719  1.7788  1.5236
  767TIP3    H223717   2.109   1.866  16.455  0.8216  0.6032  0.5226
  768TIP3   OH223718   2.532   0.558   3.285 -0.1235  0.0519 -0.4137
  768TIP3    H123719   2.606   0.553   3.224 -0.1275  2.1417 -0.6547
  768TIP3    H223720   2.543   0.484   3.343  1.6123 -0.2317 -1.0753
  769TIP3   OH223721   6.560   2.020  17.187  0.3092  0.1310  0.2257
  769TIP3    H123722   6.559   1.927  17.209 -3.3070  0.2867  1.0776
  769TIP3    H223723   6.653   2.043  17.181  1.2406 -3.5643 -0.2397
  770TIP3   OH223724   4.833   1.555   4.234 -0.0019 -0.2453  0.3378
  770TIP3    H123725   4.876   1.488   4.287  2.1296 -1.8088 -3.1542
  770TIP3    H223726   4.752   1.514   4.204  0.8633 -0.9770 -1.0532
  771TIP3   OH223727   1.450   5.263  14.402  0.2998 -0.0953 -0.0751
  771TIP3    H123728   1.370   5.213  14.385  0.5259 -0.8442  1.0317
  771TIP3    H223729   1.518   5.197  14.412  0.9324  0.5120 -0.2959
  772TIP3   OH223730   4.745   2.859  16.853 -0.6913 -0.1959 -0.0793
  772TIP3    H123731   4.654   2.889  16.854 -1.0961 -1.3859 -0.1801
  772TIP3    H223732   4.769   2.851  16.946 -0.2007  1.5423 -0.0475
  773TIP3   OH223733   6.206   5.505  12.868 -0.2139  0.2238  0.9059
  773TIP3    H123734   6.229   5.485  12.959  1.8290  2.4775  0.9556
  773TIP3    H223735   6.286   5.484  12.819 -1.1176 -0.4370 -0.3033
  774TIP3   OH223736   6.016   1.925   1.087 -0.5138 -0.5148 -0.4001
  774TIP3    H123737   6.059   1.986   1.028 -0.0789 -1.4565 -1.0620
  774TIP3    H223738   5.929   1.912   1.050 -0.7657  0.0482 -0.0116
  775TIP3   OH223739   2.604   0.080   2.891 -0.1345  0.2652  0.2372
  775TIP3    H123740   2.558   0.160   2.918  0.9508  0.4134  1.7186
  775TIP3    H223741   2.559   0.010   2.938 -0.0068  0.1995  0.2609
  776TIP3   OH223742   4.157   4.938  12.270  0.5127 -0.3483  0.0778
  776TIP3    H123743   4.207   4.988  12.335 -0.4264 -1.2727  1.5422
  776TIP3    H223744   4.083   4.903  12.319  1.4931 -3.7113 -0.7217
  777TIP3   OH223745   3.413   5.448   3.046  0.0967 -0.3404  0.1676
  777TIP3    H123746   3.434   5.361   3.081  1.2224  0.3970  1.3800
  777TIP3    H223747   3.320   5.443   3.022 -0.2051 -1.4307  1.5314
  778TIP3   OH223748   6.164   1.162  15.248  0.6340 -0.0889 -0.1433
  778TIP3    H123749   6.140   1.069  15.249 -1.3631  0.4049  0.2191
  778TIP3    H223750   6.233   1.168  15.182  1.0236 -1.8803  0.0771
  779TIP3   OH223751   2.516   6.634   0.163  0.0773 -0.2900  0.2218
  779TIP3    H123752   2.462   6.698   0.209  0.6600  0.0063  0.4983
  779TIP3    H223753   2.597   6.681   0.142  0.0019 -0.5572 -0.7073
  780TIP3   OH223754   1.540   0.135   1.622  0.0381  0.3761  0.4794
  780TIP3    H123755   1.534   0.041   1.605 -0.1332  0.1587  1.7203
  780TIP3    H223756   1.625   0.146   1.664 -0.6908  0.5133  1.9559
  781TIP3   OH223757   1.277   5.572   2.110  0.0014  0.3770 -0.5342
  781TIP3    H123758   1.253   5.664   2.113 -1.2717  0.0528 -0.2438
  781TIP3    H223759   1.285   5.552   2.016  2.3505  1.2704 -0.5577
  782TIP3   OH223760   3.750   3.299  12.641 -0.2892  0.1362  0.2210
  782TIP3    H123761   3.704   3.232  12.692  0.2907 -1.1210 -0.8518
  782TIP3    H223762   3.688   3.372  12.636 -1.4987 -0.8648  0.2208
  783TIP3   OH223763   3.103   1.748   0.785 -0.2308  0.5942 -0.0177
  783TIP3    H123764   3.179   1.712   0.831 -0.1102  0.4795 -0.3071
  783TIP3    H223765   3.081   1.828   0.833 -1.7786 -0.9210  1.9011
  784TIP3   OH223766   4.698   5.308  11.023 -0.6059  0.2583 -0.1138
  784TIP3    H123767   4.728   5.325  10.933 -0.8132 -0.3615 -0.3030
  784TIP3    H223768   4.691   5.213  11.028 -0.0229  0.2610  0.7531
  785TIP3   OH223769   1.052   4.958  11.662 -0.0306 -0.0072 -0.6726
  785TIP3    H123770   0.981   4.947  11.724  0.3256 -0.4685 -0.3407
  785TIP3    H223771   1.079   4.868  11.640  1.4693  0.1595  0.3906
  786TIP3   OH223772   3.266   6.098   5.560  0.0628  0.1492 -0.1849
  786TIP3    H123773   3.300   6.013   5.586 -2.9103 -0.6506  1.3080
  786TIP3    H223774   3.340   6.158   5.569  1.0672 -1.4956  3.0784
  787TIP3   OH223775   5.138   0.617  10.222  0.6348 -0.1471 -0.6311
  787TIP3    H123776   5.214   0.643  10.274  1.6328 -0.0197 -2.1451
  787TIP3    H223777   5.156   0.528  10.195 -0.7546 -0.8976  0.7831
  788TIP3   OH223778   5.115   1.691  17.048  0.0880  0.0119  0.0351
  788TIP3    H123779   5.162   1.610  17.030  0.9381  0.6967 -0.8745
  788TIP3    H223780   5.178   1.746  17.094  0.0445  0.7580 -0.7786
  789TIP3   OH223781   2.911   0.933   3.259  0.2850 -0.1834  0.4397
  789TIP3    H123782   2.893   0.839   3.269 -0.6302  0.0052  0.5299
  789TIP3    H223783   2.905   0.949   3.165  2.8572 -0.6978  0.1296
  790TIP3   OH223784   6.746   4.795  12.550 -0.7324  0.1502  0.4867
  790TIP3    H123785   6.661   4.835  12.530 -1.0814 -1.3983 -1.3157
  790TIP3    H223786   6.796   4.804  12.469  0.8835  1.1628  1.5754
  791TIP3   OH223787   5.749   0.193   2.345  0.5615 -0.0747  0.1926
  791TIP3    H123788   5.760   0.279   2.305  0.9996 -0.0242  0.4220
  791TIP3    H223789   5.690   0.209   2.419  2.0703  0.3504  1.3122
  792TIP3   OH223790   5.887   5.948  13.861  0.2216  0.2214 -0.4751
  792TIP3    H123791   5.833   5.924  13.786 -1.0730  0.4142  0.3673
  792TIP3    H223792   5.866   5.882  13.927  0.7814  0.4891 -0.0323
  793TIP3   OH223793   2.202   4.809  13.735  0.0789  0.7838 -0.0104
  793TIP3    H123794   2.219   4.851  13.651 -0.0606  0.7779 -0.0409
  793TIP3    H223795   2.141   4.739  13.715  2.3495 -1.1510 -0.4240
  794TIP3   OH223796   3.773   6.287  15.768  0.7708  0.1412 -0.1621
  794TIP3    H123797   3.710   6.227  15.807  0.5360 -0.6253 -1.6896
  794TIP3    H223798   3.810   6.239  15.694 -0.2008  2.2555 -2.0846
  795TIP3   OH223799   5.012   2.718  13.520 -0.0276 -0.0270  0.4579
  795TIP3    H123800   5.104   2.729  13.544  0.0142 -0.4448  0.5059
  795TIP3    H223801   4.969   2.694  13.602 -0.0773 -0.3859  0.3267
  796TIP3   OH223802   1.501   6.009   3.949 -0.2626 -0.0525 -0.1117
  796TIP3    H123803   1.518   6.101   3.931  2.0966 -0.5103 -0.3731
  796TIP3    H223804   1.462   6.008   4.036  1.3997  1.0715  0.6756
  797TIP3   OH223805   2.630   0.912   5.849 -0.7568  0.3966 -0.3888
  797TIP3    H123806   2.561   0.849   5.829 -0.2055 -0.2194 -0.3562
  797TIP3    H223807   2.589   0.997   5.835 -1.0376  0.0157 -1.9983
  798TIP3   OH223808   1.660   5.881  16.366  0.5086 -1.0285  0.1027
  798TIP3    H123809   1.635   5.862  16.457 -1.0690 -2.2230 -0.5702
  798TIP3    H223810   1.594   5.943  16.335  1.9230  0.5914  0.2238
  799TIP3   OH223811   6.669   6.628   0.106 -0.4017 -0.4863 -0.2175
  799TIP3    H123812   6.597   6.677   0.145  0.4947 -1.1946  2.4402
  799TIP3    H223813   6.727   6.695   0.069 -0.4063  0.3269  1.2127
  800TIP3   OH223814   5.365   2.768  14.454  0.2163  0.0202 -0.1537
  800TIP3    H123815   5.419   2.790  14.378 -0.1935  0.8221 -0.2154
  800TIP3    H223816   5.275   2.776  14.423  0.0530 -0.5943  0.1534
  801TIP3   OH223817   2.353   0.761   6.012  0.0115 -0.2507 -0.0924
  801TIP3    H123818   2.419   0.804   6.066 -0.6265  1.3466 -0.5599
  801TIP3    H223819   2.312   0.698   6.070 -0.2872  1.0641  1.1553
  802TIP3   OH223820   4.859   4.989   3.702  0.6650  0.8481 -0.1976
  802TIP3    H123821   4.768   5.011   3.723 -0.2451 -0.1435 -2.8523
  802TIP3    H223822   4.889   5.060   3.646  0.7479  0.0531 -1.1869
  803TIP3   OH223823   0.987   5.330   0.221 -1.0294 -0.3948  0.4176
  803TIP3    H123824   1.021   5.243   0.242  0.5650  0.5698  1.9981
  803TIP3    H223825   0.925   5.349   0.292  1.6842  1.3903  2.4345
  804TIP3   OH223826   3.261   2.906  16.254  0.1685 -0.0430  0.0146
  804TIP3    H123827   3.279   2.839  16.320 -0.1042 -1.0428 -0.8948
  804TIP3    H223828   3.345   2.921  16.211  0.1020 -0.2881 -0.2098
  805TIP3   OH223829   1.065   2.196   4.476 -0.2959 -0.0944 -0.0211
  805TIP3    H123830   1.134   2.237   4.528 -0.0963 -1.5040  0.8555
  805TIP3    H223831   1.103   2.185   4.389 -0.7141  2.5124 -0.5737
  806TIP3   OH223832   4.659   2.626  14.916 -0.2799 -0.7401 -0.1564
  806TIP3    H123833   4.614   2.657  14.995 -0.2292 -2.3531  0.5215
  806TIP3    H223834   4.747   2.664  14.922 -1.0569  1.2044 -0.7360
  807TIP3   OH223835   6.279   0.158   1.245  0.2856  0.1880 -0.5071
  807TIP3    H123836   6.214   0.226   1.228 -2.1467 -1.2782  2.4692
  807TIP3    H223837   6.237   0.077   1.213  1.7462 -0.4224 -0.9244
  808TIP3   OH223838   6.349   0.524   5.580  0.3173 -0.1740  0.2461
  808TIP3    H123839   6.383   0.571   5.503  3.2357  1.7092  2.5932
  808TIP3    H223840   6.357   0.587   5.652 -1.1992 -2.3377  2.3729
  809TIP3   OH223841   2.941   2.043  10.346  0.1123  0.3389  0.0193
  809TIP3    H123842   2.904   2.040  10.257  0.0419 -0.3202  0.0705
  809TIP3    H223843   2.870   2.014  10.402  1.2687 -2.8773 -0.0627
  810TIP3   OH223844   2.159   0.290  13.872  0.1489  0.4018  0.2369
  810TIP3    H123845   2.226   0.357  13.881  0.6933  0.0470 -1.0515
  810TIP3    H223846   2.205   0.208  13.892 -0.4618  0.3753  1.6075
  811TIP3   OH223847   4.939   0.013   1.386  0.1098 -0.7508 -0.4783
  811TIP3    H123848   4.877  -0.018   1.452 -0.2522 -1.3961 -1.1193
  811TIP3    H223849   4.885   0.034   1.310  0.5360 -0.0677 -0.5933
  812TIP3   OH223850   6.168   5.444   0.289  0.5755  0.2082  0.6130
  812TIP3    H123851   6.194   5.419   0.200  0.4100 -1.9664  1.1309
  812TIP3    H223852   6.226   5.516   0.312  0.1683  1.2322 -1.5033
  813TIP3   OH223853   4.449   4.478  13.875  0.3141 -0.3138 -0.4993
  813TIP3    H123854   4.499   4.502  13.797 -0.5304  0.4991 -0.8032
  813TIP3    H223855   4.358   4.473  13.845 -0.0172 -0.0225  0.4310
  814TIP3   OH223856   0.674   2.619   0.081 -0.3105  0.8943  0.6890
  814TIP3    H123857   0.675   2.714   0.090 -2.7485  0.7862  2.4962
  814TIP3    H223858   0.585   2.593   0.105  0.8510 -2.0211  2.0718
  815TIP3   OH223859   5.288   6.013   0.658 -0.1492  0.0727 -0.0154
  815TIP3    H123860   5.379   5.989   0.674 -0.3672 -0.7193  0.0652
  815TIP3    H223861   5.246   5.931   0.630 -1.3505 -0.1024  2.1574
  816TIP3   OH223862   0.732   4.372   1.779  0.1525 -0.1012  0.6432
  816TIP3    H123863   0.708   4.464   1.771  0.9228  0.0932  0.5177
  816TIP3    H223864   0.655   4.324   1.748  0.6489  0.5531 -1.6847
  817TIP3   OH223865   0.298   4.311   0.423  0.1228  0.1146  0.6191
  817TIP3    H123866   0.377   4.299   0.476  1.0521  1.2328 -0.4778
  817TIP3    H223867   0.264   4.397   0.451  1.1713  1.1680 -1.2734
  818TIP3   OH223868   5.036   2.233   1.411  0.6489  0.0561 -0.1136
  818TIP3    H123869   5.053   2.256   1.320  1.3639  0.1407  0.0330
  818TIP3    H223870   5.084   2.298   1.461  1.5794 -0.9367  0.3126
  819TIP3   OH223871   1.694   1.926   2.222 -0.6401  0.0752 -0.4520
  819TIP3    H123872   1.664   1.835   2.226 -0.9331  0.1653 -0.5828
  819TIP3    H223873   1.690   1.948   2.129  1.6327 -0.5149 -0.7331
  820TIP3   OH223874   0.654   2.660  12.554  0.6909  0.0787 -0.1194
  820TIP3    H123875   0.597   2.604  12.607  2.2921  0.4457  2.1002
  820TIP3    H223876   0.720   2.600  12.519 -0.5301 -0.2081 -1.9541
  821TIP3   OH223877   1.928   1.448  12.259  0.4384  0.2225 -0.6464
  821TIP3    H123878   1.887   1.426  12.175 -0.7627  0.3414 -0.1041
  821TIP3    H223879   2.005   1.392  12.264 -1.8847 -3.0170  0.1877
  822TIP3   OH223880   4.137   6.308   1.320 -0.7516 -0.0854 -0.8369
  822TIP3    H123881   4.069   6.262   1.369 -0.4314 -1.2109 -1.4242
  822TIP3    H223882   4.212   6.310   1.379 -0.3201 -1.5682 -1.3289
  823TIP3   OH223883   4.895   0.086  14.449  0.9431  0.4927 -0.1591
  823TIP3    H123884   4.984   0.051  14.451  1.2494  1.2348 -0.3823
  823TIP3    H223885   4.869   0.092  14.540  0.8910 -0.3022 -0.1204
  824TIP3   OH223886   5.009   6.125   5.795  0.6013 -0.4707  0.2852
  824TIP3    H123887   4.954   6.202   5.782  1.6276  0.0454 -1.3012
  824TIP3    H223888   5.006   6.079   5.711  1.7885 -0.9475  0.4875
  825TIP3   OH223889   4.609   3.643   4.160  0.1912  0.7358 -0.0249
  825TIP3    H123890   4.702   3.664   4.153  0.3164  0.3481  0.4152
  825TIP3    H223891   4.565   3.709   4.106  0.6470  1.5095  0.5309
  826TIP3   OH223892   3.195   5.855   0.253  0.5803 -0.3610  0.5920
  826TIP3    H123893   3.129   5.788   0.237 -0.0049  0.5315 -0.8712
  826TIP3    H223894   3.194   5.868   0.348 -1.7410  0.0110  0.5514
  827TIP3   OH223895   0.523   4.898   0.036 -0.1730  0.0306 -1.2824
  827TIP3    H123896   0.514   4.859  -0.051 -0.2209  1.3746 -1.8987
  827TIP3    H223897   0.581   4.973   0.022 -2.2624  1.8167 -0.6714
  828TIP3   OH223898   6.722   0.519   0.698 -0.2543 -0.0668  0.4479
  828TIP3    H123899   6.666   0.445   0.721 -1.1584  0.0802 -1.2186
  828TIP3    H223900   6.677   0.562   0.625  1.5587  0.6318 -0.2949
  829TIP3   OH223901   5.174   1.408   1.859 -0.0671 -0.3605 -0.8820
  829TIP3    H123902   5.174   1.479   1.794 -0.3936  0.1592 -0.3247
  829TIP3    H223903   5.185   1.328   1.808 -2.3143 -0.1302 -1.7932
  830TIP3   OH223904   4.463   3.401  12.333  0.0654  0.2039  0.0683
  830TIP3    H123905   4.427   3.479  12.289 -0.7891 -0.7167 -0.8991
  830TIP3    H223906   4.387   3.344  12.347  0.7715 -0.7119  0.2232
  831TIP3   OH223907   4.406   1.321   4.311 -0.3035 -0.1084 -0.1968
  831TIP3    H123908   4.426   1.316   4.217 -2.3191 -1.8306 -0.5582
  831TIP3    H223909   4.345   1.394   4.318  0.0566  0.1941 -0.1748
  832TIP3   OH223910   0.783   5.420   6.348 -0.1339  0.4002  0.0147
  832TIP3    H123911   0.782   5.353   6.278  0.9943  2.0020 -1.5751
  832TIP3    H223912   0.875   5.444   6.357 -0.3504  0.6774  1.6533
  833TIP3   OH223913   1.815   4.119   0.907  0.1750  0.8648 -0.2418
  833TIP3    H123914   1.863   4.053   0.958 -0.9719  0.9336  0.9738
  833TIP3    H223915   1.786   4.073   0.828  0.3614  0.2163  0.0652
  834TIP3   OH223916   3.438   6.409  14.391  0.5154 -0.1183  0.4886
  834TIP3    H123917   3.458   6.370  14.476  0.6328  1.1959  1.0718
  834TIP3    H223918   3.386   6.486  14.412 -3.1685 -2.1079 -0.8379
  835TIP3   OH223919   0.995   5.694   3.409  0.0673 -0.5073  0.3202
  835TIP3    H123920   0.953   5.671   3.492  0.3585 -0.2604  0.5377
  835TIP3    H223921   1.083   5.657   3.416  0.5047  0.5684  0.6297
  836TIP3   OH223922   3.487   5.198  12.079  0.8125  0.0553  0.0394
  836TIP3    H123923   3.576   5.167  12.067  0.7027 -0.6139  0.8617
  836TIP3    H223924   3.480   5.213  12.173  1.2721  3.8816 -0.4430
  837TIP3   OH223925   1.624   4.235  12.882 -0.6977  0.0309 -0.3314
  837TIP3    H123926   1.610   4.250  12.976  1.1450  1.0777 -0.1949
  837TIP3    H223927   1.539   4.251  12.842 -1.7103 -1.2909  1.2620
  838TIP3   OH223928   5.101   4.848   3.614  0.0507 -0.2015  0.1472
  838TIP3    H123929   5.011   4.878   3.630  0.2654  1.6777 -1.8935
  838TIP3    H223930   5.115   4.863   3.521  1.5568 -3.1166 -0.1486
  839TIP3   OH223931   3.777   2.030   2.888  0.1882  0.5366  0.4022
  839TIP3    H123932   3.847   1.989   2.939 -1.9974 -1.4279  1.9185
  839TIP3    H223933   3.818   2.108   2.850  2.8097  0.2122  2.4010
  840TIP3   OH223934   2.763   1.146   3.456  0.5587  0.2834 -0.7221
  840TIP3    H123935   2.676   1.171   3.426 -0.1000 -1.7049 -0.5425
  840TIP3    H223936   2.822   1.170   3.385 -0.1958  1.1792 -1.0443
  841TIP3   OH223937   4.360   4.022  13.423  0.1570 -0.5621 -0.8355
  841TIP3    H123938   4.441   4.005  13.472  0.5052  0.2976 -1.0937
  841TIP3    H223939   4.346   3.942  13.372  1.1485 -0.5158 -1.1970
  842TIP3   OH223940   2.042   0.762   2.910  0.3935  0.5267 -0.4663
  842TIP3    H123941   2.102   0.836   2.918 -1.2151  2.1015 -2.6825
  842TIP3    H223942   2.009   0.749   2.999  1.0854  2.1295  0.0413
  843TIP3   OH223943   5.159   5.058  13.013 -0.4058  0.3742  0.3836
  843TIP3    H123944   5.193   5.138  13.052 -0.1045 -0.0105  0.9131
  843TIP3    H223945   5.228   5.030  12.952 -0.2765  0.2319  0.5922
  844TIP3   OH223946   3.789   3.141   5.728 -0.1157 -0.0851 -0.0602
  844TIP3    H123947   3.818   3.162   5.816 -0.0455  1.2019 -0.3894
  844TIP3    H223948   3.821   3.052   5.713  1.6386  0.4430  0.4504
  845TIP3   OH223949   5.710   2.959  13.163  0.4024  0.6376  1.2171
  845TIP3    H123950   5.767   3.014  13.108  0.5004  1.1195  1.8024
  845TIP3    H223951   5.628   3.007  13.168 -0.3294 -0.4110 -0.2434
  846TIP3   OH223952   3.447   5.315   4.929  0.3504  0.7189 -0.5417
  846TIP3    H123953   3.465   5.222   4.915  1.1411  1.1397 -2.5483
  846TIP3    H223954   3.424   5.321   5.022  0.5219 -1.4351 -0.3216
  847TIP3   OH223955   3.526   3.459  16.294 -0.2575 -0.1117 -0.2098
  847TIP3    H123956   3.601   3.427  16.244  0.4530  0.4362  0.5057
  847TIP3    H223957   3.564   3.497  16.373 -1.0938  2.0225 -0.7942
  848TIP3   OH223958   1.363   2.914  16.929 -0.1525  0.6969  0.4798
  848TIP3    H123959   1.377   2.827  16.966  0.7716  0.4177 -0.4854
  848TIP3    H223960   1.270   2.932  16.943 -0.7521 -1.1904 -0.8443
  849TIP3   OH223961   3.535   1.665  14.987  0.1839 -0.0857  0.1216
  849TIP3    H123962   3.508   1.692  14.899 -1.0775  1.5093  0.9696
  849TIP3    H223963   3.472   1.596  15.010 -1.4352  1.6241  0.9512
  850TIP3   OH223964   4.388   2.594  14.391 -0.1970 -0.5255  0.0869
  850TIP3    H123965   4.330   2.633  14.326 -1.0285  0.7950  1.5625
  850TIP3    H223966   4.346   2.615  14.475  1.7463 -0.6595  1.1170
  851TIP3   OH223967   2.576   4.286   1.436 -0.1002  0.2788  0.3134
  851TIP3    H123968   2.606   4.237   1.513 -0.6221 -5.3103 -2.8270
  851TIP3    H223969   2.480   4.279   1.440 -0.1292 -0.0432 -0.8100
  852TIP3   OH223970   0.845   4.424  10.788  0.2475  0.5038 -0.0333
  852TIP3    H123971   0.817   4.333  10.800  0.3496 -0.0157 -3.4726
  852TIP3    H223972   0.930   4.428  10.832 -0.6649 -0.4860  1.9182
  853TIP3   OH223973   0.465   5.993   3.423  0.3374 -0.0779 -0.2314
  853TIP3    H123974   0.549   6.015   3.463  1.2111 -1.5365 -1.2212
  853TIP3    H223975   0.425   6.078   3.403  0.9649  0.6323  1.4803
  854TIP3   OH223976   6.524   4.214   1.799  0.6992  0.0454  0.3741
  854TIP3    H123977   6.513   4.124   1.828 -0.2605 -1.1530 -3.4494
  854TIP3    H223978   6.437   4.254   1.811  0.3859 -0.3545 -0.5549
  855TIP3   OH223979   2.302   0.439  12.606  0.2788 -0.4386  0.1892
  855TIP3    H123980   2.308   0.535  12.612 -1.9864 -0.2922  0.4471
  855TIP3    H223981   2.351   0.408  12.682  0.6463  0.5273  0.3569
  856TIP3   OH223982   2.640   0.252  13.716  1.1397 -0.7004  0.0755
  856TIP3    H123983   2.615   0.170  13.672 -1.2868 -1.2306  2.3018
  856TIP3    H223984   2.706   0.225  13.779  1.0645 -0.7724  0.1238
  857TIP3   OH223985   6.341   3.445  13.192  0.1425 -1.1269  0.2132
  857TIP3    H123986   6.342   3.360  13.146 -2.1080 -0.5789 -0.9072
  857TIP3    H223987   6.249   3.459  13.213  0.8140 -0.0456  2.4987
  858TIP3   OH223988   5.530   3.809   5.149  0.8207  0.5002 -0.0037
  858TIP3    H123989   5.501   3.891   5.110  1.4473  0.7190 -0.0294
  858TIP3    H223990   5.495   3.741   5.091 -0.5605  0.6939  0.5890
  859TIP3   OH223991   3.467   3.690   3.430  0.0040  0.2389 -0.0083
  859TIP3    H123992   3.542   3.638   3.399 -0.1732  0.0808 -0.1693
  859TIP3    H223993   3.499   3.781   3.429  0.8782 -0.0159  1.8979
  860TIP3   OH223994   0.072   2.063   1.442  0.0718  1.0097 -0.1125
  860TIP3    H123995   0.074   2.114   1.523 -2.5998  0.5358  0.2952
  860TIP3    H223996   0.083   1.972   1.470 -2.1442  0.7089 -0.0903
  861TIP3   OH223997   6.171   4.142  17.140 -0.2542 -0.0250  0.1617
  861TIP3    H123998   6.148   4.050  17.123  2.4571 -0.5249 -1.1000
  861TIP3    H223999   6.128   4.191  17.071  1.0201 -0.7710 -1.2140
  862TIP3   OH224000   6.431   0.451   0.215 -0.0656  0.3306  0.4074
  862TIP3    H124001   6.504   0.393   0.192 -0.8636 -0.0337 -1.2828
  862TIP3    H224002   6.472   0.536   0.231  0.5625  0.6347 -2.5423
  863TIP3   OH224003   6.012   5.672  15.755 -0.4006  0.2285  0.2086
  863TIP3    H124004   5.982   5.716  15.834 -3.9622 -0.3005 -0.7856
  863TIP3    H224005   6.061   5.596  15.787 -0.0336  1.1536  1.8931
  864TIP3   OH224006   3.402   5.336   6.856 -0.5946  0.3486  0.5623
  864TIP3    H124007   3.347   5.410   6.883  0.5063  1.1093  0.7173
  864TIP3    H224008   3.483   5.346   6.906 -0.9228 -1.6910  1.5632
  865TIP3   OH224009   5.949   0.131  13.276 -0.7514 -0.3165  0.2126
  865TIP3    H124010   6.034   0.124  13.234 -0.6612 -0.0127  0.3461
  865TIP3    H224011   5.933   0.043  13.311 -0.2059 -0.2180  0.7319
  866TIP3   OH224012   2.389   1.967   4.133 -0.2460  0.3227 -0.0929
  866TIP3    H124013   2.421   2.057   4.130  0.0649  0.2707  1.0591
  866TIP3    H224014   2.359   1.948   4.044  1.0480  1.0697 -0.7017
  867TIP3   OH224015   1.101   6.161  15.129 -0.3491  0.1115 -0.5545
  867TIP3    H124016   1.024   6.202  15.089 -2.5792 -1.9397  1.4630
  867TIP3    H224017   1.133   6.099  15.063 -0.3811  1.0002 -1.4172
  868TIP3   OH224018   5.626   6.002  17.080  0.1514 -0.1396  0.2001
  868TIP3    H124019   5.644   6.063  17.008  0.7042 -0.3263  0.1815
  868TIP3    H224020   5.645   5.916  17.044 -1.2445 -0.3947  0.0240
  869TIP3   OH224021   5.346   2.062   1.608  0.3321  0.1716  0.1307
  869TIP3    H124022   5.302   2.038   1.526  2.1213 -1.9711 -0.2426
  869TIP3    H224023   5.277   2.056   1.675 -1.0610  1.6277 -1.1313
  870TIP3   OH224024   6.634   6.592   0.757  0.4754 -0.3230 -0.7942
  870TIP3    H124025   6.584   6.643   0.820  2.2553  1.1455 -0.5375
  870TIP3    H224026   6.608   6.501   0.773 -2.0113  0.3868 -0.6145
  871TIP3   OH224027   3.134   3.037   0.256  0.1511 -0.2062 -0.0627
  871TIP3    H124028   3.114   3.068   0.167  0.5296 -0.7100 -0.3263
  871TIP3    H224029   3.086   2.954   0.263  0.7223 -0.5351 -0.0638
  872TIP3   OH224030   1.535   0.940  14.580  0.1282  0.0113 -0.5253
  872TIP3    H124031   1.629   0.943  14.560  0.3036  0.1836  0.2829
  872TIP3    H224032   1.532   0.916  14.673 -0.6512 -0.9111 -0.7902
  873TIP3   OH224033   0.808   2.377  14.693 -0.2278  0.1542  0.0229
  873TIP3    H124034   0.810   2.469  14.719 -1.6324  0.1662  0.1641
  873TIP3    H224035   0.808   2.379  14.597 -1.1190  0.3490  0.0186
  874TIP3   OH224036   4.025   6.686   3.835 -0.5138 -0.0784  0.0455
  874TIP3    H124037   4.056   6.775   3.817  0.3060 -0.5711 -1.0073
  874TIP3    H224038   4.027   6.642   3.750 -2.4919 -0.6330  0.2579
  875TIP3   OH224039   5.495   0.731  15.848 -0.2887  0.1401 -0.1174
  875TIP3    H124040   5.477   0.780  15.928  0.0943 -2.0146  1.3391
  875TIP3    H224041   5.587   0.750  15.828 -0.6484  1.4188 -0.5895
  876TIP3   OH224042   2.311   0.772   0.512 -0.2586 -0.3612  0.1315
  876TIP3    H124043   2.356   0.809   0.589 -0.1213 -0.8335  0.2778
  876TIP3    H224044   2.236   0.725   0.549 -0.1194 -0.6976 -0.0167
  877TIP3   OH224045   0.773   2.092  15.524 -0.7706  0.0423 -0.3778
  877TIP3    H124046   0.843   2.065  15.583 -0.3823  0.0299 -0.8359
  877TIP3    H224047   0.720   2.013  15.513 -0.9770  0.1107  0.1383
  878TIP3   OH224048   3.243   1.617   5.982 -0.1632 -0.1676  0.2105
  878TIP3    H124049   3.258   1.588   5.892 -0.0614 -0.9906  0.4857
  878TIP3    H224050   3.152   1.646   5.983 -0.3692 -0.7905  0.0065
  879TIP3   OH224051   1.741   5.471   2.222 -0.3476  0.2183  0.5520
  879TIP3    H124052   1.708   5.477   2.133  3.9954  1.3861 -1.0909
  879TIP3    H224053   1.762   5.378   2.234  0.0371  0.2321 -0.0131
  880TIP3   OH224054   3.994   6.387  15.426  0.8082 -0.0300 -0.3310
  880TIP3    H124055   3.905   6.421  15.419  1.4253  1.8488  0.5602
  880TIP3    H224056   3.994   6.336  15.507 -0.2726 -2.7222 -1.9620
  881TIP3   OH224057   5.760   2.675  16.409 -0.2295 -0.4845 -0.1505
  881TIP3    H124058   5.782   2.743  16.473  0.0786  1.5576 -2.3653
  881TIP3    H224059   5.760   2.594  16.460  1.6017  0.8681  2.1333
  882TIP3   OH224060   0.666   2.291   4.419 -0.2443 -0.3306  0.6537
  882TIP3    H124061   0.701   2.221   4.474  1.5768  1.0192  1.2395
  882TIP3    H224062   0.585   2.318   4.463 -1.4537 -2.6497 -0.0639
  883TIP3   OH224063   1.172   4.126   4.415  0.5943 -0.3874 -0.2637
  883TIP3    H124064   1.087   4.114   4.374  1.6771 -1.4866 -2.2806
  883TIP3    H224065   1.153   4.164   4.501 -1.7141  2.9029 -2.1385
  884TIP3   OH224066   2.427   4.190   3.664 -0.1128 -0.7766 -0.2470
  884TIP3    H124067   2.375   4.149   3.733 -1.8802  1.9530  0.1454
  884TIP3    H224068   2.514   4.199   3.702 -0.2484 -2.1998  0.4226
  885TIP3   OH224069   1.441   4.430  13.857  0.0144  0.1411 -0.1663
  885TIP3    H124070   1.351   4.459  13.873 -0.3071 -0.5199 -0.7749
  885TIP3    H224071   1.455   4.359  13.919  0.3776  0.7323  0.4418
  886TIP3   OH224072   1.421   2.673  12.057  0.2670 -0.7933 -0.0487
  886TIP3    H124073   1.444   2.765  12.072  0.1580 -0.4840 -1.6926
  886TIP3    H224074   1.410   2.636  12.145  0.2871  0.7685  0.6208
  887TIP3   OH224075   2.336   0.705   4.669  0.1554 -0.5503 -0.0892
  887TIP3    H124076   2.405   0.765   4.642 -0.0500  0.0588  0.7303
  887TIP3    H224077   2.292   0.681   4.587  1.3161 -0.9418 -0.6141
  888TIP3   OH224078   2.711   0.534   0.109 -0.0306 -0.1180 -0.1994
  888TIP3    H124079   2.776   0.605   0.107 -0.8958  0.7147  0.5829
  888TIP3    H224080   2.764   0.454   0.112  0.9614  0.4585 -1.5417
  889TIP3   OH224081   3.983   2.444  13.906 -0.2174  0.5444 -0.8502
  889TIP3    H124082   3.972   2.470  13.997 -0.6564  3.6388 -1.7229
  889TIP3    H224083   3.894   2.445  13.870 -0.1463 -1.4518 -1.1617
  890TIP3   OH224084   4.647   1.650   1.926 -0.3426 -0.4748  0.8085
  890TIP3    H124085   4.731   1.609   1.948 -0.3488 -0.5092  0.7702
  890TIP3    H224086   4.657   1.741   1.952 -0.6651 -0.7156  1.7800
  891TIP3   OH224087   3.093   0.877   4.908 -0.0384 -0.1239  0.2542
  891TIP3    H124088   3.006   0.895   4.943 -0.3493 -0.0886 -0.5313
  891TIP3    H224089   3.078   0.851   4.817  0.6246 -1.7407  0.5828
  892TIP3   OH224090   0.299   5.966  14.835 -0.0118  0.0851 -0.1327
  892TIP3    H124091   0.331   5.924  14.914 -2.3130 -1.0651  0.2412
  892TIP3    H224092   0.323   5.906  14.764 -0.0815 -0.0540 -0.0359
  893TIP3   OH224093   3.336   4.206  13.877 -0.4341  1.0397 -0.2638
  893TIP3    H124094   3.351   4.157  13.796  1.4945  1.4499 -0.1905
  893TIP3    H224095   3.350   4.142  13.946 -0.7783  1.0075 -0.2224
  894TIP3   OH224096   5.015   2.651   3.125  0.3013  0.2626  0.2861
  894TIP3    H124097   4.968   2.600   3.191  0.5730 -0.1913  0.1253
  894TIP3    H224098   5.089   2.689   3.172 -1.5735  3.0311  1.1660
  895TIP3   OH224099   1.512   2.785  13.975 -0.0729 -0.0512 -0.1487
  895TIP3    H124100   1.548   2.854  13.918 -0.8822 -1.1418 -2.0268
  895TIP3    H224101   1.421   2.777  13.947 -0.1599 -1.4301  0.5245
  896TIP3   OH224102   4.656   1.957   0.003  0.2043 -0.2388 -0.2465
  896TIP3    H124103   4.634   2.046  -0.026  0.1071 -0.1359  0.1528
  896TIP3    H224104   4.615   1.948   0.089  2.2126  0.1636  0.7847
  897TIP3   OH224105   3.345   0.137  15.108 -0.5026 -0.3231 -0.1674
  897TIP3    H124106   3.377   0.186  15.184 -0.4303 -0.9583  0.2128
  897TIP3    H224107   3.424   0.104  15.067 -0.6023 -0.8584  0.0736
  898TIP3   OH224108   2.046   4.364  15.839  0.1637  0.7612  0.1941
  898TIP3    H124109   2.097   4.327  15.767 -2.0245 -1.8772 -0.0925
  898TIP3    H224110   2.025   4.453  15.809  0.9561  0.3920 -1.5430
  899TIP3   OH224111   1.795   6.752   3.871  0.0073  0.2295 -0.6480
  899TIP3    H124112   1.885   6.779   3.857  0.3739 -0.7423 -0.2382
  899TIP3    H224113   1.756   6.752   3.783  0.4173  0.5990 -0.8289
  900TIP3   OH224114   2.464   6.618  12.182  0.2684 -0.0670 -0.3068
  900TIP3    H124115   2.548   6.657  12.158  1.1314 -0.7466  1.4598
  900TIP3    H224116   2.443   6.561  12.108  1.2052  0.3530 -0.9197
  901TIP3   OH224117   6.135   2.721  11.595  0.1754 -0.3753  0.0339
  901TIP3    H124118   6.112   2.778  11.522  1.0273 -0.6055 -0.4235
  901TIP3    H224119   6.222   2.689  11.573  0.1331 -1.0185  0.8031
  902TIP3   OH224120   3.138   3.459  15.671 -0.3382  0.1040  0.2744
  902TIP3    H124121   3.090   3.379  15.691 -0.1006  0.0996  0.8655
  902TIP3    H224122   3.114   3.481  15.581  0.2256 -1.0738 -0.1728
  903TIP3   OH224123   0.414   0.906  16.138  0.5198 -0.3184  0.1612
  903TIP3    H124124   0.461   0.899  16.221  0.6375  2.3333  0.3494
  903TIP3    H224125   0.327   0.936  16.163  0.7522  1.1132 -0.7360
  904TIP3   OH224126   4.398   5.615   0.617 -0.5566 -0.0845  0.9185
  904TIP3    H124127   4.445   5.692   0.585  0.3686  0.3309  3.2047
  904TIP3    H224128   4.311   5.624   0.579 -0.0733  1.4040  0.0961
  905TIP3   OH224129   3.912   6.505   1.361 -0.1604  0.0384  0.0983
  905TIP3    H124130   3.866   6.579   1.323 -1.3745 -1.0128 -0.5438
  905TIP3    H224131   3.986   6.489   1.301  0.0376  0.6605  0.1813
  906TIP3   OH224132   2.588   2.981  14.061 -0.1090  0.7030 -0.1088
  906TIP3    H124133   2.542   3.010  14.139 -0.8390 -0.1710 -0.2059
  906TIP3    H224134   2.562   3.043  13.993 -1.5606 -0.0820 -0.2865
  907TIP3   OH224135   0.320   0.833  15.732 -0.3889  0.5963 -0.4789
  907TIP3    H124136   0.276   0.899  15.786 -0.4209  0.2885 -0.1224
  907TIP3    H224137   0.407   0.824  15.771 -1.2791 -1.4726  1.1202
  908TIP3   OH224138   2.259   6.749   3.143 -0.5377 -0.4042 -0.2134
  908TIP3    H124139   2.302   6.730   3.227 -0.7548 -0.3761 -0.0960
  908TIP3    H224140   2.168   6.766   3.166 -0.2722  1.1286 -0.2745
  909TIP3   OH224141   2.327   4.582  11.389  0.4657  0.1538  0.6026
  909TIP3    H124142   2.266   4.596  11.317  1.8373 -2.3948 -1.1588
  909TIP3    H224143   2.272   4.564  11.464 -0.9896  1.8791 -0.0191
  910TIP3   OH224144   3.330   5.729   0.878 -0.3254 -0.5717 -0.2439
  910TIP3    H124145   3.344   5.713   0.785  2.6458 -1.8488  0.3449
  910TIP3    H224146   3.395   5.795   0.901 -1.3718  0.1070  0.8199
  911TIP3   OH224147   3.602   3.610  14.239  0.4823 -0.1180 -0.1360
  911TIP3    H124148   3.598   3.515  14.254 -0.3010 -0.1574 -0.5405
  911TIP3    H224149   3.567   3.649  14.318 -0.0132 -0.1942 -0.3195
  912TIP3   OH224150   4.344   5.111   5.140 -0.3015  0.2782  0.3141
  912TIP3    H124151   4.317   5.076   5.225 -0.0194  0.3778  0.4431
  912TIP3    H224152   4.400   5.042   5.103  0.0167  0.4722  0.4421
  913TIP3   OH224153   1.825   4.764  16.230 -0.2068 -0.0236 -0.4651
  913TIP3    H124154   1.859   4.850  16.204  2.8629 -0.8443  0.7369
  913TIP3    H224155   1.893   4.702  16.204 -1.3379 -1.8650  0.8842
  914TIP3   OH224156   2.349   0.963  13.976  0.3484 -0.0440  0.2856
  914TIP3    H124157   2.275   0.999  13.927  0.2700  0.4199  0.7437
  914TIP3    H224158   2.349   0.870  13.954  0.2571  0.1454 -0.5180
  915TIP3   OH224159   0.388   5.867   0.205  0.3665 -0.4747 -0.1793
  915TIP3    H124160   0.338   5.941   0.170 -0.5439 -0.2488  1.5621
  915TIP3    H224161   0.362   5.793   0.150  0.6035  0.2900 -1.3595
  916TIP3   OH224162   6.323   0.671   2.363  0.1430 -0.0757 -0.0780
  916TIP3    H124163   6.355   0.695   2.450  0.1740  0.2714 -0.1868
  916TIP3    H224164   6.233   0.644   2.378  0.2541 -0.3590  0.1164
  917TIP3   OH224165   4.686   6.257   5.908 -0.2358 -0.1999 -0.7157
  917TIP3    H124166   4.762   6.314   5.897  1.1605 -1.6313  1.1677
  917TIP3    H224167   4.685   6.237   6.002 -2.0702 -1.3879 -0.9678
  918TIP3   OH224168   5.734   1.970  15.252 -0.0270  0.9209  0.1024
  918TIP3    H124169   5.775   2.009  15.175 -1.6040  1.8601 -0.2830
  918TIP3    H224170   5.669   2.035  15.280 -1.9585 -0.9539  0.1037
  919TIP3   OH224171   3.306   6.508   4.387  0.4599 -0.7121 -0.0299
  919TIP3    H124172   3.374   6.562   4.347  0.0475  0.3133  0.6259
  919TIP3    H224173   3.271   6.562   4.457 -0.7102 -1.4135 -0.0619
  920TIP3   OH224174   3.490   3.181  13.823  0.5000 -0.2304 -0.0231
  920TIP3    H124175   3.571   3.177  13.874  1.0211  0.6065 -0.7604
  920TIP3    H224176   3.450   3.095  13.833  0.3268  0.0834  2.2195
  921TIP3   OH224177   0.145   3.377  15.882 -0.0328 -0.4395 -0.0376
  921TIP3    H124178   0.157   3.469  15.857  0.4082 -0.6507 -0.6141
  921TIP3    H224179   0.143   3.379  15.978  0.0270  0.1638 -0.0455
  922TIP3   OH224180   4.841   4.435  13.600 -0.3680  0.1025 -0.0937
  922TIP3    H124181   4.823   4.360  13.657 -2.5868  0.0027 -0.8642
  922TIP3    H224182   4.825   4.401  13.512  1.8117  0.6019 -0.6998
  923TIP3   OH224183   5.297   1.334  16.584  0.6971  0.3387  0.3839
  923TIP3    H124184   5.371   1.282  16.552  0.6497 -0.9697  2.2883
  923TIP3    H224185   5.223   1.272  16.585  0.0876  1.0592  0.5620
  924TIP3   OH224186   2.141   0.854  16.180  0.2787 -0.0607  0.0800
  924TIP3    H124187   2.214   0.801  16.147 -0.6900 -1.9925  0.9121
  924TIP3    H224188   2.176   0.943  16.186  1.5230 -0.3075 -2.7489
  925TIP3   OH224189   5.102   2.689  13.868  0.6418 -0.1068  0.1324
  925TIP3    H124190   5.047   2.733  13.933 -2.8788 -2.6349 -0.9469
  925TIP3    H224191   5.071   2.598  13.868  2.0248 -0.6775 -3.5229
  926TIP3   OH224192   6.525   6.475   3.006  0.1882  0.6614 -0.0271
  926TIP3    H124193   6.610   6.458   2.965 -0.3342 -1.5675 -0.2140
  926TIP3    H224194   6.546   6.527   3.084  1.5839  1.2544 -0.7843
  927TIP3   OH224195   1.994   3.463   3.775  0.3304 -0.4858  0.4518
  927TIP3    H124196   2.005   3.513   3.694 -1.7984  1.0380  1.0633
  927TIP3    H224197   2.084   3.441   3.801  1.1180  0.1718 -1.5989
  928TIP3   OH224198   3.917   2.156   1.726  0.7682  0.4964 -0.1862
  928TIP3    H124199   3.998   2.120   1.762  0.8944  0.2470 -0.7221
  928TIP3    H224200   3.937   2.174   1.635 -0.5916 -2.1142 -1.0537
  929TIP3   OH224201   3.618   4.561   5.149 -0.0345  0.3615  0.5919
  929TIP3    H124202   3.557   4.583   5.219  0.2604 -0.2468  1.0526
  929TIP3    H224203   3.662   4.482   5.181 -0.3684 -0.3054 -0.5676
  930TIP3   OH224204   5.507   6.396   2.688  0.1257  0.3688  0.5069
  930TIP3    H124205   5.424   6.421   2.646 -0.0203  0.0033  0.5712
  930TIP3    H224206   5.487   6.313   2.731  0.7281 -0.0917 -0.0973
  931TIP3   OH224207   0.330   0.064  16.657  0.0814 -0.5570  0.3353
  931TIP3    H124208   0.252   0.108  16.621  1.3729  0.3617 -1.4396
  931TIP3    H224209   0.381   0.135  16.696  0.8585 -0.8791 -0.0800
  932TIP3   OH224210   4.679   3.292  16.348 -0.1135 -0.4734 -0.2739
  932TIP3    H124211   4.734   3.214  16.342  2.2567  1.0701  0.4279
  932TIP3    H224212   4.665   3.305  16.442 -0.2807  0.0472 -0.3662
  933TIP3   OH224213   5.458   5.357  15.817  0.2129 -0.0360 -0.6407
  933TIP3    H124214   5.390   5.359  15.750  1.0552 -1.3936 -1.5313
  933TIP3    H224215   5.538   5.383  15.772  0.4439  0.9181  0.2690
  934TIP3   OH224216   3.090   1.227  14.287  0.4662 -0.0861  0.2366
  934TIP3    H124217   3.065   1.135  14.277 -0.5565  0.1852  0.3402
  934TIP3    H224218   3.163   1.238  14.226  0.7071 -1.0098  0.3435
  935TIP3   OH224219   4.905   3.590   4.234  0.3918 -0.9865  0.1466
  935TIP3    H124220   4.914   3.624   4.145 -2.3850 -0.9507 -0.1757
  935TIP3    H224221   4.896   3.496   4.223 -2.6590 -0.7639  0.0700
  936TIP3   OH224222   3.699   0.968   5.044  0.1865  0.0493 -0.1836
  936TIP3    H124223   3.643   0.959   5.121 -0.1720 -0.2977 -0.4781
  936TIP3    H224224   3.695   0.882   5.002  0.7218  0.1088 -0.3596
  937TIP3   OH224225   4.009   3.952   2.733  0.3649  0.1852  0.6279
  937TIP3    H124226   3.917   3.966   2.753  0.2495  0.9734 -0.3988
  937TIP3    H224227   4.026   3.861   2.757 -1.5471 -1.0546 -2.3263
  938TIP3   OH224228   2.265   4.304  16.779 -0.9670  0.8050 -0.4863
  938TIP3    H124229   2.290   4.373  16.717  0.7346 -0.5547 -1.3846
  938TIP3    H224230   2.226   4.236  16.724 -1.3613  0.4778  0.1987
  939TIP3   OH224231   0.525   1.536  14.180  0.7158  0.8205 -0.8485
  939TIP3    H124232   0.526   1.531  14.276  0.1251 -1.0399 -0.9118
  939TIP3    H224233   0.543   1.628  14.160 -1.4971  1.7444  1.1005
  940TIP3   OH224234   0.587   2.430   5.662 -0.2434 -0.2640  0.2896
  940TIP3    H124235   0.643   2.497   5.702  1.7779 -1.9164  0.3096
  940TIP3    H224236   0.603   2.351   5.713 -1.0276 -1.2864 -0.9971
  941TIP3   OH224237   4.786   5.110  14.102 -0.1861  0.1056 -0.3945
  941TIP3    H124238   4.865   5.056  14.092  0.8978  1.0550  2.3016
  941TIP3    H224239   4.734   5.091  14.025  1.4131 -2.6984 -0.8783
  942TIP3   OH224240   5.193   6.102   4.011  0.2066  0.3347 -0.4561
  942TIP3    H124241   5.238   6.168   3.959 -1.3053  0.9776 -0.9557
  942TIP3    H224242   5.100   6.118   3.996 -0.2019 -0.9918  0.5551
  943TIP3   OH224243   1.512   1.104  16.930  0.3417  0.0656 -0.1905
  943TIP3    H124244   1.481   1.014  16.937  0.7979 -0.0445  0.3576
  943TIP3    H224245   1.548   1.110  16.841 -0.7580  0.0476 -0.6528
  944TIP3   OH224246   3.953   5.400   3.514  0.5937 -0.5077  0.2860
  944TIP3    H124247   3.925   5.363   3.430  0.2898  0.6257 -0.1250
  944TIP3    H224248   3.888   5.368   3.577  0.3836 -0.7349 -0.0467
  945TIP3   OH224249   4.917   3.632  15.453  0.5584  0.3305 -0.0605
  945TIP3    H124250   4.893   3.547  15.491 -0.6105  0.8649  0.4193
  945TIP3    H224251   4.893   3.696  15.520  0.7817  1.1011 -0.7055
  946TIP3   OH224252   6.466   2.706   4.835 -0.0368  0.1334 -0.3762
  946TIP3    H124253   6.470   2.615   4.867 -2.1880 -0.0316 -0.4633
  946TIP3    H224254   6.542   2.714   4.777  0.6100 -1.3856  0.2156
  947TIP3   OH224255   3.966   0.085  14.077  0.2700  0.2012  0.1654
  947TIP3    H124256   3.993   0.177  14.082  0.2225  0.2017  0.3730
  947TIP3    H224257   4.036   0.044  14.026  1.3786 -0.0672  1.8614
  948TIP3   OH224258   3.889   2.795   0.316 -0.4977  0.1018  0.2285
  948TIP3    H124259   3.864   2.716   0.364  0.0989 -1.1504 -1.4676
  948TIP3    H224260   3.928   2.763   0.235 -0.6228  2.1513 -0.6884
  949TIP3   OH224261   3.832   5.423   0.440 -0.3262  0.1931 -0.6036
  949TIP3    H124262   3.785   5.361   0.385 -0.0666 -0.0068 -0.6043
  949TIP3    H224263   3.861   5.372   0.515  0.1649  0.2347 -0.7602
  950TIP3   OH224264   3.509   4.020   3.752  0.0451 -0.9912 -0.2996
  950TIP3    H124265   3.473   4.063   3.829 -0.7496 -0.1874 -1.1178
  950TIP3    H224266   3.447   3.950   3.732  1.3152 -2.5328  1.0106
  951TIP3   OH224267   5.150   2.662  12.572 -0.5729 -0.6134 -0.1354
  951TIP3    H124268   5.071   2.613  12.595 -1.5532  2.4580  3.4657
  951TIP3    H224269   5.216   2.633  12.635  0.5578 -1.5030 -1.6980
  952TIP3   OH224270   6.010   4.009  13.167 -0.0801  0.0032  0.3816
  952TIP3    H124271   5.991   4.012  13.073 -1.6461  0.0410  0.6827
  952TIP3    H224272   6.103   4.031  13.173  0.3833 -1.3778 -1.2643
  953TIP3   OH224273   4.028   2.465  13.226 -0.7197 -0.7158  0.0753
  953TIP3    H124274   3.972   2.390  13.208  0.4624 -1.5343 -0.2419
  953TIP3    H224275   4.115   2.428  13.241 -0.1499  0.5693  0.0571
  954TIP3   OH224276   0.205   6.186   6.160  0.1246  0.6874  0.1559
  954TIP3    H124277   0.286   6.209   6.204 -0.3327 -0.1970  1.4799
  954TIP3    H224278   0.146   6.259   6.178  0.2794  0.8313  0.0832
  955TIP3   OH224279   3.061   1.202  10.970  0.3466  0.1325 -0.0146
  955TIP3    H124280   3.112   1.167  10.898  0.3279  0.3786 -0.1495
  955TIP3    H224281   3.093   1.155  11.047 -1.1082 -1.6700 -0.4648
  956TIP3   OH224282   0.174   4.734   1.132  0.7322 -0.0643 -0.1741
  956TIP3    H124283   0.225   4.765   1.057  0.2963 -0.1594 -0.5107
  956TIP3    H224284   0.239   4.721   1.201  0.8430  2.1323  0.1614
  957TIP3   OH224285   2.211   3.933   4.071 -0.9092  0.1997 -0.1314
  957TIP3    H124286   2.302   3.905   4.064 -0.8334  0.5494 -0.5499
  957TIP3    H224287   2.160   3.852   4.073 -0.5330 -0.0257  0.9771
  958TIP3   OH224288   2.099   3.106  15.794  0.2480 -0.3436  0.0677
  958TIP3    H124289   2.085   3.022  15.838  1.9230 -1.3048 -1.1765
  958TIP3    H224290   2.011   3.139  15.777 -0.4488 -2.2933 -0.2621
  959TIP3   OH224291   6.719   6.591  12.449 -0.1802 -0.2165 -0.4701
  959TIP3    H124292   6.704   6.616  12.358 -1.0356 -1.6528 -0.7345
  959TIP3    H224293   6.664   6.650  12.500  0.7823  1.0135 -0.8263
  960TIP3   OH224294   0.531   1.230   3.243  0.2918 -0.1219 -0.1141
  960TIP3    H124295   0.588   1.248   3.168  0.3538 -0.3418 -0.1197
  960TIP3    H224296   0.589   1.188   3.307  0.4203  0.7541  0.3596
  961TIP3   OH224297   2.846   2.557   3.861 -0.4118  0.5135 -0.1502
  961TIP3    H124298   2.758   2.527   3.884 -0.6718  1.5891  0.2821
  961TIP3    H224299   2.888   2.480   3.822 -1.1386 -0.3477  0.7332
  962TIP3   OH224300   2.349   5.296  13.574 -0.0576 -0.1639  0.6546
  962TIP3    H124301   2.299   5.277  13.654  1.4521 -1.6289  1.2626
  962TIP3    H224302   2.385   5.212  13.548 -0.2958  0.3619 -1.4330
  963TIP3   OH224303   5.387   0.079  15.519 -0.7513 -0.3547  0.3634
  963TIP3    H124304   5.302   0.118  15.539 -0.8182 -0.2800 -0.0454
  963TIP3    H224305   5.446   0.114  15.586 -0.8253  0.3972  0.0456
  964TIP3   OH224306   4.755   1.007  14.598 -0.4516  0.4450  0.4683
  964TIP3    H124307   4.725   0.999  14.508  0.9905 -0.2864  0.0451
  964TIP3    H224308   4.830   1.067  14.593  2.9489 -3.5962  0.3809
  965TIP3   OH224309   3.933   1.430  14.679  0.1155  0.0663  0.0320
  965TIP3    H124310   3.856   1.380  14.653 -0.2402 -0.9838  2.8478
  965TIP3    H224311   4.006   1.384  14.639 -0.5040 -0.6338 -0.3023
  966TIP3   OH224312   4.315   4.042   2.517 -0.4344  0.5542  0.2355
  966TIP3    H124313   4.301   4.051   2.611 -0.9271  2.9007 -0.0411
  966TIP3    H224314   4.322   4.132   2.485 -1.3756 -0.1798 -2.1267
  967TIP3   OH224315   3.499   2.027   1.374 -0.7714 -0.1900 -0.5511
  967TIP3    H124316   3.473   1.947   1.419  2.2609 -0.6992  0.4047
  967TIP3    H224317   3.486   2.096   1.439  3.5915 -0.9212  1.2617
  968TIP3   OH224318   1.190   2.947   4.137  0.1612  0.7584  0.4497
  968TIP3    H124319   1.195   3.009   4.210  1.6468 -1.0359  1.9227
  968TIP3    H224320   1.279   2.942   4.103 -0.7368  2.5462 -2.4031
  969TIP3   OH224321   6.747   0.107  12.940  0.1047  0.2182 -0.4993
  969TIP3    H124322   6.792   0.134  12.859 -0.7131 -0.4568 -1.1873
  969TIP3    H224323   6.783   0.165  13.007 -0.5188  2.0151 -1.6678
  970TIP3   OH224324   3.982   2.457   5.866 -0.2016  0.7105 -0.3771
  970TIP3    H124325   3.996   2.521   5.936 -1.7428  0.3297  0.3046
  970TIP3    H224326   4.033   2.381   5.893 -0.8367  0.5455  0.3564
  971TIP3   OH224327   3.142   0.506  11.491  0.4009  0.4071 -0.5801
  971TIP3    H124328   3.104   0.420  11.479 -0.0573  0.4179  0.7593
  971TIP3    H224329   3.073   0.567  11.465 -0.3767  0.4188  1.4506
  972TIP3   OH224330   0.421   1.419   2.595 -0.2788 -0.0248 -0.0038
  972TIP3    H124331   0.376   1.373   2.524  0.5344  0.1411 -0.6344
  972TIP3    H224332   0.508   1.438   2.560  0.1237  0.0754  1.0346
  973TIP3   OH224333   4.851   3.924   2.329 -0.2888 -0.2855 -0.0825
  973TIP3    H124334   4.878   4.011   2.300 -0.1674 -0.8841 -1.8420
  973TIP3    H224335   4.850   3.929   2.425  3.3931  0.5518 -0.0289
  974TIP3   OH224336   3.690   2.234   1.892  0.4319 -0.0752 -0.2349
  974TIP3    H124337   3.769   2.223   1.839  0.0394 -0.5017 -0.7315
  974TIP3    H224338   3.723   2.253   1.980  1.1020 -2.1235 -0.0240
  975TIP3   OH224339   3.674   6.535  13.611  0.0608  0.4023 -0.0665
  975TIP3    H124340   3.714   6.486  13.539  0.6863  1.6779 -0.6103
  975TIP3    H224341   3.717   6.501  13.690 -0.0976 -0.4838 -0.3524
  976TIP3   OH224342   2.875   2.060   2.664  0.0082  0.1654  0.2510
  976TIP3    H124343   2.926   2.044   2.744 -0.2066  0.0450  0.3633
  976TIP3    H224344   2.826   1.979   2.650  0.5943 -0.0821 -0.4057
  977TIP3   OH224345   6.047   0.376   1.823 -0.1413  0.0412 -0.2034
  977TIP3    H124346   6.136   0.402   1.844 -0.2776 -0.0452  0.5279
  977TIP3    H224347   5.993   0.452   1.844 -0.1870  0.2610 -1.1082
  978TIP3   OH224348   3.083   0.568  14.195  0.1213 -0.6914  0.4576
  978TIP3    H124349   3.095   0.624  14.271 -0.8807 -1.5598  1.2594
  978TIP3    H224350   2.989   0.568  14.178  0.4920  0.9414 -1.8979
  979TIP3   OH224351   0.856   5.022   0.433  0.1382  0.2388 -0.0088
  979TIP3    H124352   0.779   5.069   0.401 -0.0152 -0.1036 -0.1414
  979TIP3    H224353   0.839   4.931   0.412  0.2813  0.0771  0.5563
  980TIP3   OH224354   3.423   5.731   0.102  0.0942 -0.2104  0.1390
  980TIP3    H124355   3.367   5.712   0.177 -0.9458  0.1520 -0.5411
  980TIP3    H224356   3.365   5.728   0.027  0.6589  1.7429 -0.4106
  981TIP3   OH224357   1.833   4.393  13.737 -0.4423 -0.7935 -0.1919
  981TIP3    H124358   1.893   4.318  13.739 -1.2458 -1.4457 -0.1551
  981TIP3    H224359   1.787   4.385  13.654 -0.0807  0.0190 -0.4665
  982TIP3   OH224360   4.715   1.560   1.167  0.0642  0.0422 -0.4438
  982TIP3    H124361   4.658   1.636   1.176  0.5437  0.0722  2.9316
  982TIP3    H224362   4.693   1.503   1.241  0.2812 -2.7558 -2.4340
  983TIP3   OH224363   5.791   5.538  14.722  0.3724 -0.1868  0.2295
  983TIP3    H124364   5.720   5.589  14.684  0.4806 -1.4591 -1.7653
  983TIP3    H224365   5.779   5.450  14.687  1.7496 -0.9062  1.4766
  984TIP3   OH224366   0.291   0.846  17.207 -0.2812  0.2587 -0.6618
  984TIP3    H124367   0.303   0.765  17.255 -2.5531 -0.4944 -1.2919
  984TIP3    H224368   0.303   0.915  17.272 -0.7098 -0.6728  0.4177
  985TIP3   OH224369   4.892   4.210   2.197 -0.4601  0.0144  0.5327
  985TIP3    H124370   4.987   4.212   2.210 -0.5780  3.0071  1.2599
  985TIP3    H224371   4.871   4.294   2.157 -2.6249 -1.2999 -1.2833
  986TIP3   OH224372   6.485   3.274   0.471 -0.2379 -0.4927 -0.2009
  986TIP3    H124373   6.421   3.298   0.405  0.7639 -1.7800 -1.6921
  986TIP3    H224374   6.564   3.253   0.422  0.2743 -2.3558  1.3090
  987TIP3   OH224375   4.904   1.432  11.056  0.0629 -0.1315  0.0115
  987TIP3    H124376   4.825   1.455  11.008  0.3192 -0.9317 -0.8110
  987TIP3    H224377   4.969   1.416  10.988  0.8049  0.0781  0.6738
  988TIP3   OH224378   0.541   1.553  16.710 -0.5824  0.1343  0.1345
  988TIP3    H124379   0.553   1.633  16.761 -0.0711 -0.3286  0.7450
  988TIP3    H224380   0.629   1.516  16.702 -0.7761 -0.2309 -0.3796
  989TIP3   OH224381   3.105   0.650   1.191  0.2559 -0.7359  0.5653
  989TIP3    H124382   3.031   0.673   1.134  1.2670 -1.1734 -0.9759
  989TIP3    H224383   3.120   0.557   1.174  0.4757 -0.9111  1.6861
  990TIP3   OH224384   5.973   4.050   2.245  0.5199 -0.1782 -0.3027
  990TIP3    H124385   5.923   3.983   2.199  1.5387 -1.1592 -0.0133
  990TIP3    H224386   6.055   4.006   2.268  0.5989  0.7147  1.1912
  991TIP3   OH224387   2.281   3.685   3.788  0.0664  0.0758  0.4147
  991TIP3    H124388   2.249   3.769   3.756  1.6593  0.6702  0.3818
  991TIP3    H224389   2.376   3.688   3.776 -0.0359 -2.4454 -1.3174
  992TIP3   OH224390   4.859   1.912  13.873 -0.1883 -0.2106 -0.2589
  992TIP3    H124391   4.807   1.907  13.953  1.6918 -2.7821  0.8599
  992TIP3    H224392   4.933   1.968  13.896 -0.2695  0.0235 -0.5626
  993TIP3   OH224393   0.877   5.647   4.870  0.1565  0.2555  0.3730
  993TIP3    H124394   0.967   5.659   4.841 -0.9278  3.7795 -1.8638
  993TIP3    H224395   0.830   5.617   4.793 -1.0328  0.7488  0.8804
  994TIP3   OH224396   1.416   6.236  16.462 -0.5663  0.7789  0.6076
  994TIP3    H124397   1.343   6.295  16.441 -0.0654  1.9387  2.1079
  994TIP3    H224398   1.479   6.291  16.508 -0.4738 -1.1202  2.7970
  995TIP3   OH224399   2.644   6.599  13.849  0.6653  0.4572  0.6964
  995TIP3    H124400   2.548   6.599  13.842  0.8652  0.0008 -2.6300
  995TIP3    H224401   2.661   6.646  13.931 -2.3423  2.0334  0.5187
  996TIP3   OH224402   5.327   0.806   4.410  0.8256  0.2144  0.5184
  996TIP3    H124403   5.367   0.880   4.455 -0.0275 -0.1502  1.9114
  996TIP3    H224404   5.295   0.749   4.481  1.0635 -1.2576 -0.5219
  997TIP3   OH224405   3.442   1.287   3.139 -0.1850 -0.4769  0.4469
  997TIP3    H124406   3.383   1.357   3.114  0.3343 -0.4874 -0.8459
  997TIP3    H224407   3.410   1.210   3.090  0.9099 -0.4711 -0.2931
  998TIP3   OH224408   4.286   2.876  10.534 -0.1828 -0.2954 -0.0431
  998TIP3    H124409   4.341   2.864  10.611  0.1906 -2.5064 -0.6237
  998TIP3    H224410   4.212   2.816  10.547 -1.6492  1.4851 -0.0216
  999TIP3   OH224411   2.697   0.617   1.158  0.0773  0.8830 -0.4167
  999TIP3    H124412   2.605   0.642   1.158  0.0909  0.9328  0.6093
  999TIP3    H224413   2.718   0.600   1.250  0.8294 -0.0957 -0.7510
 1000TIP3   OH224414   2.274   4.457  14.253 -0.7234  0.0705 -0.2034
 1000TIP3    H124415   2.351   4.509  14.277 -0.4537 -0.9112  1.1393
 1000TIP3    H224416   2.204   4.521  14.244 -0.9335  0.4865  3.7295
 1001TIP3   OH224417   1.334   1.834  14.027  0.4538  0.0280  0.5425
 1001TIP3    H124418   1.316   1.925  14.048 -1.2557  0.0277 -0.7395
 1001TIP3    H224419   1.388   1.802  14.099  0.5773  1.8933  1.2873
 1002TIP3   OH224420   2.858   1.184   4.390  0.3646  0.3881  0.0625
 1002TIP3    H124421   2.947   1.196   4.355  0.1949 -0.0431 -0.5202
 1002TIP3    H224422   2.870   1.182   4.485  1.0455 -0.1575 -0.0314
 1003TIP3   OH224423   0.331   3.584  11.748 -0.1288  0.3554  0.5299
 1003TIP3    H124424   0.410   3.561  11.797 -1.5319 -1.7376  1.8943
 1003TIP3    H224425   0.260   3.577  11.812 -1.3994  2.7031 -0.5385
 1004TIP3   OH224426   0.617   5.935   5.312 -0.3110  0.4708  0.1428
 1004TIP3    H124427   0.606   5.858   5.257  0.1775  0.6566 -0.2107
 1004TIP3    H224428   0.696   5.978   5.280 -0.3080  0.8606  0.6497
 1005TIP3   OH224429   2.505   3.106   1.416 -0.1139  0.2071  0.0233
 1005TIP3    H124430   2.472   3.026   1.376  0.3157  0.0743 -0.0680
 1005TIP3    H224431   2.585   3.127   1.366  0.9997 -0.5330  1.4438
 1006TIP3   OH224432   0.192   2.463   2.811 -0.0228  0.0011 -0.0625
 1006TIP3    H124433   0.153   2.470   2.898  0.8378 -0.2445  0.3393
 1006TIP3    H224434   0.238   2.379   2.811 -1.6728 -0.9514 -1.4221
 1007TIP3   OH224435   3.227   0.140  11.289  0.3350  0.8458 -0.2453
 1007TIP3    H124436   3.310   0.145  11.335  0.0206 -0.1035  0.4409
 1007TIP3    H224437   3.251   0.132  11.196  1.0307 -0.0487 -0.0011
 1008TIP3   OH224438   3.890   0.913  11.735 -0.3538 -0.2651 -0.4535
 1008TIP3    H124439   3.803   0.938  11.766 -0.7839  1.0262 -2.6248
 1008TIP3    H224440   3.880   0.822  11.706 -0.8414 -0.2901 -0.2057
 1009TIP3   OH224441   5.663   2.306   6.225  0.3944 -0.6404 -0.1914
 1009TIP3    H124442   5.628   2.379   6.277  0.9159 -0.0318 -0.6786
 1009TIP3    H224443   5.623   2.228   6.263 -0.7692 -0.0390 -0.1449
 1010TIP3   OH224444   6.009   5.972  12.657 -0.2246 -0.0592  0.2051
 1010TIP3    H124445   5.962   5.922  12.589  0.2810  0.2874 -0.4093
 1010TIP3    H224446   6.004   5.917  12.735 -1.2735 -0.2281  0.0311
 1011TIP3   OH224447   0.032   6.122   3.302 -0.3115 -0.0672 -0.3408
 1011TIP3    H124448   0.038   6.201   3.356 -0.3909 -0.7848  0.7337
 1011TIP3    H224449   0.086   6.140   3.225 -0.0011  0.8664  0.1000
 1012TIP3   OH224450   5.849   4.104   4.968 -0.1791  0.3677 -0.1654
 1012TIP3    H124451   5.878   4.014   4.956  2.5802  1.0912  0.6365
 1012TIP3    H224452   5.762   4.108   4.927 -0.1422 -2.5106 -0.5898
 1013TIP3   OH224453   5.753   5.433  11.983  0.2719  0.0704 -0.1207
 1013TIP3    H124454   5.729   5.341  11.992  0.2569 -0.0511 -1.3440
 1013TIP3    H224455   5.826   5.433  11.922 -0.7212  0.9886 -1.3513
 1014TIP3   OH224456   6.093   0.372  12.700 -0.3963  0.0470  0.1656
 1014TIP3    H124457   6.078   0.305  12.767  1.1383  1.5057  2.0101
 1014TIP3    H224458   6.112   0.322  12.620  0.0381 -1.7122  1.3329
 1015TIP3   OH224459   4.962   3.447   5.837  0.0901 -0.4956 -0.1051
 1015TIP3    H124460   5.038   3.429   5.892 -0.2906 -1.7736  0.0280
 1015TIP3    H224461   4.998   3.482   5.756  0.6242  1.9560  1.1536
 1016TIP3   OH224462   3.920   0.085   2.482 -0.3553  0.9391 -0.0444
 1016TIP3    H124463   3.826   0.096   2.473 -0.3584  1.8332  0.9076
 1016TIP3    H224464   3.957   0.166   2.448  0.0481  0.7294 -0.1069
 1017TIP3   OH224465   4.006   5.063   3.847  0.1580  0.1143  0.2108
 1017TIP3    H124466   4.057   5.085   3.769 -0.5852  0.3532 -0.2194
 1017TIP3    H224467   4.043   5.117   3.917 -0.2631  1.1491 -0.3598
 1018TIP3   OH224468   0.298   1.981   4.354  0.3730  0.1586  0.2174
 1018TIP3    H124469   0.222   1.957   4.301  0.2777  0.2313  0.3209
 1018TIP3    H224470   0.284   2.074   4.374 -0.0749 -0.1143  1.1790
 1019TIP3   OH224471   0.251   1.761   5.047 -0.1496 -0.0505  0.1732
 1019TIP3    H124472   0.240   1.753   5.142 -0.3287 -0.4210  0.1211
 1019TIP3    H224473   0.164   1.782   5.014 -0.7404 -2.9236 -0.2341
 1020TIP3   OH224474   1.725   4.567   2.112 -0.0698 -0.5156  0.0392
 1020TIP3    H124475   1.738   4.657   2.082  1.5667 -0.6483  0.2987
 1020TIP3    H224476   1.659   4.574   2.181 -1.1573  0.2575 -1.0671
 1021TIP3   OH224477   1.473   3.786  12.895 -0.2179 -0.0264 -0.1291
 1021TIP3    H124478   1.484   3.702  12.940 -0.9451 -0.4158 -0.6481
 1021TIP3    H224479   1.561   3.810  12.866  0.3570  0.5502  2.0299
 1022TIP3   OH224480   0.725   0.767  15.345 -0.2848 -0.2921  0.3433
 1022TIP3    H124481   0.639   0.781  15.305 -0.1076  0.1733  0.1270
 1022TIP3    H224482   0.711   0.694  15.406 -0.5760 -0.9577 -0.5078
 1023TIP3   OH224483   0.733   5.819   0.568  0.2644  0.1512  0.6943
 1023TIP3    H124484   0.727   5.726   0.589 -0.4112 -0.0622 -0.4118
 1023TIP3    H224485   0.753   5.822   0.475  4.2401  1.0814  1.5035
 1024TIP3   OH224486   1.944   4.892  11.821 -0.1280 -0.5477  0.2649
 1024TIP3    H124487   1.905   4.979  11.823  1.1897  0.0352  1.6037
 1024TIP3    H224488   1.996   4.891  11.741  2.0625  0.9285  1.5937
 1025TIP3   OH224489   0.884   0.576   2.623  0.0586 -0.3455  0.9008
 1025TIP3    H124490   0.936   0.549   2.698  0.5540 -0.4389  0.5255
 1025TIP3    H224491   0.902   0.669   2.613 -0.2811 -0.2569  1.1149
 1026TIP3   OH224492   0.663   0.345  16.388  0.0645  0.2094 -0.0930
 1026TIP3    H124493   0.616   0.415  16.433  0.6844  0.6544 -0.1233
 1026TIP3    H224494   0.598   0.276  16.376  0.3412 -0.7406  3.2506
 1027TIP3   OH224495   2.422   1.365  14.001 -0.2065  0.3124 -0.3007
 1027TIP3    H124496   2.474   1.291  13.968 -0.4968  0.8032 -1.8721
 1027TIP3    H224497   2.336   1.355  13.961  0.3096  2.5558 -2.0975
 1028TIP3   OH224498   2.712   0.736   0.529  0.1542  0.5162 -0.3847
 1028TIP3    H124499   2.665   0.679   0.467  0.3233  0.9596 -0.9201
 1028TIP3    H224500   2.696   0.695   0.615  1.7958 -1.3984 -0.9531
 1029TIP3   OH224501   3.899   6.021  16.916 -0.1525 -0.3560  0.0654
 1029TIP3    H124502   3.965   5.964  16.954 -0.0903  0.3004  0.9784
 1029TIP3    H224503   3.900   6.099  16.973 -3.8839 -1.6083  2.0207
 1030TIP3   OH224504   4.501   3.949   1.797 -0.4910 -0.1907  0.6493
 1030TIP3    H124505   4.579   3.966   1.745 -1.4357  2.4856  0.0474
 1030TIP3    H224506   4.448   3.890   1.744 -1.7482  3.0193 -1.8169
 1031TIP3   OH224507   5.700   2.432   0.178  0.1085  0.0750 -0.1260
 1031TIP3    H124508   5.708   2.397   0.089 -2.4857  0.7545 -0.6653
 1031TIP3    H224509   5.707   2.355   0.235  0.1329 -0.5798 -1.0123
 1032TIP3   OH224510   5.497   5.501   5.619  0.1265 -0.4750 -0.2146
 1032TIP3    H124511   5.593   5.502   5.621  0.1446 -1.8032  0.0436
 1032TIP3    H224512   5.475   5.471   5.531 -0.0547 -0.0809 -0.3041
 1033TIP3   OH224513   5.712   3.986  13.814  0.0255 -0.0217  0.4557
 1033TIP3    H124514   5.745   4.052  13.754 -1.2178  0.7045  0.5423
 1033TIP3    H224515   5.721   3.903  13.767 -0.9665  0.5402 -0.7604
 1034TIP3   OH224516   6.550   5.064   1.338  0.3700 -0.2110  0.3190
 1034TIP3    H124517   6.605   5.002   1.290 -0.4570 -0.3805 -0.4412
 1034TIP3    H224518   6.528   5.020   1.419  0.7178 -0.4558  0.2791
 1035TIP3   OH224519   6.722   1.991   3.284  0.1206  0.4873 -0.1943
 1035TIP3    H124520   6.635   2.022   3.259 -0.1173 -0.0050  0.0176
 1035TIP3    H224521   6.713   1.896   3.289  0.4811  0.4879  0.5637
 1036TIP3   OH224522   2.503   3.321  12.326 -0.0023 -0.0918 -0.6575
 1036TIP3    H124523   2.546   3.294  12.245  2.9194 -0.0838  0.8502
 1036TIP3    H224524   2.541   3.266  12.394 -3.4458 -1.0957  0.6016
 1037TIP3   OH224525   0.665   1.234  16.961 -0.2575 -0.0942 -0.7851
 1037TIP3    H124526   0.680   1.203  16.872  0.6848  1.2187 -1.0903
 1037TIP3    H224527   0.597   1.176  16.995  0.9754 -2.0503 -1.5717
 1038TIP3   OH224528   4.574   6.468   5.078  0.4883 -0.1099 -0.2439
 1038TIP3    H124529   4.586   6.390   5.132  0.8983  0.1928  0.1059
 1038TIP3    H224530   4.488   6.456   5.038  0.2327 -0.3930  0.3837
 1039TIP3   OH224531   0.552   6.166  13.558 -0.2769  0.2953  0.0123
 1039TIP3    H124532   0.594   6.080  13.564 -0.4851  0.0852 -1.3557
 1039TIP3    H224533   0.461   6.150  13.583 -0.2953  0.1321 -0.1582
 1040TIP3   OH224534   4.318   2.193  10.479  0.5175 -0.1422  0.1910
 1040TIP3    H124535   4.338   2.115  10.427  0.8604 -0.8893  1.4045
 1040TIP3    H224536   4.244   2.166  10.534  0.3353  0.5443  0.2878
 1041TIP3   OH224537   0.572   0.769  14.921  0.1684  0.4013  0.6964
 1041TIP3    H124538   0.500   0.711  14.894  0.0892  0.3920  0.9184
 1041TIP3    H224539   0.529   0.851  14.946  0.0489 -0.1475  2.4012
 1042TIP3   OH224540   0.022   2.764  15.495  0.0013 -0.4537 -0.8376
 1042TIP3    H124541   0.082   2.812  15.553 -0.5559  0.7474 -1.2265
 1042TIP3    H224542  -0.019   2.699  15.552 -0.1840  0.3937  0.0232
 1043TIP3   OH224543   5.502   2.426   5.252  0.7835  0.5354 -1.3267
 1043TIP3    H124544   5.501   2.406   5.345  0.6472  1.1714 -1.1841
 1043TIP3    H224545   5.488   2.521   5.248 -1.5515  0.1804 -2.0957
 1044TIP3   OH224546   5.314   0.008  16.974 -0.0626  0.2404 -0.5427
 1044TIP3    H124547   5.300  -0.063  17.037  0.4985  0.6545  0.0526
 1044TIP3    H224548   5.230   0.016  16.928 -0.3766 -0.2747 -0.0664
 1045TIP3   OH224549   0.021   4.308  12.996 -0.2759  0.2280 -0.6921
 1045TIP3    H124550   0.060   4.307  12.909  0.0407 -0.0355 -0.5489
 1045TIP3    H224551  -0.066   4.346  12.983 -0.5797 -0.6554 -1.2788
 1046TIP3   OH224552   5.110   6.668   1.643 -0.1165 -0.0146 -0.5327
 1046TIP3    H124553   5.125   6.718   1.723  0.0426 -0.5588 -0.2138
 1046TIP3    H224554   5.198   6.653   1.608 -0.0220 -1.4241  0.2284
 1047TIP3   OH224555   4.164   2.594   4.139  0.2166  0.7620 -0.4500
 1047TIP3    H124556   4.200   2.683   4.139 -0.5364  1.0838  0.7486
 1047TIP3    H224557   4.072   2.605   4.115  0.0925  0.3111 -0.1867
 1048TIP3   OH224558   6.639   1.164  15.721  0.4910 -0.0243  0.0017
 1048TIP3    H124559   6.619   1.214  15.643 -2.0784 -1.4595 -0.3105
 1048TIP3    H224560   6.689   1.088  15.689  0.9354  0.2777 -0.0233
 1049TIP3   OH224561   0.434   4.375  12.495  0.3771  0.7820  0.1411
 1049TIP3    H124562   0.396   4.308  12.438  0.3390 -0.1815  1.2811
 1049TIP3    H224563   0.420   4.457  12.448 -3.5344  0.5157  0.7307
 1050TIP3   OH224564   2.268   6.283   0.642  0.0227 -0.2498  0.2939
 1050TIP3    H124565   2.225   6.328   0.715  0.4255  0.8153 -0.1155
 1050TIP3    H224566   2.300   6.354   0.586  3.2508 -0.9941  1.1113
 1051TIP3   OH224567   1.191   0.770   0.110 -0.0979 -0.7375 -0.7722
 1051TIP3    H124568   1.142   0.751   0.190  1.9671 -2.0808  0.2204
 1051TIP3    H224569   1.131   0.747   0.039 -2.2917  1.3501  0.3492
 1052TIP3   OH224570   1.204   2.691   4.349 -0.5917  0.2048  0.2068
 1052TIP3    H124571   1.174   2.734   4.429  1.0409 -0.4578  1.1881
 1052TIP3    H224572   1.140   2.622   4.334 -0.1337 -0.5810  1.7484
 1053TIP3   OH224573   2.815   1.466   0.329 -0.6349 -0.0041 -0.7743
 1053TIP3    H124574   2.777   1.383   0.301  1.3386 -0.8508 -1.0105
 1053TIP3    H224575   2.892   1.478   0.272  0.0164  1.1873  0.3215
 1054TIP3   OH224576   1.196   4.023  15.878  0.2328  0.2046  0.0733
 1054TIP3    H124577   1.172   3.937  15.842 -1.0402  0.8252 -0.5864
 1054TIP3    H224578   1.247   4.065  15.810 -0.6132  0.6459 -0.3015
 1055TIP3   OH224579   0.121   3.415  12.589  0.0016 -0.0659  0.0797
 1055TIP3    H124580   0.193   3.362  12.624 -1.4478 -1.2139  1.4093
 1055TIP3    H224581   0.083   3.361  12.520  1.9744  1.6142 -2.4014
 1056TIP3   OH224582   0.998   5.799  17.154 -0.1369  0.0916  0.5036
 1056TIP3    H124583   0.918   5.774  17.109 -0.5717 -0.5310  1.5946
 1056TIP3    H224584   1.044   5.716  17.168  0.6599  0.4320 -0.0260
 1057TIP3   OH224585   1.734   2.751  13.713  0.2490 -0.6069  0.3332
 1057TIP3    H124586   1.789   2.808  13.659 -1.0099 -1.0542 -1.4444
 1057TIP3    H224587   1.653   2.800  13.725 -0.3348 -1.4538 -0.0971
 1058TIP3   OH224588   4.917   4.649   5.770  0.2514 -0.2863  0.0768
 1058TIP3    H124589   4.832   4.679   5.800  0.2356 -0.8253  0.5882
 1058TIP3    H224590   4.902   4.558   5.743  1.0650 -1.0354  2.0224
 1059TIP3   OH224591   0.027   3.382  10.762  0.1699  0.1993  0.0091
 1059TIP3    H124592  -0.028   3.359  10.836 -0.9142  1.9019 -0.2496
 1059TIP3    H224593   0.003   3.320  10.693  0.8390 -1.0726  0.9158
 1060TIP3   OH224594   4.163   4.804   4.285  0.3533  0.6458  0.6437
 1060TIP3    H124595   4.227   4.804   4.357 -0.8024  1.8059  1.6933
 1060TIP3    H224596   4.129   4.894   4.284 -1.4409 -0.0261  0.2569
 1061TIP3   OH224597   1.876   4.635   3.476  0.2196 -0.3604 -0.3961
 1061TIP3    H124598   1.872   4.589   3.560  0.7533 -2.1334 -1.2971
 1061TIP3    H224599   1.902   4.724   3.498  0.5137 -0.8509  1.3001
 1062TIP3   OH224600   0.477   1.436   3.554  0.0511  0.6652  0.0852
 1062TIP3    H124601   0.569   1.431   3.527 -0.0509 -0.6819 -0.0288
 1062TIP3    H224602   0.469   1.522   3.595  1.3757  0.7819  0.1202
 1063TIP3   OH224603   3.061   0.223  15.681 -0.3635  0.6266  0.3077
 1063TIP3    H124604   3.138   0.271  15.650  1.9802 -0.3109  4.3466
 1063TIP3    H224605   2.987   0.268  15.641  2.1153  3.5271 -1.2030
 1064TIP3   OH224606   5.441   5.362  13.472 -0.3421 -0.6307  0.7786
 1064TIP3    H124607   5.390   5.386  13.395 -0.0207 -1.7697  0.1996
 1064TIP3    H224608   5.532   5.383  13.449 -0.2271 -1.1077  0.7814
 1065TIP3   OH224609   3.571   4.500   1.605  0.3405  0.3770 -0.1678
 1065TIP3    H124610   3.551   4.577   1.552  1.7960  0.8531 -0.0342
 1065TIP3    H224611   3.596   4.433   1.542 -0.9709 -0.0176 -0.2875
 1066TIP3   OH224612   1.156   6.639  14.345 -0.1762  0.0485  0.2338
 1066TIP3    H124613   1.069   6.621  14.380 -0.7986  1.1046 -0.7288
 1066TIP3    H224614   1.217   6.610  14.413 -1.2762 -0.9951  0.7688
 1067TIP3   OH224615   2.832   5.945  15.885  0.2580 -0.0894  0.0301
 1067TIP3    H124616   2.879   5.870  15.849 -3.0439 -2.7535  1.0265
 1067TIP3    H224617   2.778   5.976  15.812 -0.6299 -0.5952  0.4677
 1068TIP3   OH224618   5.151   6.515   0.833 -0.4403 -0.2681 -0.2849
 1068TIP3    H124619   5.125   6.429   0.800  0.4851 -0.6221 -0.1181
 1068TIP3    H224620   5.155   6.505   0.928 -0.4884  0.0040 -0.2522
 1069TIP3   OH224621   3.702   3.496   0.227 -0.0892  0.2069 -0.3380
 1069TIP3    H124622   3.730   3.550   0.154  1.0936  0.3440  0.1978
 1069TIP3    H224623   3.769   3.511   0.295 -0.1856 -1.2785  0.1099
 1070TIP3   OH224624   2.520   3.383  13.090  0.3124 -0.6619 -0.1019
 1070TIP3    H124625   2.601   3.390  13.040  0.9958 -1.6209  0.8394
 1070TIP3    H224626   2.496   3.474  13.109  0.9235 -0.3556 -0.7742
 1071TIP3   OH224627   1.509   3.588  16.827 -0.8013 -0.0082 -0.4442
 1071TIP3    H124628   1.445   3.618  16.762 -1.4889  1.9405  1.0902
 1071TIP3    H224629   1.576   3.657  16.829 -0.2375 -0.5580  0.1794
 1072TIP3   OH224630   3.407   2.923  13.825 -0.3577  0.2797  0.1180
 1072TIP3    H124631   3.361   2.893  13.747  2.3829 -0.5652 -1.2375
 1072TIP3    H224632   3.355   2.889  13.898 -1.3465 -1.4343 -1.3516
 1073TIP3   OH224633   2.493   2.506  16.865  0.7613  0.2441  0.5841
 1073TIP3    H124634   2.527   2.565  16.797 -2.5323 -0.1641 -1.5680
 1073TIP3    H224635   2.496   2.419  16.825  2.3980 -0.6061  2.4730
 1074TIP3   OH224636   0.542   1.155  15.709  0.0648 -0.3603 -0.1762
 1074TIP3    H124637   0.564   1.096  15.638  0.9004 -0.1138 -0.1302
 1074TIP3    H224638   0.579   1.114  15.787  0.3133  0.0322 -0.0878
 1075TIP3   OH224639   6.456   1.200   0.448 -0.0205  0.3695 -0.2577
 1075TIP3    H124640   6.474   1.286   0.410 -2.3064  1.4739  1.0593
 1075TIP3    H224641   6.455   1.216   0.542  1.3316 -1.4800  0.0889
 1076TIP3   OH224642   1.739   6.092   1.514  0.2045  0.1377 -0.0555
 1076TIP3    H124643   1.800   6.018   1.520 -2.5074 -2.2373 -0.3616
 1076TIP3    H224644   1.727   6.121   1.604  1.2462  0.1473  0.0777
 1077TIP3   OH224645   5.936   1.357  13.536  0.3424 -0.3473  0.1663
 1077TIP3    H124646   5.987   1.284  13.502 -2.0249 -1.2322 -1.6110
 1077TIP3    H224647   5.930   1.418  13.462  0.6224  0.7432  1.0265
 1078TIP3   OH224648   0.747   5.066  16.871  0.9609  0.4693 -0.2443
 1078TIP3    H124649   0.825   5.113  16.902  0.8391  0.4951  0.0237
 1078TIP3    H224650   0.749   4.982  16.917  0.0046  1.0743  0.9495
 1079TIP3   OH224651   5.914   4.277  15.408  0.8059  0.3605  0.8359
 1079TIP3    H124652   5.892   4.370  15.401 -1.0767 -0.2080 -1.4940
 1079TIP3    H224653   5.994   4.275  15.460  2.9696  3.5543 -2.1744
 1080TIP3   OH224654   0.163   1.866   1.077  0.3280  0.0048 -0.1514
 1080TIP3    H124655   0.131   1.905   0.996 -1.2961  1.6180  1.2318
 1080TIP3    H224656   0.098   1.800   1.100  1.0278 -0.7751 -0.4171
 1081TIP3   OH224657   4.716   5.505   3.476 -0.1119  0.5297  0.0249
 1081TIP3    H124658   4.639   5.520   3.420  1.1314 -1.3910 -2.2559
 1081TIP3    H224659   4.776   5.577   3.453 -0.7485  1.3740  0.9779
 1082TIP3   OH224660   5.282   6.397   2.526  0.0189 -0.5771 -0.0731
 1082TIP3    H124661   5.198   6.432   2.556  0.8949 -0.8284  2.8710
 1082TIP3    H224662   5.272   6.302   2.531  0.5164 -0.6064  0.4316
 1083TIP3   OH224663   1.885   3.542   4.679 -0.0116  0.1823 -0.0602
 1083TIP3    H124664   1.861   3.634   4.693 -0.7796  0.0420 -0.3805
 1083TIP3    H224665   1.842   3.520   4.596 -1.9393 -1.1819  1.2596
 1084TIP3   OH224666   4.167   0.699  12.186  0.4463  0.2563  0.3317
 1084TIP3    H124667   4.129   0.738  12.264 -1.8749  0.7993 -1.0092
 1084TIP3    H224668   4.247   0.748  12.170 -0.4198  1.8864  0.8936
 1085TIP3   OH224669   4.192   4.037   0.276  0.4345 -0.3728  0.5099
 1085TIP3    H124670   4.202   4.132   0.288 -0.2707 -0.3557  0.9303
 1085TIP3    H224671   4.257   3.999   0.335 -0.5725 -0.2001  1.7394
 1086TIP3   OH224672   2.705   2.225   1.764  0.2670  0.0443 -0.1095
 1086TIP3    H124673   2.663   2.230   1.678 -2.5858 -1.9648  1.0645
 1086TIP3    H224674   2.792   2.190   1.746 -0.8207 -1.7999 -2.0985
 1087TIP3   OH224675   1.740   4.417   1.232  0.7500  0.0554  1.1275
 1087TIP3    H124676   1.687   4.350   1.187 -1.1197  2.8035 -0.8976
 1087TIP3    H224677   1.698   4.426   1.318 -0.8000  0.7088  0.3167
 1088TIP3   OH224678   3.339   1.597  15.313 -0.2451  0.3005  0.7790
 1088TIP3    H124679   3.313   1.677  15.267 -1.4453 -1.0599 -0.9714
 1088TIP3    H224680   3.316   1.613  15.404  0.0762  2.1683  0.5437
 1089TIP3   OH224681   1.916   6.031  16.584 -0.3043 -0.4644 -0.1500
 1089TIP3    H124682   1.935   6.057  16.674  0.7200 -0.7758 -0.2655
 1089TIP3    H224683   1.977   6.082  16.531 -1.6766  0.5530 -0.7548
 1090TIP3   OH224684   5.165   3.866  12.019  0.7267 -0.1984 -0.0448
 1090TIP3    H124685   5.231   3.887  12.086  4.4359 -2.5395 -2.7426
 1090TIP3    H224686   5.170   3.771  12.010 -4.1120 -0.6321  0.5599
 1091TIP3   OH224687   0.578   2.560  15.719 -0.1312  0.1282 -0.0656
 1091TIP3    H124688   0.624   2.643  15.732 -0.7365  0.7559 -1.7206
 1091TIP3    H224689   0.515   2.556  15.792 -0.5254  1.4346 -0.3124
 1092TIP3   OH224690   5.688   1.193  16.662  0.0917  0.6036  0.1651
 1092TIP3    H124691   5.737   1.111  16.653  0.6009  1.0463 -1.2922
 1092TIP3    H224692   5.741   1.247  16.721 -0.6804 -0.4359  1.8237
 1093TIP3   OH224693   3.872   4.391   4.676 -0.4595  0.5828  0.7726
 1093TIP3    H124694   3.805   4.455   4.650 -0.2368  0.7431  0.5937
 1093TIP3    H224695   3.883   4.405   4.770  0.6700  1.8211  0.4563
 1094TIP3   OH224696   1.787   2.729   4.441 -0.7158  0.3696  0.0157
 1094TIP3    H124697   1.856   2.759   4.382 -0.6768  0.6183  0.1862
 1094TIP3    H224698   1.747   2.809   4.474 -0.8245  0.2310  0.2228
 1095TIP3   OH224699   0.251   5.284  15.228  0.1463 -0.4547  0.1783
 1095TIP3    H124700   0.329   5.324  15.190  0.8108 -1.9343 -0.0712
 1095TIP3    H224701   0.234   5.335  15.308 -0.2811  1.6205 -1.2140
 1096TIP3   OH224702   1.604   6.224   2.607  0.7118 -0.3514  0.1516
 1096TIP3    H124703   1.656   6.302   2.626  0.2068  0.1198 -0.3901
 1096TIP3    H224704   1.621   6.206   2.514 -0.2124 -0.1010 -0.0699
 1097TIP3   OH224705   1.316   5.578  15.308  1.0977  0.0752 -0.2910
 1097TIP3    H124706   1.245   5.596  15.369  0.8493 -1.0779 -0.2242
 1097TIP3    H224707   1.386   5.639  15.334  0.8598 -0.1541  0.9146
 1098TIP3   OH224708   4.512   0.560   1.689  0.6069 -1.1611 -0.0221
 1098TIP3    H124709   4.582   0.587   1.630  0.1798  2.6157  1.0866
 1098TIP3    H224710   4.543   0.582   1.776 -1.8879  0.5846  0.5000
 1099TIP3   OH224711   5.370   1.766   5.261 -0.1500  0.0942  0.0695
 1099TIP3    H124712   5.357   1.810   5.345 -0.0248 -0.8403  0.5851
 1099TIP3    H224713   5.308   1.693   5.263 -0.1707  0.0910 -0.6655
 1100TIP3   OH224714   2.961   4.154  16.052  0.1050 -0.4453 -0.2646
 1100TIP3    H124715   3.003   4.170  15.967  0.2956  0.0998 -0.0693
 1100TIP3    H224716   2.869   4.175  16.037  0.5102  1.8686  0.2433
 1101TIP3   OH224717   4.663   5.332   0.095 -0.3032 -0.6477  0.0923
 1101TIP3    H124718   4.750   5.298   0.073 -0.1169 -0.4436  0.5113
 1101TIP3    H224719   4.616   5.257   0.130 -1.0949 -1.3448 -2.3512
 1102TIP3   OH224720   4.840   1.982   5.181  0.3053  0.4261 -0.1878
 1102TIP3    H124721   4.931   2.009   5.193  0.1536  1.0230 -0.3519
 1102TIP3    H224722   4.810   2.031   5.105  0.4720 -1.3302 -1.4295
 1103TIP3   OH224723   4.196   0.208  15.930 -0.2834  0.8736 -0.0542
 1103TIP3    H124724   4.119   0.242  15.977 -0.2761  3.1662 -1.6188
 1103TIP3    H224725   4.162   0.138  15.875 -0.5104 -0.9795  2.3637
 1104TIP3   OH224726   4.732   0.510   3.094  0.5541  0.2285 -0.3897
 1104TIP3    H124727   4.782   0.540   3.170 -1.0678  1.0800  0.3674
 1104TIP3    H224728   4.662   0.574   3.084 -1.0793 -1.5523 -0.7291
 1105TIP3   OH224729   1.693   6.659   2.988  0.2600  0.4174 -0.1431
 1105TIP3    H124730   1.771   6.633   3.038  0.2356 -1.3650 -0.9771
 1105TIP3    H224731   1.621   6.649   3.050  0.1245 -2.5773 -0.7213
 1106TIP3   OH224732   1.331   3.650   0.109  0.3148  0.1513 -0.4595
 1106TIP3    H124733   1.240   3.669   0.084 -0.2882 -1.8794  0.0813
 1106TIP3    H224734   1.378   3.645   0.025 -0.9920 -3.1316 -1.0666
 1107TIP3   OH224735   5.218   1.957  12.199 -0.4342 -0.1632  0.0359
 1107TIP3    H124736   5.237   2.004  12.280 -1.4477  1.5409 -0.7026
 1107TIP3    H224737   5.302   1.950  12.155 -0.3009  1.1380  0.0625
 1108TIP3   OH224738   5.207   4.279   0.662 -0.4883 -0.8213 -0.3078
 1108TIP3    H124739   5.128   4.229   0.678  0.7524 -2.4606  0.9339
 1108TIP3    H224740   5.250   4.284   0.748 -0.5373  2.3111 -0.4108
 1109TIP3   OH224741   2.640   5.048  11.647 -0.1386  0.1884 -0.0364
 1109TIP3    H124742   2.725   5.055  11.690  0.0002 -0.8971 -0.1211
 1109TIP3    H224743   2.639   5.118  11.583  0.5712  0.3921  0.1803
 1110TIP3   OH224744   0.577   6.248   0.146  0.2262  0.6587  0.1454
 1110TIP3    H124745   0.632   6.296   0.208  0.6410  0.1209  0.1976
 1110TIP3    H224746   0.585   6.297   0.064  3.5977 -1.3419 -0.8249
 1111TIP3   OH224747   0.141   1.741   6.245  0.3259  1.1283  0.3311
 1111TIP3    H124748   0.081   1.744   6.170 -1.5857 -0.2670  1.7469
 1111TIP3    H224749   0.228   1.744   6.206 -0.6301  0.0048 -1.9889
 1112TIP3   OH224750   4.756   0.344   3.397  0.3161  0.1406  0.5441
 1112TIP3    H124751   4.779   0.393   3.476 -0.7563 -0.9309  1.5395
 1112TIP3    H224752   4.771   0.252   3.421  0.4317 -0.1622 -0.6579
 1113TIP3   OH224753   5.073   3.639   5.184  0.1950  0.7485 -0.3043
 1113TIP3    H124754   5.145   3.654   5.246 -1.2492  1.3201  1.2662
 1113TIP3    H224755   5.027   3.723   5.181 -0.4429  0.3673 -1.2726
 1114TIP3   OH224756   0.632   2.932  14.228  0.3455  0.5042 -0.1344
 1114TIP3    H124757   0.576   2.854  14.229 -1.3555  1.6770 -0.7374
 1114TIP3    H224758   0.626   2.968  14.316  2.5910 -1.0244  0.6746
 1115TIP3   OH224759   5.409   5.999  13.454 -0.1311 -0.2714 -0.7598
 1115TIP3    H124760   5.351   6.004  13.530 -0.0208  1.5607 -0.7956
 1115TIP3    H224761   5.474   6.068  13.467 -0.3098  0.2983 -2.6766
 1116TIP3   OH224762   0.626   6.504   1.389  0.3575  0.6004  0.4037
 1116TIP3    H124763   0.648   6.578   1.332 -0.2776  0.6178  0.1750
 1116TIP3    H224764   0.531   6.498   1.384  0.4241 -0.3722  0.2515
 1117TIP3   OH224765   0.831   4.597   2.191  0.1176  0.0370  0.5794
 1117TIP3    H124766   0.811   4.686   2.162 -0.3464 -0.7569 -1.6835
 1117TIP3    H224767   0.880   4.608   2.273  2.4246  2.4949 -1.0333
 1118TIP3   OH224768   5.974   5.696  16.909  0.0284  0.2134  0.1897
 1118TIP3    H124769   5.998   5.639  16.982 -1.1340  0.6580  0.9393
 1118TIP3    H224770   6.057   5.717  16.866  0.4030 -2.6976 -0.6297
 1119TIP3   OH224771   2.844   1.030   2.336  0.6885 -0.8663 -0.4606
 1119TIP3    H124772   2.813   0.984   2.259 -0.2474  1.6954 -1.6887
 1119TIP3    H224773   2.936   1.051   2.318 -0.3011  2.2674 -2.2253
 1120TIP3   OH224774   0.772   2.056  11.699  0.3836 -0.3461  0.0286
 1120TIP3    H124775   0.704   2.090  11.640  0.8782  2.0503  0.8214
 1120TIP3    H224776   0.853   2.063  11.649  0.6208  0.5121  0.5309
 1121TIP3   OH224777   5.181   3.489   1.471  0.2222 -0.6053  0.8178
 1121TIP3    H124778   5.214   3.406   1.437  2.7720  1.7136 -2.7454
 1121TIP3    H224779   5.253   3.523   1.524  0.0336  0.2466  0.5331
 1122TIP3   OH224780   0.565   5.370  12.459 -0.0808 -0.4841 -0.2146
 1122TIP3    H124781   0.642   5.371  12.403 -0.0492  0.2397 -0.1661
 1122TIP3    H224782   0.569   5.452  12.508 -0.4700 -0.7956  0.3525
 1123TIP3   OH224783   2.059   5.591  14.882  0.0447  0.1043 -0.4136
 1123TIP3    H124784   2.022   5.632  14.961  1.9545  2.9564 -0.9173
 1123TIP3    H224785   2.138   5.547  14.913 -0.2171 -0.3861 -0.4364
 1124TIP3   OH224786   2.965   1.949  12.184 -0.3635  0.5096 -0.0693
 1124TIP3    H124787   2.949   1.909  12.270  0.4573 -0.0973 -0.1957
 1124TIP3    H224788   3.059   1.964  12.182 -0.1440 -0.9148 -1.4941
 1125TIP3   OH224789   4.604   5.953  17.213  0.3608  0.4445 -0.1237
 1125TIP3    H124790   4.613   6.035  17.263  0.4818 -0.1705  0.8741
 1125TIP3    H224791   4.515   5.923  17.230  0.8453 -0.4829  0.8475
 1126TIP3   OH224792   1.773   4.665   6.439 -0.1017 -0.0219  0.3642
 1126TIP3    H124793   1.684   4.680   6.408 -0.2564 -0.9052  0.3605
 1126TIP3    H224794   1.795   4.577   6.407  1.0873  0.5211 -0.3734
 1127TIP3   OH224795   3.792   3.773  10.901  0.4094 -0.4374  0.4700
 1127TIP3    H124796   3.828   3.726  10.826  0.4019  2.0438 -1.1280
 1127TIP3    H224797   3.720   3.825  10.865  0.7409  1.1868  2.0894
 1128TIP3   OH224798   3.015   2.709   0.795  0.1089  0.7274  0.5175
 1128TIP3    H124799   3.007   2.622   0.756 -0.4868  0.2340  1.7067
 1128TIP3    H224800   3.104   2.737   0.773  1.0530 -1.0798  1.9203
 1129TIP3   OH224801   3.570   0.056  16.584  0.4360 -0.5347 -0.4102
 1129TIP3    H124802   3.616   0.132  16.548 -0.6899 -0.4071 -1.6011
 1129TIP3    H224803   3.550   0.081  16.674  3.1410 -0.7987  0.3163
 1130TIP3   OH224804   0.102   4.672  13.187  0.2703 -0.4116  0.3230
 1130TIP3    H124805   0.006   4.673  13.192  0.2618  1.5948 -0.0423
 1130TIP3    H224806   0.131   4.698  13.274  0.4700  0.1898  0.0798
 1131TIP3   OH224807   3.673   5.238   1.585 -0.4151 -0.6845 -0.1175
 1131TIP3    H124808   3.756   5.194   1.565  0.7197  1.5268 -0.4976
 1131TIP3    H224809   3.667   5.308   1.521 -0.6362  1.6182  2.3076
 1132TIP3   OH224810   4.875   0.219  10.860 -0.1139  0.3135  0.0614
 1132TIP3    H124811   4.869   0.192  10.952  0.4524 -2.4351 -0.6468
 1132TIP3    H224812   4.928   0.298  10.861  1.1705 -0.5449  1.9673
 1133TIP3   OH224813   4.477   1.866   5.785 -0.1794 -0.0237 -0.1556
 1133TIP3    H124814   4.525   1.802   5.838 -0.6567  0.1989  0.5607
 1133TIP3    H224815   4.544   1.928   5.757  0.3434 -1.0100 -1.1330
 1134TIP3   OH224816   2.446   3.714  15.998 -0.1595  0.0146  0.3856
 1134TIP3    H124817   2.380   3.648  15.977 -1.9155  2.2759 -1.4079
 1134TIP3    H224818   2.507   3.711  15.924  0.7385 -0.7457  1.1311
 1135TIP3   OH224819   1.739   2.361  16.594 -0.0463  0.3044  0.1419
 1135TIP3    H124820   1.741   2.450  16.630 -0.0088 -0.0432  1.0077
 1135TIP3    H224821   1.748   2.304  16.670 -2.4437 -0.5131 -0.1424
 1136TIP3   OH224822   2.519   0.713  11.463 -0.1877 -0.0063 -0.9435
 1136TIP3    H124823   2.576   0.747  11.395 -2.3712  1.1605 -2.2633
 1136TIP3    H224824   2.431   0.740  11.436 -1.3708 -1.7966  0.9849
 1137TIP3   OH224825   2.626   2.293  11.141 -0.6168 -0.6114  0.5356
 1137TIP3    H124826   2.566   2.297  11.066  1.3120 -0.2882 -1.0323
 1137TIP3    H224827   2.574   2.323  11.215 -2.0133  0.9620 -1.0442
 1138TIP3   OH224828   2.165   3.963  12.704 -0.4726 -0.2247  0.3627
 1138TIP3    H124829   2.188   4.052  12.678 -1.0288 -0.5312 -1.2411
 1138TIP3    H224830   2.227   3.942  12.775  2.4229 -0.0181 -1.9962
 1139TIP3   OH224831   0.692   3.293   0.671 -0.3022  0.3911  0.2159
 1139TIP3    H124832   0.647   3.208   0.667  1.6885 -0.7837  1.7671
 1139TIP3    H224833   0.725   3.307   0.583 -0.1753 -0.7104  0.0821
 1140TIP3   OH224834   3.043   5.372  17.146 -0.2294 -0.6890 -0.6702
 1140TIP3    H124835   2.969   5.338  17.096  0.0310  1.4981 -2.6152
 1140TIP3    H224836   3.118   5.321  17.115 -0.4402 -0.9222 -0.8036
 1141TIP3   OH224837   2.888   4.367   0.333 -0.0420  0.7143 -0.3308
 1141TIP3    H124838   2.927   4.336   0.415 -1.2969  1.0052  0.3875
 1141TIP3    H224839   2.869   4.287   0.284  2.8286  0.5986 -1.3722
 1142TIP3   OH224840   6.418   1.279  10.379  0.2575  0.1207 -0.2890
 1142TIP3    H124841   6.395   1.188  10.360 -3.1059  0.5606  1.3404
 1142TIP3    H224842   6.496   1.272  10.434  0.5042 -1.7224 -0.8177
 1143TIP3   OH224843   2.190   3.812  14.726  0.0109 -0.2361 -0.2831
 1143TIP3    H124844   2.159   3.763  14.803 -1.5730  0.3528 -0.5287
 1143TIP3    H224845   2.233   3.889  14.762  1.6630 -1.2962  0.0785
 1144TIP3   OH224846   2.134   1.034   3.182 -0.6355  0.1776 -0.0131
 1144TIP3    H124847   2.077   0.958   3.181 -2.6637  1.6420  0.8551
 1144TIP3    H224848   2.089   1.097   3.238  0.7809  2.1854 -1.0698
 1145TIP3   OH224849   6.312   3.394   1.704 -0.3440 -0.1127 -0.7376
 1145TIP3    H124850   6.230   3.347   1.720 -0.0697 -0.3727 -0.0893
 1145TIP3    H224851   6.361   3.338   1.645 -0.0319 -0.6302  0.0064
 1146TIP3   OH224852   5.717   2.922   3.367 -0.5281 -0.6849 -0.4749
 1146TIP3    H124853   5.769   2.910   3.446 -0.4195  1.3465 -0.2091
 1146TIP3    H224854   5.772   2.887   3.297 -0.3917 -1.9776  0.2542
 1147TIP3   OH224855   2.191   5.956   2.087 -0.1004  0.3135 -0.5187
 1147TIP3    H124856   2.244   5.882   2.117  0.2896  0.3140 -1.1967
 1147TIP3    H224857   2.252   6.011   2.038 -0.5637  0.6833 -0.6819
 1148TIP3   OH224858   4.348   1.301   4.716  0.0533  0.5496 -0.1318
 1148TIP3    H124859   4.281   1.270   4.654  2.1189 -1.9748 -1.1885
 1148TIP3    H224860   4.395   1.369   4.669 -0.1101  0.5062 -0.3587
 1149TIP3   OH224861   1.335   0.138   4.116  0.0790  0.4620 -0.0794
 1149TIP3    H124862   1.339   0.159   4.210 -2.1200  1.0661 -0.0958
 1149TIP3    H224863   1.367   0.048   4.111 -1.6548 -0.2854  1.5346
 1150TIP3   OH224864   5.799   1.426   1.224  0.0465 -0.1404  0.0251
 1150TIP3    H124865   5.764   1.444   1.311 -1.5565  1.4216 -0.9071
 1150TIP3    H224866   5.894   1.434   1.234 -0.1783  0.9170  1.4333
 1151TIP3   OH224867   3.808   5.784  15.619  0.3308 -0.0631 -0.2786
 1151TIP3    H124868   3.862   5.842  15.673  0.4103 -0.2991 -0.1019
 1151TIP3    H224869   3.828   5.696  15.652 -0.6777 -0.0970  0.2339
 1152TIP3   OH224870   4.216   4.113   3.709 -0.0377 -0.0230  0.4300
 1152TIP3    H124871   4.296   4.164   3.700 -0.1140 -0.0638 -0.4760
 1152TIP3    H224872   4.192   4.123   3.802  0.5474  0.6758  0.5116
 1153TIP3   OH224873   1.584   4.513   5.896  0.1212  0.3904 -0.1783
 1153TIP3    H124874   1.551   4.600   5.876  0.9396  0.9103  0.6833
 1153TIP3    H224875   1.506   4.458   5.901 -0.4173  1.1245 -0.4522
 1154TIP3   OH224876   1.892   5.926   1.156 -0.2463 -0.0412  0.1508
 1154TIP3    H124877   1.886   5.871   1.078 -1.4995  0.0083  0.2088
 1154TIP3    H224878   1.888   5.863   1.229 -1.0107  0.0719  0.2064
 1155TIP3   OH224879   2.490   1.178  12.379  0.1351  0.1904  0.2820
 1155TIP3    H124880   2.484   1.221  12.465 -2.8876 -0.4497  0.4659
 1155TIP3    H224881   2.526   1.245  12.322 -0.9145  1.7364  1.3826
 1156TIP3   OH224882   2.773   3.063  13.667  0.1497 -0.3344  0.0147
 1156TIP3    H124883   2.770   3.144  13.718 -2.3018 -0.0687 -0.4728
 1156TIP3    H224884   2.740   3.088  13.581  1.4908 -1.4081 -0.8293
 1157TIP3   OH224885   2.901   6.311  15.687 -0.3438  0.0599  0.3565
 1157TIP3    H124886   2.972   6.312  15.750  1.5966 -1.6150 -1.6876
 1157TIP3    H224887   2.926   6.375  15.621 -0.7653 -0.4531 -0.3152
 1158TIP3   OH224888   1.132   5.885   2.568 -0.1036  0.0346 -0.2608
 1158TIP3    H124889   1.091   5.952   2.623 -0.7542 -0.7523  0.2284
 1158TIP3    H224890   1.226   5.898   2.581 -0.2436  0.0037  0.8618
 1159TIP3   OH224891   3.097   0.158  13.450  0.2056  0.0724 -0.1958
 1159TIP3    H124892   3.161   0.181  13.517 -0.5117  0.7831  0.2578
 1159TIP3    H224893   3.053   0.080  13.484  1.2242 -0.7709 -0.7807
 1160TIP3   OH224894   3.381   5.398   0.505  0.2467  0.2694 -0.1887
 1160TIP3    H124895   3.454   5.340   0.529  0.4854  0.1331 -1.2127
 1160TIP3    H224896   3.316   5.383   0.573  0.3257 -1.1934 -0.4147
 1161TIP3   OH224897   1.800   1.207  14.850  0.2575 -0.1011 -0.1523
 1161TIP3    H124898   1.804   1.150  14.928 -1.4777 -1.6319 -1.1516
 1161TIP3    H224899   1.735   1.274  14.873 -2.0489 -1.9209 -1.0974
 1162TIP3   OH224900   5.062   0.289   3.583  0.2080 -0.1167  0.3470
 1162TIP3    H124901   5.110   0.253   3.657  0.6309 -0.7321 -0.2147
 1162TIP3    H224902   4.976   0.312   3.619 -0.1107 -1.7839  0.7142
 1163TIP3   OH224903   1.575   1.041   6.392  0.0259 -0.3540 -0.3217
 1163TIP3    H124904   1.525   1.087   6.459  1.3145  0.1373  0.3116
 1163TIP3    H224905   1.581   0.951   6.423  0.9305 -0.0454  0.4019
 1164TIP3   OH224906   3.711   1.104  11.842  0.0690  0.9708  0.1663
 1164TIP3    H124907   3.624   1.092  11.882 -0.4874  0.0456 -1.2986
 1164TIP3    H224908   3.747   1.180  11.887 -1.4701  1.3168  0.8616
 1165TIP3   OH224909   3.992   0.453   3.885 -0.1176 -0.0116  0.4221
 1165TIP3    H124910   3.952   0.515   3.946  0.0892  1.0817 -0.5166
 1165TIP3    H224911   3.925   0.387   3.870 -0.7336  0.5506  0.6410
 1166TIP3   OH224912   4.550   2.937  11.265 -0.5475  0.5744  0.5253
 1166TIP3    H124913   4.613   2.964  11.198  0.7384  1.4565  2.0653
 1166TIP3    H224914   4.603   2.922  11.343 -2.0856 -0.0264  1.4707
 1167TIP3   OH224915   1.408   0.490  14.229  0.1076  0.3630 -0.1983
 1167TIP3    H124916   1.470   0.466  14.161  0.0091  0.0593 -0.1834
 1167TIP3    H224917   1.434   0.578  14.256  3.0443 -1.2268  2.6082
 1168TIP3   OH224918   5.008   4.035  15.811  0.1564  0.1801 -0.1956
 1168TIP3    H124919   5.094   4.036  15.854  0.3651  0.8176 -0.6100
 1168TIP3    H224920   4.946   4.056  15.881  0.3762  0.0310  0.0443
 1169TIP3   OH224921   1.284   0.929   6.568  0.1259  0.8164  0.0753
 1169TIP3    H124922   1.272   0.908   6.476  0.6770  1.5605 -0.1764
 1169TIP3    H224923   1.372   0.897   6.589 -1.0049 -1.7633  1.0654
 1170TIP3   OH224924   3.896   4.976  10.880  0.1044 -0.1234  0.6657
 1170TIP3    H124925   3.889   5.069  10.901 -0.2650  0.3461 -1.3720
 1170TIP3    H224926   3.813   4.939  10.908 -0.8371  0.7019 -0.9248
 1171TIP3   OH224927   3.621   6.107   1.624 -0.1156 -0.0446 -0.0356
 1171TIP3    H124928   3.625   6.147   1.711  1.5145 -0.6643  0.1964
 1171TIP3    H224929   3.642   6.178   1.564  0.3758  0.0128  0.2018
 1172TIP3   OH224930   2.906   1.432   2.187  0.1426 -0.3657 -0.4551
 1172TIP3    H124931   2.817   1.408   2.213 -1.1391  2.3339 -2.1164
 1172TIP3    H224932   2.921   1.383   2.106 -0.5370  0.5439 -1.1396
 1173TIP3   OH224933   1.055   1.877   2.902 -0.5619  0.3986  0.2191
 1173TIP3    H124934   0.991   1.806   2.904  0.2938 -0.3760  0.0691
 1173TIP3    H224935   1.035   1.925   2.821 -0.2871 -0.4567 -0.3580
 1174TIP3   OH224936   2.458   2.748   2.306  0.3764  0.2902  0.1757
 1174TIP3    H124937   2.481   2.746   2.399 -1.6617  3.7377  0.8548
 1174TIP3    H224938   2.441   2.840   2.288 -0.7001 -0.5190 -3.2889
 1175TIP3   OH224939   4.188   3.406  11.198 -0.9121  0.2392  0.0094
 1175TIP3    H124940   4.132   3.335  11.227 -1.4258  0.7663  0.3101
 1175TIP3    H224941   4.248   3.366  11.135 -1.5638 -0.3363 -0.2400
 1176TIP3   OH224942   6.575   6.222  16.901  0.4166  0.3647 -0.5229
 1176TIP3    H124943   6.633   6.241  16.827  0.3891 -0.4206 -0.7455
 1176TIP3    H224944   6.605   6.137  16.934 -0.5720 -0.0103 -0.5966
 1177TIP3   OH224945   2.948   4.686  16.617 -0.1378 -0.1237 -0.1841
 1177TIP3    H124946   2.995   4.623  16.563 -1.3680 -4.4876  3.5411
 1177TIP3    H224947   3.012   4.715  16.682 -0.9179 -1.4998  1.2275
 1178TIP3   OH224948   5.454   4.583   6.414  0.5475  0.8917 -0.1006
 1178TIP3    H124949   5.537   4.535   6.412 -0.4648 -0.8791 -0.6130
 1178TIP3    H224950   5.480   4.675   6.426  2.5677  0.3589 -0.1768
 1179TIP3   OH224951   3.433   3.812  17.004 -0.6202  0.1462 -0.4738
 1179TIP3    H124952   3.527   3.819  16.988 -0.3736 -0.5932  0.5743
 1179TIP3    H224953   3.396   3.892  16.966  0.0957 -0.7564 -3.1729
 1180TIP3   OH224954   0.829   0.098   3.906  0.1428 -0.5597 -0.0750
 1180TIP3    H124955   0.895   0.125   3.842  0.1038 -0.5292 -0.1026
 1180TIP3    H224956   0.754   0.071   3.853  0.0440 -0.3598 -0.0368
 1181TIP3   OH224957   1.320   2.022  13.791 -0.8100 -0.6779  0.5763
 1181TIP3    H124958   1.367   1.942  13.768 -0.0504 -0.5352  1.6510
 1181TIP3    H224959   1.353   2.046  13.877 -0.7790  0.9982  0.1047
 1182TIP3   OH224960   6.525   6.221   1.666 -0.2928 -0.2607  0.6032
 1182TIP3    H124961   6.585   6.279   1.618  0.5548 -0.6526  1.1872
 1182TIP3    H224962   6.577   6.185   1.737 -1.3445 -0.2662  1.3919
 1183TIP3   OH224963   0.569   2.633   4.263  0.3277 -0.2754  0.3273
 1183TIP3    H124964   0.558   2.728   4.253  1.1234 -0.3442 -1.4879
 1183TIP3    H224965   0.657   2.623   4.300  0.8546 -0.3399 -0.9065
 1184TIP3   OH224966   2.867   5.921   6.267 -0.2406  0.2114 -0.1535
 1184TIP3    H124967   2.891   5.829   6.269 -1.1961 -0.0440  0.1060
 1184TIP3    H224968   2.929   5.964   6.326  1.2550 -0.0007 -1.5495
 1185TIP3   OH224969   1.784   2.608   5.148  0.0545  0.2715 -0.5128
 1185TIP3    H124970   1.761   2.516   5.159 -1.7796  1.0294  2.9300
 1185TIP3    H224971   1.754   2.631   5.060 -0.6863 -2.0757 -0.8917
 1186TIP3   OH224972   4.193   6.779  11.453  0.0380 -0.2739  0.1608
 1186TIP3    H124973   4.274   6.829  11.457 -0.3383  0.4684 -1.1379
 1186TIP3    H224974   4.138   6.828  11.392 -0.3560 -2.2766 -1.1078
 1187TIP3   OH224975   2.695   4.013   2.613 -0.0848 -0.3049 -0.0643
 1187TIP3    H124976   2.683   4.044   2.703  0.5338 -1.2808  0.3659
 1187TIP3    H224977   2.787   4.032   2.594  0.5386 -2.5820  0.5059
 1188TIP3   OH224978   5.551   1.409   4.171  0.0726  0.0552  0.1018
 1188TIP3    H124979   5.468   1.457   4.165  0.9645  1.5689 -0.3759
 1188TIP3    H224980   5.575   1.415   4.263 -0.2502 -0.2274  0.2071
 1189TIP3   OH224981   0.702   0.194  17.238  0.2318  0.0934  0.4308
 1189TIP3    H124982   0.791   0.226  17.254 -0.0953  0.6375  1.1931
 1189TIP3    H224983   0.712   0.129  17.168  0.7830  2.6543 -1.9494
 1190TIP3   OH224984   2.051   0.842   5.164  0.1100  0.3027  0.4343
 1190TIP3    H124985   1.975   0.899   5.176 -1.8421 -1.6338 -2.3699
 1190TIP3    H224986   2.105   0.888   5.100  0.0397  0.4080  0.4492
 1191TIP3   OH224987   1.535   0.913   1.091  0.1777  0.0065  0.0570
 1191TIP3    H124988   1.599   0.927   1.160  0.1505  0.0548  0.0723
 1191TIP3    H224989   1.478   0.844   1.125 -0.4235  0.7112  0.4918
 1192TIP3   OH224990   6.232   5.297   3.886  0.1778 -0.0698  0.3413
 1192TIP3    H124991   6.268   5.228   3.829 -1.1724 -0.8126  0.3733
 1192TIP3    H224992   6.196   5.249   3.961 -0.8735  0.6597  0.3086
 1193TIP3   OH224993   5.994   1.337   4.394 -0.1556 -0.1822  0.9471
 1193TIP3    H124994   5.938   1.364   4.321  1.6662  0.3077 -0.3045
 1193TIP3    H224995   5.932   1.306   4.461 -1.9025  0.1038 -0.4769
 1194TIP3   OH224996   3.024   4.992   4.792  0.6086 -0.4235  0.1549
 1194TIP3    H124997   3.071   5.001   4.875  1.1467 -0.6620 -0.1208
 1194TIP3    H224998   3.009   5.082   4.763 -1.3862 -0.2990  1.5138
 1195TIP3   OH224999   5.531   1.475  13.890  0.1602  0.1076  0.1832
 1195TIP3    H125000   5.551   1.399  13.945 -0.0712 -0.5816 -0.6848
 1195TIP3    H225001   5.595   1.469  13.819 -0.3613  0.3021 -0.2951
 1196TIP3   OH225002   6.672   1.069  11.734 -0.0710  0.1992 -0.6145
 1196TIP3    H125003   6.636   1.140  11.786  1.0298  0.2658  0.0856
 1196TIP3    H225004   6.610   0.997  11.744 -1.0330  0.9564 -1.0823
 1197TIP3   OH225005   3.004   1.725  16.272 -0.3814  0.0649 -0.2988
 1197TIP3    H125006   2.915   1.692  16.281 -0.1531 -0.7329 -0.9688
 1197TIP3    H225007   3.055   1.673  16.334 -0.2068 -0.1159 -0.5994
 1198TIP3   OH225008   5.523   0.766   0.344 -0.1358 -0.2776  0.3203
 1198TIP3    H125009   5.617   0.750   0.346 -0.2255 -0.7476  1.0182
 1198TIP3    H225010   5.497   0.748   0.254  1.0586  3.5010 -0.8579
 1199TIP3   OH225011   2.500   4.747   0.529 -0.2638  0.5503 -0.4042
 1199TIP3    H125012   2.574   4.725   0.585 -1.3241 -0.6923  0.5516
 1199TIP3    H225013   2.478   4.665   0.484 -0.2638  1.2165 -1.6614
 1200TIP3   OH225014   2.218   6.585   1.955  0.3725 -0.0783 -0.0434
 1200TIP3    H125015   2.295   6.586   2.012  0.7378 -1.5288 -0.4928
 1200TIP3    H225016   2.206   6.493   1.933 -1.2480  0.1841 -0.3178
 1201TIP3   OH225017   1.900   4.329  11.509 -0.5651  0.5931  0.5863
 1201TIP3    H125018   1.898   4.347  11.416  0.0753 -0.2244  0.4054
 1201TIP3    H225019   1.810   4.344  11.539 -0.4643  2.1711  0.0990
 1202TIP3   OH225020   3.821   4.450  13.768  0.2864  0.7109 -0.2915
 1202TIP3    H125021   3.741   4.434  13.818 -1.8283 -1.8553 -4.1863
 1202TIP3    H225022   3.811   4.538  13.733 -0.0633  1.0075  0.5467
 1203TIP3   OH225023   3.467   5.874  12.825 -0.1939 -0.7834 -0.1942
 1203TIP3    H125024   3.519   5.951  12.802 -0.7270  0.1388  1.6150
 1203TIP3    H225025   3.452   5.882  12.919 -0.1432 -3.1744  0.0544
 1204TIP3   OH225026   3.071   4.010  13.223 -0.1955  0.0438  0.4847
 1204TIP3    H125027   3.082   3.926  13.179  1.1492  0.7724 -0.6311
 1204TIP3    H225028   3.063   3.989  13.316  0.3480 -1.2929  0.2295
 1205TIP3   OH225029   3.048   2.274   2.314 -0.2002  0.0610  0.3001
 1205TIP3    H125030   3.125   2.220   2.298  0.2783  1.3635 -2.0632
 1205TIP3    H225031   2.978   2.232   2.263  0.4817  2.2786 -2.6264
 1206TIP3   OH225032   4.593   2.585   1.915  0.1581  0.6504 -0.2651
 1206TIP3    H125033   4.501   2.559   1.926  0.2682 -0.4325 -1.6217
 1206TIP3    H225034   4.590   2.659   1.855  0.2761 -0.9091 -2.2871
 1207TIP3   OH225035   5.818   3.848   0.617  0.6480 -0.1964  0.0009
 1207TIP3    H125036   5.818   3.806   0.703  0.5044  0.4444  0.3153
 1207TIP3    H225037   5.899   3.819   0.576  0.7184 -0.5041  0.3532
 1208TIP3   OH225038   3.689   0.976  13.369 -0.0195 -0.2088 -0.4906
 1208TIP3    H125039   3.695   0.881  13.377 -0.3368 -0.1440  0.5846
 1208TIP3    H225040   3.596   0.995  13.375  0.1925  0.3285  1.3278
 1209TIP3   OH225041   1.318   4.497   5.800  0.1313  0.4085 -0.7672
 1209TIP3    H125042   1.321   4.415   5.850 -0.9463  1.3979  0.9916
 1209TIP3    H225043   1.355   4.474   5.715  2.8128 -1.1682  0.7248
 1210TIP3   OH225044   5.275   1.956   4.746  0.0538  0.0825 -0.1864
 1210TIP3    H125045   5.267   1.900   4.824  3.2592 -0.4509 -0.1411
 1210TIP3    H225046   5.248   2.043   4.776  0.3433 -0.3028  1.2740
 1211TIP3   OH225047   4.680   1.984   2.598 -0.0601 -0.1846  0.2140
 1211TIP3    H125048   4.715   1.995   2.510 -0.4453  0.2260  0.1087
 1211TIP3    H225049   4.585   1.989   2.587 -0.0810  0.8568  0.7834
 1212TIP3   OH225050   3.839   5.674  13.211  0.5857 -0.3360  0.0966
 1212TIP3    H125051   3.909   5.737  13.225 -0.0713  0.8790 -1.8653
 1212TIP3    H225052   3.770   5.701  13.272  0.5329  0.5284 -0.3293
 1213TIP3   OH225053   0.087   0.115  16.555 -0.3685 -0.0023 -0.0565
 1213TIP3    H125054   0.047   0.201  16.545 -1.1861 -0.5477 -1.5474
 1213TIP3    H225055   0.021   0.063  16.602 -0.5153 -0.2581 -0.5415
 1214TIP3   OH225056   1.078   5.683  14.320  0.2652 -0.1306 -0.7447
 1214TIP3    H125057   1.131   5.762  14.311 -0.1576  0.2442 -0.0364
 1214TIP3    H225058   1.142   5.613  14.332  0.6174  0.4077  0.7760
 1215TIP3   OH225059   0.530   2.821   4.566  0.4085  0.1906  0.2787
 1215TIP3    H125060   0.523   2.823   4.471  1.4669 -2.1413  0.1381
 1215TIP3    H225061   0.612   2.867   4.585 -1.2548  3.3270  0.3064
 1216TIP3   OH225062   4.544   3.716   3.283 -0.1021 -0.2256  0.0668
 1216TIP3    H125063   4.594   3.641   3.316 -0.0670 -0.3016 -0.1577
 1216TIP3    H225064   4.453   3.688   3.288 -0.1422 -0.0157  0.6602
 1217TIP3   OH225065   4.188   2.894  15.793  0.2409 -0.2108  0.5812
 1217TIP3    H125066   4.198   2.989  15.783 -2.0908  0.0791  0.8535
 1217TIP3    H225067   4.191   2.879  15.887  0.1073 -0.3580  0.5617
 1218TIP3   OH225068   5.240   3.501   1.171 -0.3586  0.2498 -0.0077
 1218TIP3    H125069   5.320   3.547   1.145 -0.8673  0.8358 -0.5411
 1218TIP3    H225070   5.242   3.503   1.267  1.0309 -1.0723  0.0271
 1219TIP3   OH225071   6.101   0.354  11.303  0.6275 -0.2745  0.5205
 1219TIP3    H125072   6.007   0.347  11.286  0.8721  0.4678 -1.2531
 1219TIP3    H225073   6.114   0.308  11.386 -1.2943 -0.3989  0.7717
 1220TIP3   OH225074   5.911   5.262   4.113  0.1585 -0.2350  0.1087
 1220TIP3    H125075   5.948   5.350   4.119 -0.0421  0.0111 -1.9629
 1220TIP3    H225076   5.826   5.274   4.071  0.3378 -1.4526 -0.6247
 1221TIP3   OH225077   0.049   6.176  13.251 -0.1284 -0.1884  0.2148
 1221TIP3    H125078   0.015   6.157  13.164  0.9606  0.3196 -0.3257
 1221TIP3    H225079   0.014   6.106  13.306 -0.3581 -0.8279 -0.7381
 1222TIP3   OH225080   6.186   4.980  16.415  0.2482  0.2722 -0.7375
 1222TIP3    H125081   6.150   4.906  16.365  0.0026  0.6806 -1.1731
 1222TIP3    H225082   6.215   5.042  16.349  0.1453  0.7137 -0.3754
 1223TIP3   OH225083   3.784   0.032   3.606  0.3723 -0.1779  0.6278
 1223TIP3    H125084   3.762  -0.041   3.549  1.6736 -0.0411 -0.0913
 1223TIP3    H225085   3.842   0.087   3.552 -2.9604  2.9599  0.0610
 1224TIP3   OH225086   0.213   3.848   1.559 -0.0752 -0.0173 -0.4423
 1224TIP3    H125087   0.223   3.932   1.514  0.1287 -0.6253 -1.5690
 1224TIP3    H225088   0.171   3.869   1.642 -0.2360  1.1675 -0.8211
 1225TIP3   OH225089   5.002   0.650  16.835 -0.3434  0.3570  0.7260
 1225TIP3    H125090   4.983   0.612  16.749  0.7802  2.0520 -0.3052
 1225TIP3    H225091   5.081   0.605  16.864 -0.1422  0.4981  0.4054
 1226TIP3   OH225092   6.752   3.836   6.512  0.5563  0.2066  0.9543
 1226TIP3    H125093   6.803   3.857   6.590  0.2767  0.4861  1.0577
 1226TIP3    H225094   6.736   3.920   6.470 -0.1786  0.1621  1.1395
 1227TIP3   OH225095   0.084   3.459  11.061 -0.1803  0.3686 -0.2924
 1227TIP3    H125096  -0.008   3.450  11.036  0.1971 -0.2850 -1.5112
 1227TIP3    H225097   0.108   3.372  11.094 -0.3864  0.9392  1.4160
 1228TIP3   OH225098   6.435   3.310  14.234  0.2319  0.4081 -0.1539
 1228TIP3    H125099   6.399   3.322  14.146  0.8795  0.2840 -0.4367
 1228TIP3    H225100   6.519   3.268  14.220  1.2128  2.1327  0.4064
 1229TIP3   OH225101   2.985   2.736   5.537  0.0016 -0.2317  0.3184
 1229TIP3    H125102   3.032   2.797   5.480 -0.6276 -1.3700 -1.4406
 1229TIP3    H225103   2.990   2.777   5.624 -0.1080  2.1613 -0.7498
 1230TIP3   OH225104   1.785   3.150  13.445  0.5634  0.1319  0.0426
 1230TIP3    H125105   1.783   3.056  13.429  2.2682 -0.0490  0.8305
 1230TIP3    H225106   1.739   3.161  13.528  0.1580  0.0250 -0.1663
 1231TIP3   OH225107   5.547   6.730   2.596 -0.1228  0.3747 -0.5823
 1231TIP3    H125108   5.537   6.683   2.513  0.7370 -1.9565  0.6012
 1231TIP3    H225109   5.626   6.783   2.584 -0.5776  0.8473 -1.5958
 1232TIP3   OH225110   5.488   3.545   0.923  0.0857  0.3101 -0.4742
 1232TIP3    H125111   5.518   3.461   0.957 -0.9915  0.4414  0.8364
 1232TIP3    H225112   5.569   3.595   0.910  0.5989 -0.1711  0.7841
 1233TIP3   OH225113   3.677   6.194   5.874  0.0306  0.3111  0.0743
 1233TIP3    H125114   3.750   6.193   5.936  0.5001  1.6503 -0.4387
 1233TIP3    H225115   3.602   6.165   5.925  0.6705  0.1226  0.9265
 1234TIP3   OH225116   3.561   2.274   6.024 -0.6178  0.5006 -0.2115
 1234TIP3    H125117   3.543   2.323   6.103  0.0677 -1.3498  1.1318
 1234TIP3    H225118   3.651   2.241   6.035 -0.7221 -0.2736 -1.4659
 1235TIP3   OH225119   0.002   3.705   4.721  0.1103  0.1270  0.2018
 1235TIP3    H125120   0.068   3.774   4.730  1.1332 -0.5907 -1.3332
 1235TIP3    H225121   0.041   3.644   4.657  0.1691 -2.9340  2.9895
 1236TIP3   OH225122   1.955   2.692  15.530 -0.1474  0.1522  0.2231
 1236TIP3    H125123   1.947   2.684  15.435 -3.0684 -0.3419  0.4712
 1236TIP3    H225124   2.046   2.716  15.544  0.6055 -0.8019 -2.6422
 1237TIP3   OH225125   3.082   0.826  12.701 -0.1723  0.3832 -0.7793
 1237TIP3    H125126   3.076   0.731  12.710 -0.0651  0.4267 -0.2576
 1237TIP3    H225127   3.001   0.851  12.657 -0.2797  0.0690 -0.7609
 1238TIP3   OH225128   1.121   6.235  16.865 -0.8047 -0.3679  0.0570
 1238TIP3    H125129   1.088   6.317  16.902  0.2452 -0.1783  0.5976
 1238TIP3    H225130   1.075   6.166  16.913 -0.5611 -0.1042  0.6688
 1239TIP3   OH225131   1.104   4.500  10.918 -0.2126 -0.2793  0.1583
 1239TIP3    H125132   1.145   4.427  10.872  1.0724 -0.3361  1.3819
 1239TIP3    H225133   1.139   4.579  10.876  1.1181 -0.3284  1.1347
 1240TIP3   OH225134   0.361   2.213  11.624  0.4506  1.0222  0.3118
 1240TIP3    H125135   0.437   2.244  11.574 -2.0319  0.0188 -4.3715
 1240TIP3    H225136   0.305   2.290  11.631 -0.1343  0.6578 -0.3135
 1241TIP3   OH225137   1.951   1.855  12.710 -0.7649  0.6706  0.1505
 1241TIP3    H125138   2.022   1.850  12.646 -0.7597  1.8910  0.0535
 1241TIP3    H225139   1.902   1.773  12.698  1.5862 -0.9962  1.3730
 1242TIP3   OH225140   3.534   0.646   3.764  0.0002 -0.1229 -0.1519
 1242TIP3    H125141   3.587   0.575   3.728  0.7124  0.6630 -0.6607
 1242TIP3    H225142   3.509   0.699   3.688 -1.7651 -0.6472  0.0454
 1243TIP3   OH225143   3.641   0.410   6.526  0.1940  0.0647 -0.4359
 1243TIP3    H125144   3.546   0.414   6.540  0.4008  0.9634  0.8564
 1243TIP3    H225145   3.668   0.501   6.519  0.8334 -0.2246 -1.8446
 1244TIP3   OH225146   4.613   5.837   2.104 -0.1649  0.1479  0.6169
 1244TIP3    H125147   4.526   5.861   2.134  0.7542  1.6757  2.1902
 1244TIP3    H225148   4.658   5.806   2.183  0.8695 -0.1599 -0.0777
 1245TIP3   OH225149   1.735   5.268  13.136 -0.3925  0.2492  0.5351
 1245TIP3    H125150   1.820   5.240  13.101 -0.5821 -0.8867  0.9436
 1245TIP3    H225151   1.702   5.190  13.181 -1.5453  0.7626  0.5757
 1246TIP3   OH225152   6.205   5.449   3.652 -0.4379  0.1461  0.3397
 1246TIP3    H125153   6.168   5.378   3.601 -1.5994  0.4905  0.6941
 1246TIP3    H225154   6.192   5.422   3.743 -0.2464  0.4908  0.4693
 1247TIP3   OH225155   5.109   2.458  11.807  0.3518  0.0870 -0.6322
 1247TIP3    H125156   5.060   2.482  11.885  2.4187 -0.4968  0.8897
 1247TIP3    H225157   5.149   2.539  11.776 -0.9504  0.4262 -1.4416
 1248TIP3   OH225158   3.192   6.318  14.948 -0.4201  0.0902  0.8222
 1248TIP3    H125159   3.197   6.322  15.043  0.1860 -0.2335  0.8017
 1248TIP3    H225160   3.152   6.401  14.922  0.7783  0.8024  1.2540
 1249TIP3   OH225161   5.185   1.611   2.143 -0.4792  0.2848  0.6496
 1249TIP3    H125162   5.233   1.585   2.064 -1.8599  0.2238 -0.1832
 1249TIP3    H225163   5.210   1.703   2.156  1.8459 -0.4653  1.7124
 1250TIP3   OH225164   6.713   1.577   0.273 -0.5549 -0.0657  0.1900
 1250TIP3    H125165   6.767   1.498   0.279 -1.6627 -0.7656  1.2397
 1250TIP3    H225166   6.731   1.612   0.186  0.9792 -0.7262  0.2243
 1251TIP3   OH225167   2.159   3.051   5.036  0.1408 -0.1041  0.0192
 1251TIP3    H125168   2.207   3.132   5.022  1.1588 -0.4809  1.2260
 1251TIP3    H225169   2.127   3.057   5.126 -1.0243 -0.4115 -0.3590
 1252TIP3   OH225170   3.187   4.927  10.812 -0.0606  0.0670  0.4032
 1252TIP3    H125171   3.254   4.917  10.879 -0.0523  1.1435  0.5699
 1252TIP3    H225172   3.180   4.841  10.771  1.2617 -0.1083  0.5321
 1253TIP3   OH225173   5.538   3.012   3.161 -0.0932  0.1791  0.1912
 1253TIP3    H125174   5.589   2.990   3.239  0.4517 -1.2796 -0.5562
 1253TIP3    H225175   5.513   3.104   3.174  0.6589  0.1905  1.7023
 1254TIP3   OH225176   2.876   3.159  14.698  0.4469  0.3286  0.1090
 1254TIP3    H125177   2.802   3.111  14.660  0.8004  0.2442 -0.4813
 1254TIP3    H225178   2.837   3.240  14.730  0.4457  1.2179 -2.0971
 1255TIP3   OH225179   5.950   2.525  16.187 -0.2602  0.2575  0.3386
 1255TIP3    H125180   5.952   2.498  16.278  2.1498  2.0733  0.8756
 1255TIP3    H225181   5.947   2.620  16.190  0.2895  0.3585 -1.4641
 1256TIP3   OH225182   5.471   4.749  14.629  0.3364 -0.1912  0.0345
 1256TIP3    H125183   5.394   4.783  14.674  0.2977 -1.3951  0.9146
 1256TIP3    H225184   5.545   4.790  14.675  0.2445  0.1798 -0.1482
 1257TIP3   OH225185   6.095   1.264  10.151 -0.6813  0.3942  0.1369
 1257TIP3    H125186   6.186   1.289  10.143 -0.7139  0.2587 -0.6566
 1257TIP3    H225187   6.046   1.345  10.137 -0.6743  0.5063  0.7666
 1258TIP3   OH225188   4.407   0.004   4.013  0.1470 -0.1335  0.0300
 1258TIP3    H125189   4.383   0.096   4.024 -0.5718 -0.3721  0.4697
 1258TIP3    H225190   4.493   0.006   3.971  0.1838  0.7396  0.1542
 1259TIP3   OH225191   5.013   6.085   2.626 -0.2487 -0.2432 -0.0149
 1259TIP3    H125192   5.052   6.030   2.695  1.0797  0.2689 -0.3392
 1259TIP3    H225193   5.088   6.129   2.586 -1.2607  1.5838  0.0475
 1260TIP3   OH225194   1.097   1.060  11.438 -0.8700 -0.7096 -0.3485
 1260TIP3    H125195   1.043   1.116  11.382 -0.5048  1.1627  1.1272
 1260TIP3    H225196   1.172   1.036  11.383  0.7598  3.1538  0.0405
 1261TIP3   OH225197   0.429   6.270   3.359  0.5354  0.2219 -0.2053
 1261TIP3    H125198   0.511   6.309   3.328 -0.1569  1.3818 -0.6442
 1261TIP3    H225199   0.418   6.305   3.447 -0.5535  1.8250 -0.9378
 1262TIP3   OH225200   3.815   4.122  12.116 -0.3103  0.2643 -0.2192
 1262TIP3    H125201   3.881   4.129  12.184  0.3979  0.5822 -0.9376
 1262TIP3    H225202   3.744   4.071  12.156  0.6069 -0.5769  0.3564
 1263TIP3   OH225203   0.241   2.153  14.476  0.4298 -0.0988  0.1139
 1263TIP3    H125204   0.298   2.226  14.500  0.5102 -0.5700  1.4097
 1263TIP3    H225205   0.174   2.152  14.545 -1.2181  0.5238 -1.4456
 1264TIP3   OH225206   3.471   4.724  16.411 -0.4409  0.2358 -0.0949
 1264TIP3    H125207   3.486   4.631  16.427 -0.6240  0.2788  0.3316
 1264TIP3    H225208   3.550   4.767  16.441  0.8346 -0.0274 -2.9061
 1265TIP3   OH225209   0.320   0.788   2.745  0.5376  0.1478  0.1322
 1265TIP3    H125210   0.377   0.715   2.726  0.2091 -0.1914  0.4369
 1265TIP3    H225211   0.289   0.772   2.834  1.0344  1.0324  0.4777
 1266TIP3   OH225212   2.144   2.494   4.669 -0.3064 -0.0342 -0.2212
 1266TIP3    H125213   2.135   2.404   4.635  0.0642 -0.1285 -0.0693
 1266TIP3    H225214   2.082   2.498   4.742  0.0824 -0.3415  0.1268
 1267TIP3   OH225215   4.519   3.405   4.349 -0.0709  0.3996 -0.4927
 1267TIP3    H125216   4.558   3.414   4.436  0.0776  0.1845 -0.5359
 1267TIP3    H225217   4.543   3.486   4.303 -1.9902  1.5019  0.3795
 1268TIP3   OH225218   3.862   0.640  15.550 -0.4444  0.2629 -1.2411
 1268TIP3    H125219   3.800   0.604  15.614  0.8519 -0.4869 -0.3782
 1268TIP3    H225220   3.901   0.563  15.509  0.6733  0.7098 -1.0338
 1269TIP3   OH225221   6.199   2.488  12.858  0.0260  0.3764  0.3184
 1269TIP3    H125222   6.125   2.509  12.802  2.4574  1.4026 -2.6558
 1269TIP3    H225223   6.247   2.570  12.868  0.0534  0.0532  3.3660
 1270TIP3   OH225224   3.823   3.619   2.540  0.0797  0.2151  0.6591
 1270TIP3    H125225   3.812   3.525   2.549  1.0870  0.2523  2.7198
 1270TIP3    H225226   3.894   3.630   2.477 -0.7194 -0.3620 -0.3547
 1271TIP3   OH225227   3.798   2.573  11.774  0.2516 -0.4180  0.1852
 1271TIP3    H125228   3.879   2.524  11.759  1.1351  1.2075 -0.3848
 1271TIP3    H225229   3.781   2.617  11.691 -0.1440  0.8369  0.9261
 1272TIP3   OH225230   2.488   1.587  16.287 -0.5336  0.0860 -0.9653
 1272TIP3    H125231   2.412   1.537  16.257  0.0427 -1.4098 -0.0281
 1272TIP3    H225232   2.504   1.652  16.219 -3.2596  1.0798 -0.6887
 1273TIP3   OH225233   4.031   6.646   2.123  0.2717 -0.4079  0.1656
 1273TIP3    H125234   4.115   6.634   2.167 -0.1723  1.5256  1.6081
 1273TIP3    H225235   4.054   6.685   2.038  0.8757 -0.3818  0.3405
 1274TIP3   OH225236   4.023   5.395   2.641  0.2141  0.3408  0.1005
 1274TIP3    H125237   3.951   5.358   2.590 -0.2783  1.4015  0.0289
 1274TIP3    H225238   4.081   5.434   2.577  0.4367  0.2269  0.2290
 1275TIP3   OH225239   1.176   4.406  14.475 -0.7292 -0.3846  0.1497
 1275TIP3    H125240   1.245   4.363  14.526  0.1079 -2.3230 -2.5074
 1275TIP3    H225241   1.135   4.335  14.426 -2.2967  1.2680 -0.9821
 1276TIP3   OH225242   5.914   1.646  16.666  0.3958  0.4176 -0.9041
 1276TIP3    H125243   5.955   1.728  16.640  0.0236  0.7891 -0.3325
 1276TIP3    H225244   5.931   1.640  16.760 -2.6864  1.6277 -0.2150
 1277TIP3   OH225245   5.015   0.919   0.186  0.3634  0.0164 -0.4053
 1277TIP3    H125246   4.961   0.984   0.231 -1.2876 -1.5641 -0.0392
 1277TIP3    H225247   5.091   0.908   0.242  0.3860  1.2046 -0.1859
 1278TIP3   OH225248   5.627   3.337   2.154 -0.1478 -0.4797 -0.2706
 1278TIP3    H125249   5.571   3.397   2.104 -0.4038 -2.1986 -2.1016
 1278TIP3    H225250   5.702   3.322   2.097  0.7650 -0.5172  0.9322
 1279TIP3   OH225251   0.673   0.855   5.418 -0.4431  0.0404 -0.2501
 1279TIP3    H125252   0.652   0.947   5.438  0.2877  0.1120  0.2293
 1279TIP3    H225253   0.683   0.814   5.504  0.4629 -0.1987 -0.4622
 1280TIP3   OH225254   2.861   2.636   5.254  0.1581  0.0058  0.6996
 1280TIP3    H125255   2.915   2.595   5.186  1.3485  0.8319  1.1164
 1280TIP3    H225256   2.892   2.597   5.336 -0.5068 -0.1731  0.8693
 1281TIP3   OH225257   2.475   3.697   1.442  0.1043  0.3478  0.2496
 1281TIP3    H125258   2.432   3.674   1.359  0.3846 -1.6037  0.6079
 1281TIP3    H225259   2.424   3.770   1.476 -2.0195 -0.9020 -0.1075
 1282TIP3   OH225260   2.029   6.497  11.901  0.0024  0.4474  0.8790
 1282TIP3    H125261   2.037   6.476  11.808  1.1928 -0.4465  1.1730
 1282TIP3    H225262   1.948   6.548  11.907 -1.3111 -1.4305 -0.3136
 1283TIP3   OH225263   6.066   0.445   2.928 -0.1442 -0.1251  0.5760
 1283TIP3    H125264   6.110   0.525   2.898 -0.2403 -0.8090 -1.5065
 1283TIP3    H225265   6.110   0.423   3.010  0.4756  1.5746  0.7314
 1284TIP3   OH225266   0.440   2.934   3.103  0.1213 -0.4459  0.1130
 1284TIP3    H125267   0.521   2.903   3.062  0.8611 -0.8955  1.8686
 1284TIP3    H225268   0.379   2.860   3.096 -0.5339  0.2685 -2.1913
 1285TIP3   OH225269   3.922   4.837   0.314  0.0977  0.6764  0.1416
 1285TIP3    H125270   3.923   4.832   0.218  0.2517  0.9790  0.1251
 1285TIP3    H225271   3.883   4.922   0.332 -0.1759  0.5049  0.3533
 1286TIP3   OH225272   0.063   3.266  14.326  0.0234  0.1598  0.0977
 1286TIP3    H125273   0.127   3.247  14.258 -0.3697  2.3883 -0.9413
 1286TIP3    H225274   0.094   3.348  14.366 -0.1130 -0.7613  2.1578
 1287TIP3   OH225275   5.201   5.737  13.474 -0.5590 -0.1799 -0.1631
 1287TIP3    H125276   5.218   5.820  13.518  0.1834  0.2483 -1.2322
 1287TIP3    H225277   5.123   5.754  13.421 -0.3969 -0.1568 -0.3949
 1288TIP3   OH225278   4.836   5.676  12.097  0.9615 -0.2155  0.2169
 1288TIP3    H125279   4.921   5.711  12.073  1.4803  0.0385  2.2952
 1288TIP3    H225280   4.782   5.686  12.019  1.6661  3.3876  0.1193
 1289TIP3   OH225281   0.007   4.871   5.218  0.2381  0.0189  0.5192
 1289TIP3    H125282  -0.018   4.867   5.126 -0.8339  3.7783  0.5636
 1289TIP3    H225283   0.103   4.874   5.216  0.3205 -2.4821 -0.3083
 1290TIP3   OH225284   2.004   2.786   4.966  0.5070 -0.2236  0.1870
 1290TIP3    H125285   1.959   2.826   5.041  2.7042  1.7328  0.5396
 1290TIP3    H225286   1.959   2.821   4.889 -0.4206 -0.6004  0.5475
 1291TIP3   OH225287   3.480   2.326  16.895 -0.3904  0.0756 -0.2791
 1291TIP3    H125288   3.474   2.250  16.836  2.7358 -1.5239  1.3435
 1291TIP3    H225289   3.482   2.401  16.836 -3.0552 -1.0562 -1.9451
 1292TIP3   OH225290   5.830   6.694  14.184 -0.5343  0.4950 -0.2394
 1292TIP3    H125291   5.881   6.768  14.216  2.1141 -1.4286  0.2194
 1292TIP3    H225292   5.888   6.650  14.122 -1.4996 -1.9177  0.4907
 1293TIP3   OH225293   4.817   4.594  11.988  0.4775 -0.5130 -0.2977
 1293TIP3    H125294   4.884   4.533  12.019  1.2549  0.9596  0.9760
 1293TIP3    H225295   4.734   4.558  12.021  0.8287 -1.3627 -0.3393
 1294TIP3   OH225296   1.111   3.360  11.682  0.0943  0.6953  0.2389
 1294TIP3    H125297   1.080   3.412  11.607  1.1155 -3.0239 -2.9406
 1294TIP3    H225298   1.184   3.410  11.717  1.3922  1.2242 -3.0391
 1295TIP3   OH225299   5.440   1.278  10.458 -0.5462  0.5868  0.8665
 1295TIP3    H125300   5.527   1.245  10.435 -0.9987 -0.8552  1.1614
 1295TIP3    H225301   5.456   1.364  10.495  0.6904  0.6464  0.2185
 1296TIP3   OH225302   5.635   2.439  16.610 -0.1436 -0.6856 -0.1918
 1296TIP3    H125303   5.594   2.361  16.646  2.1265 -2.4046 -1.2219
 1296TIP3    H225304   5.696   2.407  16.544  0.0537  2.0349 -1.4172
 1297TIP3   OH225305   1.039   3.258   1.876  0.4954  0.2051 -0.6096
 1297TIP3    H125306   1.075   3.263   1.787 -0.5165  0.8841 -0.9924
 1297TIP3    H225307   0.960   3.312   1.873  0.8373  0.8116  0.9003
 1298TIP3   OH225308   4.159   6.384  12.560  0.0733 -0.0648 -0.2526
 1298TIP3    H125309   4.216   6.308  12.570  1.1878  0.6408 -1.1011
 1298TIP3    H225310   4.161   6.404  12.466 -1.1325  0.3099 -0.2103
 1299TIP3   OH225311   0.772   4.217   3.535  0.1223 -0.3539  0.2628
 1299TIP3    H125312   0.728   4.269   3.603 -0.9477 -0.4295 -0.3657
 1299TIP3    H225313   0.777   4.129   3.572 -1.2656 -0.5978 -0.1061
 1300TIP3   OH225314   0.849   3.196   1.174  0.2264  0.0420  0.2646
 1300TIP3    H125315   0.845   3.187   1.079  0.5850  1.0496  0.1472
 1300TIP3    H225316   0.770   3.244   1.197 -1.3101 -2.6846  0.8022
 1301TIP3   OH225317   6.608   1.334   4.768  0.1836  0.0458 -0.4849
 1301TIP3    H125318   6.700   1.320   4.788 -0.2357 -0.9316  0.8590
 1301TIP3    H225319   6.567   1.249   4.783 -1.2322  0.9117  0.7539
 1302TIP3   OH225320   6.438   3.277   5.239  0.6514 -0.7122  0.1728
 1302TIP3    H125321   6.364   3.317   5.193  0.0779 -0.1697  1.5266
 1302TIP3    H225322   6.490   3.235   5.170 -0.1785  0.0824 -0.9581
 1303TIP3   OH225323   1.504   4.801  13.994  0.1356 -0.1121  0.0402
 1303TIP3    H125324   1.535   4.875  14.047  0.0833 -0.3649  0.4214
 1303TIP3    H225325   1.485   4.732  14.057  0.4035 -0.5353 -0.3357
 1304TIP3   OH225326   1.258   2.397   0.048  0.3913  0.6629 -0.2449
 1304TIP3    H125327   1.208   2.332   0.097  0.7872  1.3988  1.1600
 1304TIP3    H225328   1.194   2.438  -0.010 -0.5214  1.1868  1.1124
 1305TIP3   OH225329   1.606   5.315   3.261 -0.0216  0.4693  0.7039
 1305TIP3    H125330   1.688   5.346   3.299 -0.5334  0.3397  1.9152
 1305TIP3    H225331   1.630   5.284   3.174  0.9138  2.0435  0.3867
 1306TIP3   OH225332   1.179   3.519  14.405 -0.1206 -0.8805 -0.7403
 1306TIP3    H125333   1.183   3.427  14.432  0.6825 -0.5596  0.2312
 1306TIP3    H225334   1.091   3.547  14.428  0.1542 -0.9586  0.4295
 1307TIP3   OH225335   3.645   4.470   0.931  0.4226 -0.7231  0.1799
 1307TIP3    H125336   3.569   4.481   0.989  0.5246  0.1661  0.1576
 1307TIP3    H225337   3.667   4.377   0.937 -1.3240 -1.2020 -0.6311
 1308TIP3   OH225338   0.920   0.869  11.840  0.1483 -0.1684 -0.3193
 1308TIP3    H125339   0.897   0.846  11.750 -1.3043 -1.7379  0.4194
 1308TIP3    H225340   1.008   0.907  11.833 -0.1894  0.3028 -2.4647
 1309TIP3   OH225341   4.098   3.812   4.345  0.5704  0.0776 -0.1797
 1309TIP3    H125342   4.059   3.898   4.361 -0.3339 -0.1240 -1.1952
 1309TIP3    H225343   4.072   3.760   4.421  0.2331  0.4069 -0.0631
 1310TIP3   OH225344   3.867   0.119  13.591  0.5961  0.0491  0.0438
 1310TIP3    H125345   3.935   0.145  13.529  0.3853 -2.7273 -1.4275
 1310TIP3    H225346   3.897   0.036  13.628 -1.8143 -1.1032 -0.4381
 1311TIP3   OH225347   5.741   6.565  10.783  0.6972  0.2352 -0.3571
 1311TIP3    H125348   5.826   6.598  10.813  0.9366 -0.0845 -0.6760
 1311TIP3    H225349   5.677   6.626  10.820  0.9686 -0.2476  0.9325
 1312TIP3   OH225350   6.051   1.726  12.742  0.5203  0.3978  0.1593
 1312TIP3    H125351   6.079   1.814  12.769 -0.1500  0.0762  1.9670
 1312TIP3    H225352   6.103   1.707  12.664  0.4105  2.5511 -0.4742
 1313TIP3   OH225353   5.841   2.670   3.731 -0.5855  0.2877 -0.1517
 1313TIP3    H125354   5.797   2.614   3.666 -1.1228 -2.2561  2.3063
 1313TIP3    H225355   5.916   2.619   3.760  0.3003  1.8821  0.4070
 1314TIP3   OH225356   3.617   0.817   6.112 -0.0669  0.0822 -0.1240
 1314TIP3    H125357   3.601   0.778   6.026  1.0106  0.4686 -0.4988
 1314TIP3    H225358   3.709   0.797   6.131 -0.6609 -1.1856  1.5421
 1315TIP3   OH225359   4.840   5.249   1.677 -0.1478 -0.1578 -0.1302
 1315TIP3    H125360   4.784   5.290   1.743  0.3672  0.1312  0.1275
 1315TIP3    H225361   4.779   5.205   1.618 -0.8917  3.0987 -1.9180
 1316TIP3   OH225362   1.448   2.622  14.806 -0.6801  0.4162 -0.1524
 1316TIP3    H125363   1.405   2.572  14.876 -0.9689  0.3011 -0.4134
 1316TIP3    H225364   1.531   2.649  14.845  1.0457 -3.1820 -1.0972
 1317TIP3   OH225365   6.370   2.626  11.505  0.6971  0.0720 -0.0829
 1317TIP3    H125366   6.398   2.715  11.483  1.6064 -0.3634 -0.7630
 1317TIP3    H225367   6.375   2.579  11.421  4.3022 -1.6606  1.0153
 1318TIP3   OH225368   1.432   4.592   1.261 -0.3200  0.7959  0.1245
 1318TIP3    H125369   1.388   4.513   1.231  0.7554  0.3170 -0.2147
 1318TIP3    H225370   1.476   4.566   1.342 -0.6148  1.2641  0.4446
 1319TIP3   OH225371   0.811   5.880   2.555  0.0496 -0.1691 -0.5168
 1319TIP3    H125372   0.882   5.944   2.559 -0.9822  0.8942  1.0038
 1319TIP3    H225373   0.765   5.900   2.473  0.5497  0.1356 -0.7247
 1320TIP3   OH225374   4.293   2.535  15.114  0.7569 -0.1625 -0.3831
 1320TIP3    H125375   4.280   2.618  15.069 -0.5457  0.6111  1.3636
 1320TIP3    H225376   4.207   2.513  15.149  1.9450 -0.0851  2.7869
 1321TIP3   OH225377   4.294   0.250  14.776 -0.3684  0.4356  0.3815
 1321TIP3    H125378   4.307   0.339  14.808  1.6749  0.0820  0.5796
 1321TIP3    H225379   4.290   0.258  14.681 -0.3676  0.7513  0.4087
 1322TIP3   OH225380   6.106   5.757   1.309  0.5170 -0.2730  0.5158
 1322TIP3    H125381   6.102   5.724   1.220  2.2820 -2.4901  1.2215
 1322TIP3    H225382   6.046   5.833   1.309 -0.2899 -0.8504 -2.2389
 1323TIP3   OH225383   2.756   2.777  10.542 -0.1288  0.3944  0.2135
 1323TIP3    H125384   2.828   2.769  10.480  0.9784  1.8626  1.3001
 1323TIP3    H225385   2.791   2.829  10.614 -1.6930 -0.4817  1.6440
 1324TIP3   OH225386   6.370   2.314  13.000  0.4949 -0.5442 -0.0874
 1324TIP3    H125387   6.299   2.287  13.059 -0.0784 -1.2257 -1.0689
 1324TIP3    H225388   6.329   2.376  12.940  1.6183  1.9615  1.6407
 1325TIP3   OH225389   2.375   5.727   3.085  0.1945  0.4017  0.0098
 1325TIP3    H125390   2.280   5.712   3.087  0.2580  0.1290  1.7129
 1325TIP3    H225391   2.386   5.811   3.130  0.8528 -0.1010  0.7918
 1326TIP3   OH225392   4.446   2.875  11.923 -0.2109 -0.5924  0.2878
 1326TIP3    H125393   4.375   2.812  11.912 -1.3947  0.4634  1.8116
 1326TIP3    H225394   4.457   2.882  12.018  1.0915  0.1931  0.0876
 1327TIP3   OH225395   5.361   5.480   5.866  0.5791  0.3771 -0.0429
 1327TIP3    H125396   5.426   5.501   5.933 -0.6622  0.4108  1.1911
 1327TIP3    H225397   5.409   5.484   5.783  1.8738  1.5143  0.7375
 1328TIP3   OH225398   1.638   4.265  15.167  0.0129 -0.0990  0.3606
 1328TIP3    H125399   1.657   4.205  15.095  1.8955 -0.6412  1.2849
 1328TIP3    H225400   1.569   4.322  15.133 -0.5142 -1.6062 -1.1673
 1329TIP3   OH225401   3.270   4.481  15.298  0.1326  0.2605 -0.1266
 1329TIP3    H125402   3.349   4.478  15.351 -0.5104  1.7090  0.9497
 1329TIP3    H225403   3.207   4.531  15.351 -1.7762 -1.5826 -0.5948
 1330TIP3   OH225404   4.716   3.938   0.918  0.5382  0.5301 -0.0495
 1330TIP3    H125405   4.753   3.860   0.960  1.4998 -0.3740 -2.5067
 1330TIP3    H225406   4.743   4.011   0.975  0.2598 -0.8269  1.8646
 1331TIP3   OH225407   6.770   6.316  16.693  0.2651 -0.3760  0.1640
 1331TIP3    H125408   6.760   6.258  16.617 -0.4720 -1.7810  1.3228
 1331TIP3    H225409   6.764   6.404  16.656 -0.6597 -1.0482 -1.3497
 1332TIP3   OH225410   3.217   2.594   2.144 -0.2826 -0.3085 -0.1900
 1332TIP3    H125411   3.174   2.565   2.063 -0.0929 -0.6550 -0.1698
 1332TIP3    H225412   3.236   2.687   2.130 -1.1720 -0.1204 -0.1378
 1333TIP3   OH225413   4.285   1.921   0.604 -0.3781  0.6071  0.4433
 1333TIP3    H125414   4.363   1.928   0.548 -0.4909 -1.1060  0.0519
 1333TIP3    H225415   4.284   1.830   0.632 -1.4960  0.9586  1.5557
 1334TIP3   OH225416   3.241   4.829   0.987  0.6408  0.5857 -0.1096
 1334TIP3    H125417   3.277   4.910   0.950 -0.0345  0.8545 -0.1730
 1334TIP3    H225418   3.152   4.851   1.012 -0.0299 -0.5190 -1.4388
 1335TIP3   OH225419   5.043   5.198   3.849  0.4493  0.0362  0.0307
 1335TIP3    H125420   4.984   5.192   3.924 -1.3950  0.3470 -1.3469
 1335TIP3    H225421   5.015   5.278   3.803  2.6905  0.8087 -0.0578
 1336TIP3   OH225422   5.741   5.118  13.959 -0.2099  0.4418 -0.0258
 1336TIP3    H125423   5.666   5.170  13.929 -2.2596 -3.5571 -2.2973
 1336TIP3    H225424   5.708   5.070  14.035  0.6449  0.0583  0.1132
 1337TIP3   OH225425   0.310   4.153  11.231 -0.1628  0.4115  0.3476
 1337TIP3    H125426   0.265   4.164  11.147 -1.4503  0.1906  0.9925
 1337TIP3    H225427   0.361   4.234  11.242  2.6328 -0.9201 -2.1551
 1338TIP3   OH225428   2.304   4.649  15.378 -0.2307 -0.0498  0.5309
 1338TIP3    H125429   2.363   4.724  15.378 -0.7310  0.3472 -0.5196
 1338TIP3    H225430   2.328   4.599  15.300 -2.5906  1.1558 -1.0056
 1339TIP3   OH225431   0.951   1.951   1.306 -0.4136 -0.2275  0.3449
 1339TIP3    H125432   0.911   2.018   1.250 -0.4868 -0.7659 -0.2552
 1339TIP3    H225433   1.008   2.001   1.365 -0.8121  0.4039  0.2020
 1340TIP3   OH225434   1.790   1.429  13.325  0.1384 -0.7256  0.1922
 1340TIP3    H125435   1.758   1.416  13.414  2.1745 -1.6787  0.8313
 1340TIP3    H225436   1.739   1.369  13.272 -1.7871  0.5665  0.5354
 1341TIP3   OH225437   3.869   5.492   1.464  0.7944  0.4347 -0.0561
 1341TIP3    H125438   3.778   5.519   1.473  1.4740  2.5727  0.8933
 1341TIP3    H225439   3.894   5.518   1.376 -0.2897 -2.7387 -1.3552
 1342TIP3   OH225440   3.172   3.996   1.944 -0.3540  0.2861 -0.3555
 1342TIP3    H125441   3.158   3.910   1.904 -0.0769  0.1987 -0.2667
 1342TIP3    H225442   3.217   4.046   1.876  1.0107 -0.1711  0.1761
 1343TIP3   OH225443   0.802   5.486  13.999  0.1371 -0.1093  0.0839
 1343TIP3    H125444   0.731   5.523  14.052  1.4142  0.2242  1.5860
 1343TIP3    H225445   0.761   5.468  13.914 -1.4068  1.3189  0.5012
 1344TIP3   OH225446   2.694   6.166  16.792 -0.2762  0.2211 -0.8995
 1344TIP3    H125447   2.641   6.189  16.716 -1.9486  0.3337  0.2606
 1344TIP3    H225448   2.707   6.250  16.838 -0.5564 -0.0769 -0.2725
 1345TIP3   OH225449   5.203   0.848   0.958 -0.0865 -0.0559  0.1136
 1345TIP3    H125450   5.166   0.774   0.909 -0.3956 -0.1858  0.5466
 1345TIP3    H225451   5.284   0.814   0.995 -0.8607 -0.5526  1.3623
 1346TIP3   OH225452   1.062   5.804   1.600 -0.2277  0.5532  0.2106
 1346TIP3    H125453   1.060   5.745   1.524  0.4812 -0.4962  1.0011
 1346TIP3    H225454   1.142   5.855   1.588  1.1358 -1.2268  1.4363
 1347TIP3   OH225455   4.034   1.192   3.153 -0.8933  0.6549  0.5957
 1347TIP3    H125456   4.029   1.261   3.087  0.4271  0.3345  0.1491
 1347TIP3    H225457   4.033   1.111   3.103 -0.4269  0.3966  1.0062
 1348TIP3   OH225458   4.974   4.851   5.988 -0.4674  0.1744  0.1082
 1348TIP3    H125459   4.954   4.784   5.923 -1.7093 -3.0806  3.5980
 1348TIP3    H225460   4.903   4.915   5.980  0.2227  0.6325 -2.6602
 1349TIP3   OH225461   0.358   1.312  11.144 -0.1586  0.1006  0.1161
 1349TIP3    H125462   0.270   1.301  11.109  0.7023 -1.7839 -1.5380
 1349TIP3    H225463   0.398   1.380  11.089 -0.3386  0.4613  0.4269
 1350TIP3   OH225464   2.498   0.660  11.813  0.3048 -0.2642 -0.1749
 1350TIP3    H125465   2.529   0.686  11.727  1.9023 -0.5129  0.3081
 1350TIP3    H225466   2.488   0.743  11.861  1.3990 -0.2511  0.0435
 1351TIP3   OH225467   1.938   2.086   0.872 -0.0887 -0.4251 -0.1639
 1351TIP3    H125468   1.969   2.044   0.953 -0.3688 -0.4159 -0.0534
 1351TIP3    H225469   1.984   2.038   0.802 -1.1283 -1.5503 -0.0915
 1352TIP3   OH225470   0.787   4.986   5.562 -0.4034  0.6259  0.2441
 1352TIP3    H125471   0.729   4.946   5.626 -3.6066  0.0783 -2.8274
 1352TIP3    H225472   0.742   5.066   5.536  1.4022  1.4268 -0.5025
 1353TIP3   OH225473   5.997   6.168   1.699 -0.3539  0.0267 -0.0402
 1353TIP3    H125474   6.092   6.167   1.700 -0.3482  1.1569  0.4510
 1353TIP3    H225475   5.971   6.126   1.781 -0.2876 -1.0612 -0.5705
 1354TIP3   OH225476   4.526   1.528  11.484  0.2951  0.3522  0.1837
 1354TIP3    H125477   4.493   1.548  11.397 -0.5596  0.0378  0.4326
 1354TIP3    H225478   4.465   1.570  11.544  0.5628  0.0981  0.6424
 1355TIP3   OH225479   4.237   0.905  11.016 -0.0945  0.2237  0.5186
 1355TIP3    H125480   4.142   0.904  11.033  0.0723 -0.0127  1.4297
 1355TIP3    H225481   4.244   0.934  10.925 -1.0745 -0.2230  0.2861
 1356TIP3   OH225482   3.318   0.955  12.622 -0.1401  0.0388  0.4387
 1356TIP3    H125483   3.226   0.934  12.635 -0.4564 -0.2709 -1.9884
 1356TIP3    H225484   3.347   0.990  12.706 -2.2033 -0.7667  1.5262
 1357TIP3   OH225485   4.592   2.032  12.223 -0.3191  0.2311 -0.4514
 1357TIP3    H125486   4.651   1.961  12.248  0.2438  1.4379  1.7139
 1357TIP3    H225487   4.612   2.047  12.131  1.0463 -0.9893 -0.3816
 1358TIP3   OH225488   1.557   4.693   0.686 -0.7462 -0.0588 -0.4858
 1358TIP3    H125489   1.523   4.616   0.639 -0.0730  0.1521 -1.3313
 1358TIP3    H225490   1.648   4.699   0.658 -0.7587  0.9640 -0.3105
 1359TIP3   OH225491   5.954   6.609  11.402  0.2888  0.2198 -0.2583
 1359TIP3    H125492   5.959   6.622  11.497  0.8629  0.5122 -0.3247
 1359TIP3    H225493   5.953   6.514  11.390  1.5458  0.1769 -0.0233
 1360TIP3   OH225494   5.264   2.501  14.166 -0.3404  0.1389  0.3948
 1360TIP3    H125495   5.266   2.433  14.098 -1.4336  1.5074 -1.0501
 1360TIP3    H225496   5.262   2.453  14.249  0.5699 -1.5633 -0.5394
 1361TIP3   OH225497   2.461   5.235  12.143 -0.2326  0.5141  0.0449
 1361TIP3    H125498   2.514   5.159  12.120 -1.1735 -0.2256  0.3132
 1361TIP3    H225499   2.374   5.215  12.109 -0.4807  1.4778  0.1019
 1362TIP3   OH225500   5.516   5.087   3.885 -0.1780  0.5796 -0.3105
 1362TIP3    H125501   5.523   5.172   3.840 -0.2872  0.6641 -0.1693
 1362TIP3    H225502   5.430   5.053   3.858 -0.4155  0.8114  0.1442
 1363TIP3   OH225503   0.251   1.222  15.762 -0.0819 -0.3254  0.2485
 1363TIP3    H125504   0.337   1.191  15.735  0.4545  0.5653  0.8802
 1363TIP3    H225505   0.238   1.302  15.711  0.0145  0.2079  1.0351
 1364TIP3   OH225506   3.589   1.920  13.971  0.2093 -0.5017 -0.2131
 1364TIP3    H125507   3.536   1.930  13.893  0.0938  0.2027 -0.0508
 1364TIP3    H225508   3.662   1.864  13.945 -0.0327 -0.5769 -0.7185
 1365TIP3   OH225509   0.836   2.243   0.683  0.2991 -0.6748 -1.1298
 1365TIP3    H125510   0.924   2.231   0.646  0.8731 -2.7900  0.8208
 1365TIP3    H225511   0.834   2.186   0.759 -2.3230  0.4037 -0.3351
 1366TIP3   OH225512   2.787   5.318   3.478  0.3121 -0.5378 -0.0978
 1366TIP3    H125513   2.766   5.388   3.540  0.5048 -1.0336  0.5304
 1366TIP3    H225514   2.718   5.253   3.490 -0.3833 -0.0495 -1.3365
 1367TIP3   OH225515   4.937   2.666  12.901  0.2747  0.5283  0.4793
 1367TIP3    H125516   4.961   2.618  12.821 -1.8675 -0.4454  0.3838
 1367TIP3    H225517   5.018   2.708  12.928  1.8127 -1.7101 -0.4488
 1368TIP3   OH225518   5.974   0.342  16.271  0.0701 -0.3113 -0.5865
 1368TIP3    H125519   6.024   0.321  16.350  0.0988  1.6208 -0.0490
 1368TIP3    H225520   5.894   0.290  16.278 -0.2104  0.3130  1.0492
 1369TIP3   OH225521   4.659   5.172   0.555 -0.3156 -0.1061 -0.1443
 1369TIP3    H125522   4.685   5.213   0.472 -1.6427  0.0250 -0.5169
 1369TIP3    H225523   4.620   5.088   0.530  1.6124 -1.2436  0.5561
 1370TIP3   OH225524   3.239   6.305  11.614  0.7803  0.1881  0.1551
 1370TIP3    H125525   3.230   6.241  11.543  1.2628 -0.2134  0.4498
 1370TIP3    H225526   3.327   6.342  11.601  0.8615  0.1241  0.5363
 1371TIP3   OH225527   3.276   5.832  14.961  0.2293  0.1733 -0.4000
 1371TIP3    H125528   3.353   5.776  14.963  0.4847  0.5553  0.5619
 1371TIP3    H225529   3.310   5.919  14.982 -0.4833  0.3254  0.1099
 1372TIP3   OH225530   4.737   1.871   1.471 -0.1720 -0.1993 -0.4689
 1372TIP3    H125531   4.781   1.789   1.448  1.8620  0.9502 -0.8723
 1372TIP3    H225532   4.732   1.869   1.567  0.1710 -0.6645 -0.4564
 1373TIP3   OH225533   4.850   2.696  16.215 -0.6182 -0.5052  0.3271
 1373TIP3    H125534   4.933   2.660  16.185 -0.6013  1.0103 -1.5603
 1373TIP3    H225535   4.787   2.670  16.147 -0.8024  2.0998 -0.5400
 1374TIP3   OH225536   6.459   2.206   3.296  0.1424  0.3789  0.3947
 1374TIP3    H125537   6.402   2.210   3.220 -1.5667 -1.8742  1.4958
 1374TIP3    H225538   6.466   2.297   3.326 -2.8765  0.7043  0.2455
 1375TIP3   OH225539   3.591   5.230   5.220 -0.5679  0.1886  0.0209
 1375TIP3    H125540   3.668   5.204   5.170 -1.7650  0.7761 -2.2525
 1375TIP3    H225541   3.624   5.288   5.288  0.9815  0.5542 -1.0188
 1376TIP3   OH225542   0.370   0.637  13.979  0.5857  0.3947 -0.2509
 1376TIP3    H125543   0.357   0.625  13.885  0.6239  2.1655 -0.4991
 1376TIP3    H225544   0.306   0.704  14.004  0.8458  0.2326  0.9088
 1377TIP3   OH225545   3.775   4.698   1.014 -0.2874 -0.2673  0.3469
 1377TIP3    H125546   3.819   4.651   1.086  0.2994 -0.8327 -0.3680
 1377TIP3    H225547   3.731   4.629   0.964  1.2587 -0.1734 -1.1871
 1378TIP3   OH225548   0.529   2.255  16.354 -0.0940 -0.0480  0.5851
 1378TIP3    H125549   0.621   2.273  16.332 -0.1162  0.6947  1.0756
 1378TIP3    H225550   0.482   2.335  16.329 -1.1517 -1.6127 -2.7495
 1379TIP3   OH225551   6.329   6.040  16.235 -0.5017  0.1864  0.9560
 1379TIP3    H125552   6.285   6.124  16.246 -2.5664 -0.8784  1.0391
 1379TIP3    H225553   6.264   5.974  16.260  0.6224 -1.5051 -0.3696
 1380TIP3   OH225554   3.191   6.404  16.935  0.5185 -0.2218  0.0064
 1380TIP3    H125555   3.229   6.461  16.868  1.6156 -0.1276  0.6943
 1380TIP3    H225556   3.267   6.372  16.985 -0.3085 -0.0328  1.4091
 1381TIP3   OH225557   5.124   4.082   1.691 -0.3922 -0.6596  0.5008
 1381TIP3    H125558   5.126   3.987   1.706 -2.0455 -0.7479  0.3424
 1381TIP3    H225559   5.082   4.117   1.770 -0.4672 -0.1428  0.2280
 1382TIP3   OH225560   3.842   1.540  16.793 -0.3817  0.7101 -0.0587
 1382TIP3    H125561   3.863   1.450  16.820 -1.6587  0.3865 -0.0650
 1382TIP3    H225562   3.749   1.549  16.815 -0.3868  1.8558 -0.5439
 1383TIP3   OH225563   2.779   4.532  11.821  0.3746 -0.6195 -0.4198
 1383TIP3    H125564   2.768   4.513  11.914  1.1286 -0.7847 -0.3669
 1383TIP3    H225565   2.827   4.457  11.786  0.1227 -0.5427 -0.9370
 1384TIP3   OH225566   1.030   5.088   5.888 -0.0042  0.0708  0.1839
 1384TIP3    H125567   1.086   5.012   5.901 -0.3343 -0.2533 -0.2840
 1384TIP3    H225568   1.052   5.147   5.961  1.0498  0.0154 -0.0873
 1385TIP3   OH225569   4.270   5.723   3.075 -0.1177  0.1346  0.4317
 1385TIP3    H125570   4.233   5.810   3.061 -1.3184 -0.0779  2.0142
 1385TIP3    H225571   4.261   5.679   2.991 -2.2431  0.5746  0.3843
 1386TIP3   OH225572   2.484   5.175  13.190  0.0364 -0.7574 -0.0023
 1386TIP3    H125573   2.479   5.201  13.282 -0.6092 -1.9119  0.2998
 1386TIP3    H225574   2.500   5.081  13.193 -1.9204 -1.1597 -1.0587
 1387TIP3   OH225575   1.751   0.044   5.441 -0.4291  0.5566 -0.4857
 1387TIP3    H125576   1.737   0.112   5.507 -2.6476  0.6839 -1.0201
 1387TIP3    H225577   1.767   0.092   5.360  1.3682  0.4057 -0.2308
 1388TIP3   OH225578   3.490   1.165   4.930 -0.4080 -0.0998  0.2361
 1388TIP3    H125579   3.504   1.238   4.990 -0.6783  0.7474 -0.7042
 1388TIP3    H225580   3.411   1.122   4.962  0.1798 -0.4251  1.2328
 1389TIP3   OH225581   4.880   2.909   0.651 -0.1058 -0.0237 -0.3560
 1389TIP3    H125582   4.868   3.001   0.628  0.1430 -0.4455 -2.2989
 1389TIP3    H225583   4.872   2.862   0.567 -1.4036 -1.8805  0.7567
 1390TIP3   OH225584   5.330   6.106   2.508  0.0676 -0.3385  0.5176
 1390TIP3    H125585   5.402   6.104   2.446  0.6804  2.0129  1.1053
 1390TIP3    H225586   5.299   6.016   2.512  2.3527 -1.1970 -0.4680
 1391TIP3   OH225587   4.359   2.339   4.200  0.2486  0.6171  0.3377
 1391TIP3    H125588   4.295   2.295   4.256 -0.9517  1.3313 -0.4415
 1391TIP3    H225589   4.327   2.429   4.193  2.5438  1.5758  1.7105
 1392TIP3   OH225590   4.809   3.857  12.690  0.0981 -0.3698  0.1161
 1392TIP3    H125591   4.831   3.780  12.743  1.1157 -0.1767 -0.0137
 1392TIP3    H225592   4.886   3.914  12.698 -0.5321  0.5056 -0.0222
 1393TIP3   OH225593   6.632   0.512  12.113 -0.1249 -0.0349  0.3686
 1393TIP3    H125594   6.623   0.546  12.024 -1.4886  1.2326  0.9790
 1393TIP3    H225595   6.717   0.467  12.112 -0.7102 -1.1791 -1.9252
 1394TIP3   OH225596   0.042   0.776   1.894  0.3155  0.1598  0.1305
 1394TIP3    H125597   0.039   0.718   1.970  1.7081  0.7231  0.6416
 1394TIP3    H225598   0.008   0.859   1.927 -0.8485 -0.1235 -0.3632
 1395TIP3   OH225599   2.994   4.182  16.559 -0.3884  0.1948  0.8197
 1395TIP3    H125600   2.969   4.091  16.551  0.7051 -0.0962  0.5962
 1395TIP3    H225601   3.033   4.188  16.647 -1.7438  0.7707  1.3980
 1396TIP3   OH225602   4.617   1.492  15.187 -0.3931 -0.0769  0.4145
 1396TIP3    H125603   4.706   1.498  15.151 -0.8847  1.2060 -0.6414
 1396TIP3    H225604   4.598   1.580  15.219 -1.1183 -0.4598  1.0600
 1397TIP3   OH225605   3.074   5.515  14.217 -0.0641 -0.5533  0.2682
 1397TIP3    H125606   3.033   5.472  14.292 -0.8208  1.7868  1.2323
 1397TIP3    H225607   3.011   5.503  14.146 -0.1387 -1.2744  0.4501
 1398TIP3   OH225608   1.875   2.860   5.201  0.0054 -0.4977  0.2458
 1398TIP3    H125609   1.797   2.914   5.198 -0.6326 -1.4942 -1.6865
 1398TIP3    H225610   1.846   2.778   5.241  0.3724 -0.3808  0.7601
 1399TIP3   OH225611   1.139   6.594  14.650 -0.1463 -0.2735 -0.0132
 1399TIP3    H125612   1.067   6.656  14.664  0.4890  0.5535 -0.3102
 1399TIP3    H225613   1.218   6.647  14.664  0.3994 -1.4424  1.4484
 1400TIP3   OH225614   4.233   1.258  16.645  0.6356 -0.4358 -0.3287
 1400TIP3    H125615   4.325   1.253  16.669  0.7759 -0.7317 -0.9040
 1400TIP3    H225616   4.228   1.330  16.582  0.0947  1.0276  1.3353
 1401TIP3   OH225617   2.568   2.984  10.570 -0.7108  0.4739  0.4196
 1401TIP3    H125618   2.480   2.946  10.566 -0.3112 -0.2720 -2.6397
 1401TIP3    H225619   2.626   2.911  10.548  0.4643  1.5902 -0.2021
 1402TIP3   OH225620   1.694   0.483   3.547  0.5341  0.2111 -0.0449
 1402TIP3    H125621   1.715   0.407   3.492  0.2536  0.3343 -0.3234
 1402TIP3    H225622   1.771   0.495   3.601  1.3098  0.8425 -1.2645
 1403TIP3   OH225623   4.387   1.781   3.255 -0.0447 -0.3576  0.0555
 1403TIP3    H125624   4.349   1.772   3.167 -0.6549  0.2791  0.2449
 1403TIP3    H225625   4.440   1.703   3.266 -1.4736 -1.3761 -0.1403
 1404TIP3   OH225626   5.401   3.063   0.097 -0.1416 -0.4008  0.3311
 1404TIP3    H125627   5.341   3.111   0.155 -1.1472  1.3535 -2.0873
 1404TIP3    H225628   5.402   2.974   0.132 -1.6809  0.3167  2.3049
 1405TIP3   OH225629   1.097   2.684  13.335  0.4932  0.1504  0.2620
 1405TIP3    H125630   1.166   2.714  13.394  0.1302  1.7339 -0.0793
 1405TIP3    H225631   1.139   2.682  13.249  0.3037  0.5090  0.1562
 1406TIP3   OH225632   4.465   5.991  12.968 -0.0305  0.3804 -0.3303
 1406TIP3    H125633   4.535   6.023  13.026  0.0047 -2.4395  1.2591
 1406TIP3    H225634   4.394   6.053  12.981  0.8361  1.1374  0.9529
 1407TIP3   OH225635   6.049   6.127   0.936 -0.1766 -0.2625 -0.1871
 1407TIP3    H125636   6.035   6.137   1.030 -1.1859  1.4250 -0.5000
 1407TIP3    H225637   6.106   6.200   0.911  1.8625 -1.9194 -0.5351
 1408TIP3   OH225638   1.330   6.367   0.581 -0.1890 -0.0202  0.5527
 1408TIP3    H125639   1.247   6.333   0.615 -0.0008 -0.6176  0.4242
 1408TIP3    H225640   1.325   6.350   0.487 -0.7071  1.6231  0.2741
 1409TIP3   OH225641   1.734   0.760  16.650  0.4830  0.2258 -0.4014
 1409TIP3    H125642   1.689   0.683  16.616  0.4198 -0.9216  2.1391
 1409TIP3    H225643   1.799   0.725  16.711  0.6959  2.1445  0.5366
 1410TIP3   OH225644   4.366   0.659   5.403  0.2614 -0.6680  0.9107
 1410TIP3    H125645   4.443   0.690   5.452  0.8462 -0.0605 -0.3857
 1410TIP3    H225646   4.373   0.701   5.318  1.0033 -4.2039 -0.8787
 1411TIP3   OH225647   5.080   1.343  16.801 -0.0358  0.0413 -0.3607
 1411TIP3    H125648   5.113   1.376  16.884 -0.9927 -0.7198  0.3278
 1411TIP3    H225649   5.127   1.394  16.735  1.6566 -0.2168  0.6216
 1412TIP3   OH225650   5.358   4.989  17.159 -0.2864  0.1882  0.1095
 1412TIP3    H125651   5.406   5.037  17.226 -1.1693  1.7601 -0.3459
 1412TIP3    H225652   5.419   4.981  17.086 -0.3621  1.3033 -0.0940
 1413TIP3   OH225653   0.532   5.602   3.780 -0.3963  0.1622 -0.3468
 1413TIP3    H125654   0.586   5.535   3.821 -0.1984  1.1249  0.9873
 1413TIP3    H225655   0.536   5.677   3.839 -1.5210  0.9727 -1.2548
 1414TIP3   OH225656   5.421   2.404  16.218 -0.2249  0.0695 -0.3013
 1414TIP3    H125657   5.384   2.347  16.150 -0.0330  2.5383 -2.5334
 1414TIP3    H225658   5.515   2.391  16.212 -0.1386  1.1685 -1.3006
 1415TIP3   OH225659   0.383   6.635  11.140 -0.5062  0.2782  0.3584
 1415TIP3    H125660   0.359   6.625  11.232 -2.2517  0.3684 -0.0791
 1415TIP3    H225661   0.471   6.598  11.134 -1.5458 -2.4751  1.4714
 1416TIP3   OH225662   5.393   3.299   0.786  0.0398  0.3635  0.3263
 1416TIP3    H125663   5.363   3.390   0.787 -1.0102  0.0234  0.1861
 1416TIP3    H225664   5.391   3.273   0.878 -1.4137 -0.0861  0.1672
 1417TIP3   OH225665   3.610   4.650  15.328 -0.3788 -0.1306  0.2447
 1417TIP3    H125666   3.583   4.697  15.407  2.2320 -1.4387  1.9792
 1417TIP3    H225667   3.654   4.716  15.275 -1.8436  0.6755 -0.0039
 1418TIP3   OH225668   3.398   0.366  16.354 -0.2036 -0.1084  0.7926
 1418TIP3    H125669   3.483   0.323  16.365 -0.7802 -1.3727  0.3751
 1418TIP3    H225670   3.357   0.319  16.282 -1.8550 -0.4709  1.9452
 1419TIP3   OH225671   5.859   2.672   1.910 -0.2690  0.0222  0.0416
 1419TIP3    H125672   5.897   2.706   1.829  2.3810 -2.7392  0.0445
 1419TIP3    H225673   5.781   2.624   1.882  0.6701 -0.9677 -0.9131
 1420TIP3   OH225674   3.761   1.161   2.928  1.0786  0.7733 -0.6164
 1420TIP3    H125675   3.839   1.215   2.935  2.5966 -1.4189  0.1229
 1420TIP3    H225676   3.731   1.148   3.018  0.8362  0.2768 -0.7610
 1421TIP3   OH225677   1.698   6.610  17.145 -0.1571  0.2764 -0.2095
 1421TIP3    H125678   1.690   6.705  17.139 -0.8190  0.1756 -1.0134
 1421TIP3    H225679   1.716   6.593  17.237  0.4470  1.2140 -0.1501
 1422TIP3   OH225680   5.471   3.370  14.406 -0.1686 -0.2697 -0.1861
 1422TIP3    H125681   5.507   3.422  14.479  2.0747 -1.5587 -0.3216
 1422TIP3    H225682   5.539   3.372  14.339 -1.2550 -1.0174 -1.3415
 1423TIP3   OH225683   4.479   6.309  15.932 -0.1090 -0.0530 -0.0301
 1423TIP3    H125684   4.385   6.302  15.951  0.3173 -2.1100  1.5673
 1423TIP3    H225685   4.518   6.340  16.014  0.7052 -0.0282 -0.4255
 1424TIP3   OH225686   6.490   6.154  15.919 -0.1740 -0.1340 -0.0271
 1424TIP3    H125687   6.431   6.192  15.985  0.1237  0.3983 -0.0602
 1424TIP3    H225688   6.460   6.064  15.909  0.4289 -0.5513  1.6140
 1425TIP3   OH225689   0.207   2.692  16.008  0.2843  0.4107  0.0595
 1425TIP3    H125690   0.157   2.766  16.041  0.5669  1.3096 -1.4899
 1425TIP3    H225691   0.163   2.615  16.045 -1.2335  1.2555  0.0420
 1426TIP3   OH225692   6.151   5.043   5.537 -0.7095 -0.1713 -0.3855
 1426TIP3    H125693   6.108   4.992   5.606  1.3579 -0.4988  0.7057
 1426TIP3    H225694   6.081   5.096   5.499 -1.8832  0.0626  2.0262
 1427TIP3   OH225695   5.768   3.018   5.549  0.0404 -0.3675  0.1199
 1427TIP3    H125696   5.786   3.087   5.486  0.0878 -1.1320 -0.7221
 1427TIP3    H225697   5.821   3.041   5.626 -0.8390  1.1342  0.2835
 1428TIP3   OH225698   2.845   2.889  16.781  0.0072  0.1667 -0.4513
 1428TIP3    H125699   2.912   2.829  16.749 -0.0651 -0.1966  0.0722
 1428TIP3    H225700   2.856   2.888  16.876 -0.7708  0.0676 -0.3609
 1429TIP3   OH225701   3.725   4.019  11.469  0.0916  0.3775 -0.4994
 1429TIP3    H125702   3.698   3.936  11.430  0.4521  0.6489 -1.3292
 1429TIP3    H225703   3.793   4.052  11.411  0.8071  0.6709  0.4863
 1430TIP3   OH225704   3.919   0.075  10.866 -0.5552  0.1299  0.2409
 1430TIP3    H125705   3.880   0.157  10.833 -0.8513  0.0152  0.2996
 1430TIP3    H225706   3.989   0.104  10.924 -0.5471  0.3419  0.1269
 1431TIP3   OH225707   2.629   4.702   4.990 -0.3720 -1.0351 -0.3866
 1431TIP3    H125708   2.697   4.635   4.999  0.7528  0.3572  2.0050
 1431TIP3    H225709   2.561   4.674   5.051 -0.8382 -1.1211 -0.9518
 1432TIP3   OH225710   5.797   2.277   1.995  0.2172 -0.5043 -0.5332
 1432TIP3    H125711   5.751   2.361   2.005  1.0553 -0.2566  1.6796
 1432TIP3    H225712   5.729   2.211   2.008 -0.0642 -0.1393 -0.1012
 1433TIP3   OH225713   5.588   0.938  12.851 -0.1411 -0.0831  0.3999
 1433TIP3    H125714   5.569   0.851  12.816  0.8246 -1.1566  2.4993
 1433TIP3    H225715   5.517   0.955  12.913 -0.1324  0.4870  0.2591
 1434TIP3   OH225716   1.551   6.456   2.356 -0.3611  0.0448 -0.1660
 1434TIP3    H125717   1.543   6.548   2.381 -0.5028  0.3287 -1.2161
 1434TIP3    H225718   1.611   6.419   2.420 -1.2256  0.5901  0.9774
 1435TIP3   OH225719   1.829   2.356  13.493 -0.5726  0.3275  0.4905
 1435TIP3    H125720   1.907   2.403  13.462  0.4696 -1.1277  0.8416
 1435TIP3    H225721   1.762   2.423  13.501  1.1272  1.9257  1.7914
 1436TIP3   OH225722   3.882   3.264   3.782  0.7415 -0.5961  0.4618
 1436TIP3    H125723   3.954   3.268   3.845  3.4084 -0.9414 -2.4314
 1436TIP3    H225724   3.875   3.171   3.760 -0.8379 -0.6127  0.9179
 1437TIP3   OH225725   1.459   3.414   4.087 -0.3114 -0.1239  0.0457
 1437TIP3    H125726   1.386   3.459   4.044 -1.0410  1.3448  2.7186
 1437TIP3    H225727   1.436   3.322   4.082 -0.7877  0.0692 -1.9149
 1438TIP3   OH225728   2.588   4.297   4.124 -0.0113 -0.2925 -0.3245
 1438TIP3    H125729   2.636   4.259   4.198  1.2292 -0.6053 -1.2731
 1438TIP3    H225730   2.536   4.367   4.164  0.4161 -0.6459  0.8949
 1439TIP3   OH225731   0.104   1.671   4.137  0.0227 -0.1658  0.9423
 1439TIP3    H125732   0.178   1.638   4.088 -1.4791  1.5752 -2.7029
 1439TIP3    H225733   0.030   1.618   4.108 -1.0810  1.5841  0.4460
 1440TIP3   OH225734   5.348   6.182   3.118 -0.0004  0.1406 -0.2801
 1440TIP3    H125735   5.288   6.228   3.060 -0.3296 -0.9925 -0.8512
 1440TIP3    H225736   5.309   6.095   3.128  2.5996 -1.3114 -2.3193
 1441TIP3   OH225737   6.627   2.007  13.370 -0.1000  0.1998 -0.0505
 1441TIP3    H125738   6.564   2.079  13.369 -0.5034 -0.1652 -1.7996
 1441TIP3    H225739   6.713   2.051  13.369 -0.3411  0.6518 -1.1817
 1442TIP3   OH225740   1.701   2.787   3.507 -0.0810 -0.4952  0.1840
 1442TIP3    H125741   1.617   2.822   3.477 -0.6068 -0.4864  1.6042
 1442TIP3    H225742   1.692   2.783   3.602  0.9550 -1.9907  0.2376
 1443TIP3   OH225743   4.686   2.542   5.192 -0.2836  0.0464  0.2298
 1443TIP3    H125744   4.595   2.572   5.186 -0.0701  0.5984 -0.2738
 1443TIP3    H225745   4.726   2.597   5.259 -0.8263 -1.5004  1.8713
 1444TIP3   OH225746   1.782   2.521  10.478  0.3266  0.7778 -0.1766
 1444TIP3    H125747   1.752   2.575  10.404  0.7641 -0.8358 -1.5542
 1444TIP3    H225748   1.845   2.461  10.440 -0.5763 -1.1085  1.2417
 1445TIP3   OH225749   0.017   3.511  12.821  0.0132 -0.0527 -0.2756
 1445TIP3    H125750   0.063   3.478  12.744 -0.4043 -1.0492 -0.1055
 1445TIP3    H225751   0.077   3.493  12.893 -0.7426 -1.6169 -0.0153
 1446TIP3   OH225752   6.728   4.393   3.378 -0.1659  0.4836  0.3150
 1446TIP3    H125753   6.765   4.478   3.356  1.7309 -0.0718  1.2437
 1446TIP3    H225754   6.673   4.370   3.303  1.9641  0.9904 -1.4286
 1447TIP3   OH225755   3.105   5.256  12.802  0.1853 -0.5304 -0.1923
 1447TIP3    H125756   3.160   5.239  12.725 -0.3986 -0.1440 -0.6996
 1447TIP3    H225757   3.160   5.232  12.876  1.1649  0.1454 -0.6843
 1448TIP3   OH225758   1.153   2.599   1.476 -0.1502 -0.2359  0.0295
 1448TIP3    H125759   1.219   2.630   1.537  0.0244 -1.9378  0.7346
 1448TIP3    H225760   1.196   2.529   1.427 -1.1218 -0.7155 -0.1652
 1449TIP3   OH225761   6.392   3.801   3.943  0.3469 -0.3735  0.2430
 1449TIP3    H125762   6.457   3.825   3.877 -0.4362 -0.5893 -0.6242
 1449TIP3    H225763   6.441   3.794   4.025  0.8708  2.5810  0.2227
 1450TIP3   OH225764   3.570   6.706  15.848 -0.0628 -0.4634  0.4040
 1450TIP3    H125765   3.494   6.750  15.810  1.1941  1.0010 -0.5273
 1450TIP3    H225766   3.574   6.622  15.804 -0.5604 -0.1228 -0.3035
 1451TIP3   OH225767   1.407   3.239   1.488 -0.3497 -0.0057  0.8069
 1451TIP3    H125768   1.501   3.259   1.477  0.4521 -2.3178  3.1506
 1451TIP3    H225769   1.376   3.306   1.548 -0.2292  0.7423  0.0610
 1452TIP3   OH225770   4.077   3.427  15.660  0.4766  0.1777  0.6277
 1452TIP3    H125771   4.115   3.473  15.585  0.6881  1.2906  1.4085
 1452TIP3    H225772   3.987   3.460  15.666  0.2309 -0.4440  0.4317
 1453TIP3   OH225773   0.347   2.983  11.322 -0.9550  0.5495 -0.2152
 1453TIP3    H125774   0.345   2.889  11.340  3.2503  0.6053  1.0141
 1453TIP3    H225775   0.258   3.013  11.343 -1.9390 -2.8664  0.8598
 1454TIP3   OH225776   2.054   4.867  16.674 -0.0720 -0.2839 -0.0626
 1454TIP3    H125777   2.102   4.821  16.742 -0.4783  0.0812  0.4724
 1454TIP3    H225778   2.101   4.846  16.593  1.3976  0.6573  0.5513
 1455TIP3   OH225779   0.500   5.129   4.173 -0.8260  0.1097 -0.4944
 1455TIP3    H125780   0.508   5.199   4.237 -0.4182 -0.7795  0.4382
 1455TIP3    H225781   0.498   5.048   4.225  1.0900 -0.7309 -1.6861
 1456TIP3   OH225782   3.540   0.161   4.731  0.1633  0.4040 -0.0656
 1456TIP3    H125783   3.499   0.075   4.729 -2.1236  1.4150  1.6819
 1456TIP3    H225784   3.583   0.165   4.816 -0.4966  1.3192  0.2328
 1457TIP3   OH225785   1.971   6.675  16.387 -0.5288  0.0127 -0.0473
 1457TIP3    H125786   2.048   6.726  16.362 -1.0819  1.3760  0.9901
 1457TIP3    H225787   1.965   6.606  16.321  0.0592  1.4687 -1.6397
 1458TIP3   OH225788   1.133   4.540   4.503  0.4087  0.7680 -0.5771
 1458TIP3    H125789   1.137   4.453   4.543  1.1451  0.8770 -0.3981
 1458TIP3    H225790   1.121   4.523   4.409  0.0737  0.4820 -0.4817
 1459TIP3   OH225791   2.755   3.918  16.653  0.4220  0.0088 -0.1909
 1459TIP3    H125792   2.767   3.964  16.570  0.6997 -1.7918 -1.1619
 1459TIP3    H225793   2.797   3.833  16.640  0.3464 -0.3385  1.7468
 1460TIP3   OH225794   3.790   0.174  12.515  0.1103  0.6009 -0.3573
 1460TIP3    H125795   3.778   0.268  12.507  2.2013  0.8928 -0.3480
 1460TIP3    H225796   3.736   0.148  12.589  1.6751  2.2521  1.3969
 1461TIP3   OH225797   1.010   4.978   6.197 -0.8592 -0.0233  0.1984
 1461TIP3    H125798   0.956   4.923   6.140  1.0174  0.4282 -2.0815
 1461TIP3    H225799   1.100   4.965   6.165  0.1022  1.1073  2.3474
 1462TIP3   OH225800   0.810   6.165  16.622  0.1739  0.3045 -0.1605
 1462TIP3    H125801   0.717   6.151  16.606 -0.1484 -0.1777  2.0432
 1462TIP3    H225802   0.814   6.246  16.673  0.8709 -0.2515  0.6945
 1463TIP3   OH225803   5.180   1.510  15.833  0.1055 -0.0329 -0.1873
 1463TIP3    H125804   5.257   1.551  15.792  2.2546 -3.1638  0.5571
 1463TIP3    H225805   5.195   1.519  15.927 -0.6288 -0.3795 -0.0367
 1464TIP3   OH225806   5.038   4.838  16.552  0.2976  0.0241  0.2222
 1464TIP3    H125807   5.112   4.778  16.542 -1.4831 -2.0419 -0.9823
 1464TIP3    H225808   5.026   4.875  16.464 -2.1302 -2.1392 -0.3925
 1465TIP3   OH225809   3.448   5.685   6.393 -0.4216 -0.7280 -0.0374
 1465TIP3    H125810   3.414   5.758   6.341  1.8060 -1.0818 -2.0724
 1465TIP3    H225811   3.485   5.727   6.471  0.3701  0.2997 -0.9420
 1466TIP3   OH225812   5.994   5.339   1.681  0.0593  0.4786  0.7974
 1466TIP3    H125813   6.058   5.408   1.664  0.6600 -0.4152 -0.7126
 1466TIP3    H225814   6.046   5.259   1.687 -0.8099 -0.1008  0.6840
 1467TIP3   OH225815   5.489   1.942  14.958  0.0670  0.1327 -0.0783
 1467TIP3    H125816   5.578   1.964  14.987  0.6568  0.1230 -1.8258
 1467TIP3    H225817   5.499   1.859  14.911 -1.3147 -1.2388  1.9990
 1468TIP3   OH225818   6.271   1.195  13.844  0.0715  0.0317  0.7514
 1468TIP3    H125819   6.293   1.246  13.767 -0.2320  0.1587  0.7457
 1468TIP3    H225820   6.279   1.104  13.815 -1.9332  0.0677 -0.0020
 1469TIP3   OH225821   1.376   3.606   5.530  0.1153  0.1494  0.3623
 1469TIP3    H125822   1.426   3.607   5.449 -1.2052 -4.0152 -0.6286
 1469TIP3    H225823   1.291   3.643   5.507 -0.4970 -1.6650 -0.3894
 1470TIP3   OH225824   1.124   6.589   2.261  0.5944 -0.7067  0.3549
 1470TIP3    H125825   1.202   6.551   2.301  0.3118  0.6487  2.2617
 1470TIP3    H225826   1.151   6.676   2.234  0.6768 -1.4619 -2.1757
 1471TIP3   OH225827   2.834   2.199  12.432  0.1704  0.2283 -0.2698
 1471TIP3    H125828   2.858   2.289  12.454 -0.6040  0.7638 -1.5565
 1471TIP3    H225829   2.907   2.146  12.464 -0.3041  1.0822  2.3736
 1472TIP3   OH225830   1.713   3.264   1.600 -0.0428  0.7005  0.5589
 1472TIP3    H125831   1.732   3.338   1.542  1.2488  0.9107  1.2247
 1472TIP3    H225832   1.785   3.202   1.584 -0.3249  0.2385  1.0693
 1473TIP3   OH225833   6.167   1.440   2.946 -0.0324 -0.3194  0.5075
 1473TIP3    H125834   6.204   1.493   3.017 -0.3166 -0.6283  0.8942
 1473TIP3    H225835   6.185   1.489   2.867  2.1281 -0.9691  0.5702
 1474TIP3   OH225836   3.143   4.308  13.669 -0.2789  0.6515 -0.0233
 1474TIP3    H125837   3.054   4.303  13.631  0.2024 -0.4661 -1.0554
 1474TIP3    H225838   3.167   4.216  13.684  1.4493  0.8310 -1.5671
 1475TIP3   OH225839   4.163   5.294   2.848 -0.5709 -0.2040 -0.2636
 1475TIP3    H125840   4.204   5.207   2.847  1.1680  0.5477  1.5561
 1475TIP3    H225841   4.109   5.296   2.770  0.7155 -2.2977 -1.2562
 1476TIP3   OH225842   5.804   2.625   2.583 -0.0268  0.5965  0.3066
 1476TIP3    H125843   5.745   2.697   2.560 -0.4235 -0.0172 -0.6151
 1476TIP3    H225844   5.864   2.617   2.509 -0.3210 -0.3609  0.1616
 1477TIP3   OH225845   2.393   0.626  16.614  0.1855  0.7029  0.4259
 1477TIP3    H125846   2.461   0.627  16.547 -0.6490 -1.4919 -0.5061
 1477TIP3    H225847   2.312   0.637  16.566 -0.3650 -0.1269  1.1468
 1478TIP3   OH225848   1.185   5.970  13.425  0.8663 -0.4277  0.5628
 1478TIP3    H125849   1.170   6.002  13.336  1.0984 -0.9577  0.3336
 1478TIP3    H225850   1.151   6.039  13.481  1.7507  0.4151  0.0727
 1479TIP3   OH225851   5.029   4.217  15.164  0.3659 -0.5094 -0.3209
 1479TIP3    H125852   4.960   4.273  15.131 -1.8764 -2.1977  1.3346
 1479TIP3    H225853   5.060   4.261  15.243  1.1057  0.1824 -0.9929
 1480TIP3   OH225854   5.465   6.591  14.568 -0.2204 -0.0308 -0.1678
 1480TIP3    H125855   5.484   6.684  14.577 -1.3176  0.2227 -0.4122
 1480TIP3    H225856   5.530   6.559  14.505 -0.3123  0.7220 -0.6471
 1481TIP3   OH225857   2.396   1.885  12.518  0.5074  0.5707 -0.0286
 1481TIP3    H125858   2.484   1.918  12.536 -0.1039  1.4491  1.4497
 1481TIP3    H225859   2.339   1.961  12.532 -0.5119 -0.0481 -0.7596
 1482TIP3   OH225860   4.215   3.055  13.133  0.4211  0.7084 -0.0035
 1482TIP3    H125861   4.304   3.031  13.109 -0.4596 -2.0381 -0.6736
 1482TIP3    H225862   4.222   3.088  13.223  2.0248  0.0306  0.1309
 1483TIP3   OH225863   6.424   6.513  12.299 -0.0595 -0.2756  0.5226
 1483TIP3    H125864   6.362   6.482  12.233  0.3625 -0.4971  0.2310
 1483TIP3    H225865   6.380   6.589  12.339 -0.2430 -0.0356 -0.1252
 1484TIP3   OH225866   5.974   6.304   3.929 -0.5172  0.0167 -0.2322
 1484TIP3    H125867   6.061   6.270   3.947 -1.8325 -3.4511 -0.0688
 1484TIP3    H225868   5.975   6.323   3.835 -0.1255 -1.8022 -0.6172
 1485TIP3   OH225869   1.866   0.735  14.522 -0.5614 -0.3533 -0.4705
 1485TIP3    H125870   1.808   0.667  14.554 -1.2610  0.5989  0.3383
 1485TIP3    H225871   1.868   0.723  14.427 -1.2642 -1.0256 -0.4022
 1486TIP3   OH225872   1.983   0.005   0.126 -0.5279  0.6478 -0.4388
 1486TIP3    H125873   2.058   0.047   0.083  0.7845 -0.2478  0.9344
 1486TIP3    H225874   1.951   0.071   0.188 -0.6582  0.9049 -0.7800
 1487TIP3   OH225875   4.466   4.506  14.146 -0.1401 -0.1261 -0.2117
 1487TIP3    H125876   4.471   4.505  14.050 -0.2950 -1.3376 -0.2104
 1487TIP3    H225877   4.554   4.530  14.174  0.1254 -0.5807 -0.6435
 1488TIP3   OH225878   5.158   0.574   2.985  0.2548 -0.1421 -0.0126
 1488TIP3    H125879   5.141   0.667   3.002 -0.4808 -0.8249  3.1934
 1488TIP3    H225880   5.196   0.541   3.066  1.1211 -2.5245 -1.3431
 1489TIP3   OH225881   0.347   4.243   4.061 -0.4809 -0.0148  0.2278
 1489TIP3    H125882   0.266   4.292   4.072 -0.0732  0.6736  0.1967
 1489TIP3    H225883   0.388   4.245   4.148 -0.2598  0.0697  0.1219
 1490TIP3   OH225884   6.123   6.121  16.598 -0.8080  0.0335 -0.6409
 1490TIP3    H125885   6.169   6.205  16.602 -0.4653 -0.1539 -0.6790
 1490TIP3    H225886   6.048   6.138  16.541  0.8124 -0.4423 -2.9555
 1491TIP3   OH225887   2.005   3.712  14.925 -0.6416 -0.0738  0.5532
 1491TIP3    H125888   1.933   3.772  14.947  0.1098  0.8454  0.5278
 1491TIP3    H225889   1.982   3.677  14.839 -1.3780 -0.2872  0.8281
 1492TIP3   OH225890   3.956   5.568   1.206 -0.0856 -0.0791 -0.4102
 1492TIP3    H125891   4.039   5.566   1.160  0.2961 -0.6120  0.2900
 1492TIP3    H225892   3.934   5.661   1.213 -0.3629 -0.0066 -2.0294
 1493TIP3   OH225893   5.718   5.425  15.289  0.2065 -0.3224  0.4389
 1493TIP3    H125894   5.741   5.335  15.310  0.4531 -1.1010 -2.8925
 1493TIP3    H225895   5.800   5.474  15.297 -0.0477 -0.1962  2.8544
 1494TIP3   OH225896   3.893   6.252  17.052  0.0110  0.0131  0.6411
 1494TIP3    H125897   3.809   6.226  17.091 -0.2928 -0.4633 -0.3113
 1494TIP3    H225898   3.884   6.346  17.036 -0.6041 -0.1620 -0.0769
 1495TIP3   OH225899   0.931   2.163  16.767 -0.4970  0.3771  0.3631
 1495TIP3    H125900   0.843   2.202  16.766 -0.3736  0.6831  1.1636
 1495TIP3    H225901   0.956   2.157  16.675 -0.9251  1.2743  0.1893
 1496TIP3   OH225902   5.111   0.449   2.566 -0.0490 -0.2474  0.3759
 1496TIP3    H125903   5.089   0.505   2.641 -1.7196 -2.4887  1.6147
 1496TIP3    H225904   5.155   0.508   2.504  0.9525  1.7467  2.9082
 1497TIP3   OH225905   5.647   5.710  16.247 -0.3452 -0.1390  0.5291
 1497TIP3    H125906   5.718   5.650  16.225 -0.3351  0.9598 -2.7684
 1497TIP3    H225907   5.569   5.655  16.252 -0.1006 -0.6614 -1.0896
 1498TIP3   OH225908   1.033   4.337  17.107  0.1076 -0.0710  0.1079
 1498TIP3    H125909   0.982   4.402  17.058 -0.7546 -1.8026 -1.3415
 1498TIP3    H225910   0.967   4.277  17.142  0.8535  0.1935  1.9789
 1499TIP3   OH225911   1.819   2.924   2.596 -0.5741  0.1976  0.2821
 1499TIP3    H125912   1.732   2.961   2.610 -0.8919 -0.6571  0.5958
 1499TIP3    H225913   1.848   2.961   2.513 -0.8258  1.2574  0.6542
 1500TIP3   OH225914   2.106   0.817   5.905 -1.2555  0.3626 -0.3603
 1500TIP3    H125915   2.145   0.902   5.884 -1.2851 -0.0954 -2.3750
 1500TIP3    H225916   2.181   0.759   5.922 -1.2349  0.7644  0.9712
 1501TIP3   OH225917   3.745   5.335   2.977 -0.0222 -1.1432  0.9791
 1501TIP3    H125918   3.796   5.407   2.939 -1.0866  0.0272  1.7243
 1501TIP3    H225919   3.769   5.259   2.925 -0.0443  0.0561 -0.8490
 1502TIP3   OH225920   0.314   5.929   3.138  0.1064 -0.5096  0.0077
 1502TIP3    H125921   0.357   5.855   3.181  1.6652  0.3298 -0.0493
 1502TIP3    H225922   0.386   5.987   3.113 -0.9369  0.0268 -1.8304
 1503TIP3   OH225923   1.460   0.955  12.891  0.1616 -0.2304  0.0778
 1503TIP3    H125924   1.395   0.886  12.881 -2.2005  1.9204 -0.1575
 1503TIP3    H225925   1.489   0.975  12.802  1.9270 -1.8945  0.2712
 1504TIP3   OH225926   0.642   5.830  11.883  0.3886 -0.4273 -0.2556
 1504TIP3    H125927   0.566   5.881  11.853  0.6921  0.0162 -0.2852
 1504TIP3    H225928   0.715   5.891  11.876  0.6439 -0.6635  0.3531
 1505TIP3   OH225929   0.175   2.721   5.020 -0.1206  0.7734  0.5201
 1505TIP3    H125930   0.164   2.643   4.965  2.8454 -0.2654  1.3424
 1505TIP3    H225931   0.140   2.695   5.105  0.0771  0.6369  0.5593
 1506TIP3   OH225932   5.702   4.353   4.700  0.3309  0.1930 -0.0496
 1506TIP3    H125933   5.778   4.412   4.704 -0.9434  1.7935  1.4199
 1506TIP3    H225934   5.673   4.346   4.791 -1.1718 -0.5281 -0.5688
 1507TIP3   OH225935   0.506   6.093   1.684  0.0281 -0.6698  0.1701
 1507TIP3    H125936   0.526   6.101   1.778  1.1928  1.0961 -0.2089
 1507TIP3    H225937   0.590   6.100   1.641 -0.6538 -0.1124 -1.0912
 1508TIP3   OH225938   4.891   5.656   1.839 -0.2111 -0.6847 -0.1574
 1508TIP3    H125939   4.931   5.731   1.884 -0.3707  0.0977 -1.3074
 1508TIP3    H225940   4.814   5.694   1.795  0.5757 -1.2246 -2.0235
 1509TIP3   OH225941   5.387   6.433  10.745 -0.0810 -0.5078 -0.2143
 1509TIP3    H125942   5.459   6.459  10.687  1.1824 -2.3163  0.4914
 1509TIP3    H225943   5.431   6.399  10.823 -1.7202 -1.2512  0.3948
 1510TIP3   OH225944   4.897   1.945  15.279  0.1795  0.0808 -0.5559
 1510TIP3    H125945   4.964   1.893  15.236 -0.6277 -0.8215 -0.7444
 1510TIP3    H225946   4.856   1.994  15.208  1.4309  1.5652 -0.2824
 1511TIP3   OH225947   2.439   3.792   4.060 -0.8437  0.4161 -0.3736
 1511TIP3    H125948   2.420   3.703   4.090  1.9236  0.0043  0.3251
 1511TIP3    H225949   2.482   3.780   3.975  2.6260  0.7807  1.2196
 1512TIP3   OH225950   5.681   5.661   2.769 -0.7038  0.5129 -0.0306
 1512TIP3    H125951   5.726   5.636   2.688  0.1579  0.3085  0.5067
 1512TIP3    H225952   5.592   5.684   2.741 -0.7772 -0.7334 -0.8821
 1513TIP3   OH225953   3.182   3.613   2.005 -0.3629 -0.0639 -0.3308
 1513TIP3    H125954   3.125   3.618   1.928 -0.8074 -0.1266 -0.0092
 1513TIP3    H225955   3.140   3.671   2.069  0.8488  1.2374 -0.6765
 1514TIP3   OH225956   2.833   5.962   3.234 -0.2721  0.7312 -0.0489
 1514TIP3    H125957   2.824   5.910   3.314  0.4203  0.4133 -0.1762
 1514TIP3    H225958   2.898   5.915   3.182 -0.0570  1.4192 -0.4074
 1515TIP3   OH225959   5.468   4.525   2.421  0.3573  0.5205 -0.2122
 1515TIP3    H125960   5.399   4.530   2.355  0.9665 -1.7678 -1.0499
 1515TIP3    H225961   5.422   4.527   2.504 -0.5399  1.4987 -0.7212
 1516TIP3   OH225962   0.528   1.506  13.359 -0.1119  0.3120 -0.5628
 1516TIP3    H125963   0.464   1.474  13.296  1.3314 -1.7156 -1.0580
 1516TIP3    H225964   0.505   1.598  13.373 -0.7373  0.6770 -3.6890
 1517TIP3   OH225965   2.788   3.326   3.153  0.2136  0.1987 -0.5796
 1517TIP3    H125966   2.762   3.330   3.245 -0.3563 -0.6452 -0.6941
 1517TIP3    H225967   2.883   3.332   3.154  0.1561  1.0699  0.0072
 1518TIP3   OH225968   5.321   4.581  13.271 -0.2506  0.0372  0.0000
 1518TIP3    H125969   5.333   4.627  13.188  3.1891 -0.7658 -0.0501
 1518TIP3    H225970   5.264   4.639  13.322 -0.9013  1.4325 -2.2371
 1519TIP3   OH225971   5.724   5.755  13.321 -0.2691 -0.1435 -0.1998
 1519TIP3    H125972   5.726   5.836  13.271  0.0279  0.0589  0.1389
 1519TIP3    H225973   5.631   5.731  13.324 -0.5015  0.8435  0.7497
 1520TIP3   OH225974   6.648   6.457  16.056  0.3935  0.6348 -0.4336
 1520TIP3    H125975   6.590   6.399  16.105  1.1584  1.6960  1.7520
 1520TIP3    H225976   6.602   6.541  16.054  1.6542  1.3796  0.9860
 1521TIP3   OH225977   2.360   6.124   5.873  0.1189 -0.0605 -0.1221
 1521TIP3    H125978   2.447   6.087   5.857  0.0843 -0.8196  1.3131
 1521TIP3    H225979   2.299   6.059   5.838  0.1084  0.0511 -0.3132
 1522TIP3   OH225980   5.045   4.302  13.384 -0.9166 -0.0987  0.0041
 1522TIP3    H125981   5.131   4.343  13.391 -0.2015 -1.3106 -1.3702
 1522TIP3    H225982   5.037   4.248  13.463 -0.5634  0.2937  0.3060
 1523TIP3   OH225983   2.379   5.499  12.062 -0.3215  0.2691 -0.1000
 1523TIP3    H125984   2.382   5.568  12.129  0.0421  0.7905 -0.6368
 1523TIP3    H225985   2.425   5.425  12.101  1.4131  1.1528 -0.3948
 1524TIP3   OH225986   3.240   5.346  13.076 -0.2305  0.4533  0.0780
 1524TIP3    H125987   3.259   5.256  13.050 -0.6376 -0.1141  1.7340
 1524TIP3    H225988   3.169   5.339  13.139 -0.1013  1.9223  0.4052
 1525TIP3   OH225989   0.987   2.946   0.522 -0.7949  0.0624  0.0144
 1525TIP3    H125990   0.956   2.945   0.612 -0.2501  0.7593  0.2135
 1525TIP3    H225991   1.082   2.934   0.529 -0.8917 -1.0984 -0.5326
 1526TIP3   OH225992   6.387   4.299   4.843 -0.3170 -0.1924  0.3374
 1526TIP3    H125993   6.372   4.392   4.861 -0.3094  0.4340 -2.6565
 1526TIP3    H225994   6.300   4.259   4.852 -1.0260  0.7727 -1.9229
 1527TIP3   OH225995   6.759   4.664   1.565 -0.3141 -0.8737  0.0135
 1527TIP3    H125996   6.678   4.631   1.602  1.1881 -0.6846  3.7859
 1527TIP3    H225997   6.735   4.746   1.522 -2.1775 -1.0315  0.7336
 1528TIP3   OH225998   2.733   3.697   2.762 -0.2978 -0.0741 -0.2609
 1528TIP3    H125999   2.728   3.620   2.819 -0.5799 -0.9049 -1.3913
 1528TIP3    H226000   2.649   3.741   2.773 -0.6469 -0.6493 -0.6019
 1529TIP3   OH226001   4.606   1.270  11.198  0.6758  0.5382  0.3284
 1529TIP3    H126002   4.532   1.274  11.258  1.5786 -0.8870  1.5547
 1529TIP3    H226003   4.586   1.196  11.141  0.4419  1.1029 -0.3459
 1530TIP3   OH226004   4.322   2.387   6.099 -0.3913  0.0729 -0.1070
 1530TIP3    H126005   4.344   2.301   6.135 -1.1263  0.0685  0.3567
 1530TIP3    H226006   4.369   2.450   6.153 -2.4929  0.1395  1.7171
 1531TIP3   OH226007   0.545   1.771  14.677  0.5654  0.1084 -0.7720
 1531TIP3    H126008   0.496   1.732  14.604  0.1889 -0.9635  0.0352
 1531TIP3    H226009   0.525   1.864  14.672  2.8313  0.5057 -3.7587
 1532TIP3   OH226010   5.735   1.981   5.076 -0.9109 -0.1059 -0.1427
 1532TIP3    H126011   5.771   2.060   5.037 -0.9349 -0.7045 -1.4197
 1532TIP3    H226012   5.767   1.981   5.166  0.4603  0.4800 -0.6257
 1533TIP3   OH226013   1.320   0.021   3.271 -0.1561 -0.0540 -0.7143
 1533TIP3    H126014   1.327  -0.054   3.212 -1.4221 -0.1511 -0.7614
 1533TIP3    H226015   1.331  -0.016   3.358  3.8218  0.3854 -0.9441
 1534TIP3   OH226016   1.962   4.208   5.825  0.0142  0.1610  0.2022
 1534TIP3    H126017   1.924   4.228   5.910  1.7517  0.2179  0.9796
 1534TIP3    H226018   2.005   4.124   5.837  0.8252  0.4771 -0.4207
 1535TIP3   OH226019   2.129   3.537   2.024 -0.0165  0.3734 -0.3160
 1535TIP3    H126020   2.045   3.519   1.981  0.4031 -0.9227 -0.6207
 1535TIP3    H226021   2.105   3.568   2.111 -0.8977  3.6074 -1.6146
 1536TIP3   OH226022   3.114   2.199   1.214  0.0689 -0.0820 -0.4432
 1536TIP3    H126023   3.038   2.145   1.238 -0.7012  0.6703 -1.1606
 1536TIP3    H226024   3.179   2.136   1.183 -0.4122 -0.7017 -0.2083
 1537TIP3   OH226025   1.898   3.748   6.298 -0.2487  0.5520 -0.5481
 1537TIP3    H126026   1.989   3.770   6.275 -0.6301  1.8724 -0.8444
 1537TIP3    H226027   1.872   3.815   6.361 -1.9263  1.9127 -2.6046
 1538TIP3   OH226028   2.181   5.542   4.706 -0.5635 -0.1127  0.6577
 1538TIP3    H126029   2.181   5.459   4.754  2.1504 -0.9411 -0.6654
 1538TIP3    H226030   2.248   5.595   4.750  0.3835 -0.0622 -0.8034
 1539TIP3   OH226031   1.832   0.471  15.091 -0.1679 -0.2849 -0.4402
 1539TIP3    H126032   1.737   0.463  15.104  0.1368 -2.7650  0.6878
 1539TIP3    H226033   1.865   0.502  15.175  0.3321 -2.7961  0.3561
 1540TIP3   OH226034   5.578   6.407   1.310  0.1411  0.2291  0.4101
 1540TIP3    H126035   5.580   6.502   1.321  0.7200  0.2406  0.2467
 1540TIP3    H226036   5.614   6.373   1.391 -1.9003  0.0757  1.2662
 1541TIP3   OH226037   5.733   5.888   4.280  0.1101 -0.0456  0.1306
 1541TIP3    H126038   5.695   5.868   4.194 -1.4461  0.0793  0.7730
 1541TIP3    H226039   5.692   5.970   4.306  0.9402  0.1732  0.7942
 1542TIP3   OH226040   5.702   2.669   5.771 -0.0434  0.3690 -0.2706
 1542TIP3    H126041   5.673   2.740   5.828  0.1229  0.2526 -0.0413
 1542TIP3    H226042   5.699   2.707   5.683 -0.0816  0.6195 -0.1623
 1543TIP3   OH226043   2.392   0.621   1.141 -0.1858 -0.7090 -0.4894
 1543TIP3    H126044   2.363   0.707   1.109  0.2132 -0.6056 -0.5719
 1543TIP3    H226045   2.339   0.606   1.219  0.0045 -0.2207 -0.2671
 1544TIP3   OH226046   0.931   4.604   2.485  0.0880  0.1947  0.4765
 1544TIP3    H126047   1.001   4.549   2.520 -0.0367  0.8769  1.8230
 1544TIP3    H226048   0.861   4.599   2.550  0.0565  1.8802  0.6115
 1545TIP3   OH226049   3.948   0.854   5.627 -0.1795  0.5452  0.0193
 1545TIP3    H126050   3.870   0.909   5.631 -1.0851 -0.6690 -0.8565
 1545TIP3    H226051   3.958   0.820   5.716 -1.0820  0.1119 -0.0425
 1546TIP3   OH226052   5.423   5.617  17.198  0.7038  0.0379 -0.3072
 1546TIP3    H126053   5.373   5.654  17.126 -0.7363 -1.8995 -0.3687
 1546TIP3    H226054   5.446   5.691  17.253 -0.0260  1.2714 -1.6443
 1547TIP3   OH226055   0.786   4.151  16.722  0.0515 -0.1482 -0.4968
 1547TIP3    H126056   0.840   4.187  16.652 -0.1540 -1.1008 -1.1648
 1547TIP3    H226057   0.790   4.056  16.709 -0.3205 -0.3162  0.5366
 1548TIP3   OH226058   4.479   2.150   1.841 -0.3723  0.2073  0.2310
 1548TIP3    H126059   4.419   2.137   1.767  1.5069 -1.1233 -1.1136
 1548TIP3    H226060   4.544   2.212   1.808 -1.0736  1.7996  1.7445
 1549TIP3   OH226061   1.858   0.369  15.924  0.0070 -0.3753 -0.1269
 1549TIP3    H126062   1.927   0.311  15.955  0.6020 -0.0724 -0.8754
 1549TIP3    H226063   1.827   0.328  15.842 -1.1086 -0.8298  0.5106
 1550TIP3   OH226064   5.713   0.459   2.826  0.4475 -0.5874 -0.0401
 1550TIP3    H126065   5.623   0.428   2.821  0.4777 -0.6280 -0.3589
 1550TIP3    H226066   5.759   0.411   2.758  0.4719  0.2184 -0.6017
 1551TIP3   OH226067   2.793   1.344   2.513 -0.3063  0.5961  0.0943
 1551TIP3    H126068   2.778   1.274   2.577 -0.1614 -1.2243 -1.8253
 1551TIP3    H226069   2.830   1.300   2.437  0.2591  2.8448 -0.9843
 1552TIP3   OH226070   0.831   5.820   1.768  0.4607  0.0803 -0.2630
 1552TIP3    H126071   0.889   5.799   1.695  1.1399 -0.4553  0.4219
 1552TIP3    H226072   0.766   5.880   1.731  1.3556  0.5571 -1.0700
 1553TIP3   OH226073   0.834   2.360   1.357 -0.2696 -0.5508 -0.0274
 1553TIP3    H126074   0.861   2.379   1.447 -2.0551  0.8788  0.2331
 1553TIP3    H226075   0.889   2.418   1.304 -2.2160  1.8482  0.4596
 1554TIP3   OH226076   3.403   2.233  15.397  0.4695  0.2878  0.1680
 1554TIP3    H126077   3.346   2.161  15.423 -0.5673  1.5516  1.4471
 1554TIP3    H226078   3.365   2.266  15.315 -0.0114  0.4363  0.4526
 1555TIP3   OH226079   5.068   1.380   1.223 -0.2697  0.5470  0.1051
 1555TIP3    H126080   5.140   1.442   1.214 -1.2066  1.7206  0.7049
 1555TIP3    H226081   5.065   1.359   1.316  1.9500 -2.7215 -0.4466
 1556TIP3   OH226082   6.566   5.674  14.782 -0.0534 -0.2656  0.5135
 1556TIP3    H126083   6.512   5.672  14.861 -0.0067 -0.4466  0.5395
 1556TIP3    H226084   6.593   5.583  14.769  0.5990 -0.1037  0.7424
 1557TIP3   OH226085   4.077   2.606  14.904  0.0343 -0.2504 -0.1397
 1557TIP3    H126086   4.031   2.599  14.987  0.1924  1.2000  0.0753
 1557TIP3    H226087   4.041   2.684  14.862  0.8668 -0.2394 -0.8673
 1558TIP3   OH226088   4.528   1.061  14.032 -0.3518  0.4296 -0.6436
 1558TIP3    H126089   4.609   1.078  13.983  0.5765 -3.0252 -0.4581
 1558TIP3    H226090   4.557   1.047  14.122 -1.3062  0.3306 -0.3439
 1559TIP3   OH226091   4.975   0.921  12.456  0.7178 -0.1709  0.3874
 1559TIP3    H126092   4.934   0.994  12.502  0.2553 -1.1339  1.5482
 1559TIP3    H226093   5.043   0.961  12.403 -1.3892  1.4135 -1.1843
 1560TIP3   OH226094   6.134   5.845  16.296 -0.2833 -0.7459 -0.0017
 1560TIP3    H126095   6.052   5.887  16.273 -0.1930  0.0266  1.0833
 1560TIP3    H226096   6.130   5.831  16.390  1.9032  1.6813  0.5151
 1561TIP3   OH226097   0.400   2.850  17.176  0.2174 -0.6953 -0.0931
 1561TIP3    H126098   0.389   2.926  17.119  2.9571 -0.0886  0.0871
 1561TIP3    H226099   0.353   2.871  17.256  0.6459  0.6695 -0.1982
 1562TIP3   OH226100   3.529   1.444  13.046  0.0815  0.2589 -0.4892
 1562TIP3    H126101   3.475   1.509  13.090  1.3528  0.6902  0.4654
 1562TIP3    H226102   3.475   1.413  12.973 -2.7229 -1.6315  2.2546
 1563TIP3   OH226103   1.227   6.074   3.447  0.1706 -0.1385 -0.2416
 1563TIP3    H126104   1.229   6.169   3.437  1.5987  0.0724  1.7218
 1563TIP3    H226105   1.319   6.048   3.447 -0.0194 -1.0268  3.1971
 1564TIP3   OH226106   4.967   5.614  16.457 -0.8125 -0.3313 -0.5855
 1564TIP3    H126107   4.976   5.703  16.424 -0.2546  0.0674  0.6071
 1564TIP3    H226108   4.906   5.622  16.530 -1.1302 -1.0024 -0.7735
 1565TIP3   OH226109   4.656   5.059  12.754 -0.4669 -0.3110 -0.0366
 1565TIP3    H126110   4.617   5.062  12.842 -0.5395 -2.9277  0.0576
 1565TIP3    H226111   4.637   5.145  12.716 -2.3374  0.0728  1.6966
 1566TIP3   OH226112   0.471   1.955  11.585 -0.2110  0.3957 -0.0070
 1566TIP3    H126113   0.380   1.981  11.593  0.2211  1.8386  0.3642
 1566TIP3    H226114   0.504   2.003  11.510 -0.2807 -1.7157 -1.4414
 1567TIP3   OH226115   2.824   6.505  15.045  0.0356  0.5555 -0.2856
 1567TIP3    H126116   2.815   6.418  15.084  0.2166 -0.2271 -1.9665
 1567TIP3    H226117   2.806   6.493  14.952  2.0996  1.9277 -0.9145
 1568TIP3   OH226118   3.589   6.709  14.386 -0.2598  0.7256 -0.2991
 1568TIP3    H126119   3.525   6.764  14.433  0.0766  1.2561 -0.4548
 1568TIP3    H226120   3.664   6.767  14.371 -0.0413  0.3247 -0.7792
 1569TIP3   OH226121   6.118   1.977  15.311 -0.0917 -0.4073 -0.4074
 1569TIP3    H126122   6.184   1.958  15.378  0.0793 -0.1278 -0.4961
 1569TIP3    H226123   6.108   1.895  15.263  2.6607  0.4394 -2.5751
 1570TIP3   OH226124   0.721   4.479   3.282 -0.0589  0.5288 -0.6477
 1570TIP3    H126125   0.804   4.466   3.328 -0.3305 -3.3712 -1.0449
 1570TIP3    H226126   0.669   4.533   3.341  1.9500  1.1404  0.6070
 1571TIP3   OH226127   2.122   2.184   5.967 -0.0534  0.0220  0.3561
 1571TIP3    H126128   2.191   2.241   5.999  1.0711 -0.4763 -1.1789
 1571TIP3    H226129   2.157   2.095   5.978 -1.0498 -0.3192  0.9573
 1572TIP3   OH226130   5.879   5.925  16.280  0.4611  0.1069 -0.0496
 1572TIP3    H126131   5.813   5.861  16.254  0.1294  0.8281 -0.9960
 1572TIP3    H226132   5.868   5.935  16.375  0.1412 -0.8079  0.0091
 1573TIP3   OH226133   6.217   0.737   3.507 -0.2749 -0.0051  0.4372
 1573TIP3    H126134   6.195   0.809   3.568  0.8359 -0.3629  1.2781
 1573TIP3    H226135   6.202   0.774   3.420  1.3720  1.6338  0.8250
 1574TIP3   OH226136   2.008   0.701   1.409  0.7044 -0.1992 -0.6450
 1574TIP3    H126137   1.946   0.756   1.361 -0.4980 -0.4345  0.6189
 1574TIP3    H226138   2.039   0.757   1.480 -2.1432 -1.7491  1.9586
 1575TIP3   OH226139   0.244   0.951  12.083  0.3827  0.0170 -0.4624
 1575TIP3    H126140   0.318   0.898  12.052 -0.1239 -0.4029 -0.9574
 1575TIP3    H226141   0.263   0.967  12.175 -0.2139 -2.3277  0.0969
 1576TIP3   OH226142   1.632   0.411   4.457 -0.5460 -0.2465 -0.0350
 1576TIP3    H126143   1.668   0.492   4.492 -0.7199 -0.7253  1.2577
 1576TIP3    H226144   1.559   0.389   4.515 -0.7804 -1.0953 -0.6333
 1577TIP3   OH226145   5.009   6.532  12.408  0.3962 -0.0525  0.1499
 1577TIP3    H126146   5.067   6.603  12.383 -0.4054  0.5956  0.1119
 1577TIP3    H226147   4.990   6.486  12.326 -0.2439  0.5715 -0.0604
 1578TIP3   OH226148   1.320   1.812   5.425  0.1660 -0.2195  0.1373
 1578TIP3    H126149   1.236   1.828   5.469  0.2310  0.1153  0.1410
 1578TIP3    H226150   1.384   1.810   5.497  0.0018 -1.6628  0.2578
 1579TIP3   OH226151   5.895   6.623  13.248 -0.6203 -0.1590 -0.2053
 1579TIP3    H126152   5.939   6.539  13.264 -1.2114 -0.4179  0.1095
 1579TIP3    H226153   5.811   6.598  13.209 -1.1836  0.2414  0.7454
 1580TIP3   OH226154   4.666   6.587  14.558  0.1850 -0.1591  0.3765
 1580TIP3    H126155   4.600   6.546  14.614 -1.3903  1.1776 -0.4864
 1580TIP3    H226156   4.640   6.678  14.551 -0.1378 -0.4574 -3.2110
 1581TIP3   OH226157   2.548   4.332   0.115 -0.2060  0.0939  0.1227
 1581TIP3    H126158   2.529   4.238   0.114  1.7820 -0.3487  1.3558
 1581TIP3    H226159   2.462   4.373   0.106 -1.1551 -1.8360 -0.0466
 1582TIP3   OH226160   1.709   6.105   3.003  0.0766  0.4287 -0.7250
 1582TIP3    H126161   1.702   6.105   3.099  2.2620 -0.3298 -0.5392
 1582TIP3    H226162   1.703   6.197   2.979  1.2129  0.7979  0.3098
 1583TIP3   OH226163   6.201   6.416  12.161 -0.2813 -0.1542  0.2355
 1583TIP3    H126164   6.157   6.434  12.244  0.1255  2.8660 -0.1543
 1583TIP3    H226165   6.135   6.436  12.094 -0.1599 -1.2625 -0.2339
 1584TIP3   OH226166   1.078   2.042  15.574 -0.2528 -0.6143  0.0701
 1584TIP3    H126167   1.127   1.973  15.529 -1.1070 -0.4171 -1.2006
 1584TIP3    H226168   1.079   2.016  15.666  0.7599 -1.5048 -0.1823
 1585TIP3   OH226169   1.892   2.082  14.937 -0.1250 -0.2017 -0.3871
 1585TIP3    H126170   1.823   2.020  14.961  0.0730 -0.2121  0.1608
 1585TIP3    H226171   1.855   2.168  14.956  0.9194 -0.3106  2.2951
 1586TIP3   OH226172   6.425   5.550  13.381 -0.1387  0.0058  0.3706
 1586TIP3    H126173   6.346   5.537  13.434 -0.1374  0.8233  0.5704
 1586TIP3    H226174   6.491   5.580  13.443  0.3840 -0.8342  0.2344
 1587TIP3   OH226175   3.153   3.242  12.838 -0.0563  0.2275 -0.3122
 1587TIP3    H126176   3.116   3.243  12.926 -0.1248 -0.0646 -0.3345
 1587TIP3    H226177   3.245   3.265  12.851 -0.3307  1.3033 -0.3006
 1588TIP3   OH226178   1.903   3.899   3.282  0.2209 -0.1423 -0.2647
 1588TIP3    H126179   1.878   3.808   3.268 -1.4565  0.4945 -1.4999
 1588TIP3    H226180   1.913   3.935   3.194 -0.3998  1.2007  0.1986
 1589TIP3   OH226181   0.748   1.586   5.487 -0.0771 -0.3603  0.3812
 1589TIP3    H126182   0.678   1.568   5.549 -0.3724  1.4648  0.6058
 1589TIP3    H226183   0.707   1.639   5.419  0.6697 -0.8199 -0.4369
 1590TIP3   OH226184   4.134   1.512   0.508 -0.7004 -0.2089  0.8961
 1590TIP3    H126185   4.130   1.439   0.569 -1.0200 -0.7645  0.2165
 1590TIP3    H226186   4.058   1.500   0.451  0.1533 -0.2698 -0.2490
 1591TIP3   OH226187   3.334   2.209   5.918  0.5301  0.0795  0.1325
 1591TIP3    H126188   3.421   2.214   5.959  1.2913 -0.0549 -1.4139
 1591TIP3    H226189   3.348   2.155   5.840 -0.2186  2.6126 -1.8484
 1592TIP3   OH226190   3.207   2.858  11.852  0.0837  0.0302 -0.0765
 1592TIP3    H126191   3.205   2.858  11.757 -0.3790 -0.0452 -0.0674
 1592TIP3    H226192   3.299   2.840  11.874  0.4947  1.5582 -0.5015
 1593TIP3   OH226193   0.511   3.311   2.058 -0.1429 -0.1208 -0.8382
 1593TIP3    H126194   0.519   3.228   2.011  0.4955  0.4441 -1.7479
 1593TIP3    H226195   0.516   3.287   2.150  0.9898 -1.0061 -1.1190
 1594TIP3   OH226196   2.414   1.182   2.820  0.4192 -0.2552  0.0477
 1594TIP3    H126197   2.455   1.262   2.855 -1.3839  1.8021 -2.3594
 1594TIP3    H226198   2.432   1.185   2.726 -0.4362 -2.2598 -0.2067
 1595TIP3   OH226199   4.697   4.061   1.315  0.2388  0.3218 -0.3435
 1595TIP3    H126200   4.716   4.087   1.405 -2.0356  2.3317 -0.4150
 1595TIP3    H226201   4.764   4.105   1.263  0.2993  0.8537  0.1759
 1596TIP3   OH226202   1.212   6.534  10.925 -0.3331  0.3658  0.4612
 1596TIP3    H126203   1.257   6.454  10.953 -0.6121  0.4799  1.2630
 1596TIP3    H226204   1.176   6.514  10.839  0.3682 -0.0710  0.2655
 1597TIP3   OH226205   0.248   5.811  12.660  0.4379  0.2798  0.4636
 1597TIP3    H126206   0.309   5.883  12.678  0.3420  0.1268  1.4107
 1597TIP3    H226207   0.196   5.841  12.586 -0.3765  1.6594  1.5852
 1598TIP3   OH226208   6.598   0.714  11.460  0.0706 -0.0043  0.2151
 1598TIP3    H126209   6.575   0.661  11.536 -0.5157  0.7034  0.5221
 1598TIP3    H226210   6.550   0.674  11.387 -0.1979 -0.0237  0.4064
 1599TIP3   OH226211   0.573   5.235  14.429  0.1048  0.3213  0.3239
 1599TIP3    H126212   0.599   5.261  14.341 -1.9113  2.5300  0.3447
 1599TIP3    H226213   0.493   5.183  14.416  0.2265  0.0135  0.7985
 1600TIP3   OH226214   6.376   5.082   0.223  0.6602  0.3733 -0.1029
 1600TIP3    H126215   6.468   5.083   0.251  1.2430  1.2011 -1.9504
 1600TIP3    H226216   6.378   5.045   0.135 -0.6275  1.5642 -0.6551
 1601TIP3   OH226217   3.602   0.677  12.905  0.4617 -0.2180  0.0244
 1601TIP3    H126218   3.646   0.754  12.940  0.4396 -0.1459 -0.1045
 1601TIP3    H226219   3.513   0.706  12.887 -0.0772 -0.7631  1.6867
 1602TIP3   OH226220   2.854   3.453  13.336  0.4062  0.9819 -0.1864
 1602TIP3    H126221   2.791   3.458  13.408 -0.3931  0.2237 -0.8175
 1602TIP3    H226222   2.861   3.359  13.318  0.4448  1.1882 -1.2364
 1603TIP3   OH226223   2.618   5.673  13.686  0.0814  0.4998  0.2220
 1603TIP3    H126224   2.590   5.582  13.693  1.1191  0.1679  0.1907
 1603TIP3    H226225   2.672   5.687  13.764  3.1548 -0.1072 -1.6972
 1604TIP3   OH226226   4.480   3.375   5.960 -0.3226  0.3097 -0.6177
 1604TIP3    H126227   4.456   3.414   6.044  0.1332 -0.3713 -0.1696
 1604TIP3    H226228   4.575   3.365   5.964 -0.4479 -0.9646 -0.6745
 1605TIP3   OH226229   3.273   4.287  12.654  0.4851 -0.3092 -0.1524
 1605TIP3    H126230   3.324   4.221  12.702 -2.0447 -0.9355  1.8063
 1605TIP3    H226231   3.206   4.237  12.607 -0.2607  0.7057 -0.1942
 1606TIP3   OH226232   1.200   0.272  13.075 -0.2044 -0.3467 -0.2588
 1606TIP3    H126233   1.115   0.287  13.034 -0.0686 -0.5291 -0.6095
 1606TIP3    H226234   1.260   0.260  13.001  0.3242  0.8439 -0.0371
 1607TIP3   OH226235   0.785   6.308   1.508 -0.4119 -0.4062 -0.2948
 1607TIP3    H126236   0.742   6.364   1.442 -2.4872  0.6725  1.8795
 1607TIP3    H226237   0.819   6.370   1.572  0.8958 -1.4882  0.0574
 1608TIP3   OH226238   1.993   5.884  13.720 -0.6607 -0.3421 -0.0797
 1608TIP3    H126239   2.056   5.822  13.756 -2.0292 -1.6886  0.0197
 1608TIP3    H226240   1.947   5.836  13.652 -0.1202  1.3017 -1.6378
 1609TIP3   OH226241   1.745   1.345   3.590 -0.5985  0.3560  0.1003
 1609TIP3    H126242   1.727   1.356   3.496 -1.0969 -1.2020 -0.0009
 1609TIP3    H226243   1.831   1.386   3.603  0.5623 -1.4693 -1.5108
 1610TIP3   OH226244   2.176   3.570   3.516 -0.0547  0.2650 -0.8245
 1610TIP3    H126245   2.191   3.623   3.438  1.2629  2.1931  0.6963
 1610TIP3    H226246   2.247   3.594   3.575 -1.7884 -0.1846  1.4958
 1611TIP3   OH226247   1.869   2.173  14.105  0.6467  0.3078 -0.0959
 1611TIP3    H126248   1.847   2.254  14.059  0.6570  0.8478  0.8379
 1611TIP3    H226249   1.843   2.189  14.196  0.0840 -0.9599 -0.0169
 1612TIP3   OH226250   3.440   3.469   1.031 -0.2366  0.1387  0.6943
 1612TIP3    H126251   3.519   3.499   0.986  0.2772 -1.4268  0.5306
 1612TIP3    H226252   3.372   3.531   1.003  0.3781  0.0300 -1.1259
 1613TIP3   OH226253   3.746   3.560  13.985  0.2108  0.5884  0.0873
 1613TIP3    H126254   3.707   3.631  13.934  1.7331  1.1069 -0.3837
 1613TIP3    H226255   3.708   3.570  14.073 -1.0239  0.8190 -0.4663
 1614TIP3   OH226256   5.711   3.856  11.930  0.0153 -0.0070 -0.0999
 1614TIP3    H126257   5.785   3.916  11.925  2.2619 -2.7913 -1.8931
 1614TIP3    H226258   5.640   3.908  11.967  2.6520  2.9347  1.0093
 1615TIP3   OH226259   4.767   6.308   2.418  0.0371 -0.2620 -0.3216
 1615TIP3    H126260   4.751   6.302   2.512 -0.4085 -0.1797 -0.3909
 1615TIP3    H226261   4.720   6.232   2.381  2.0931 -1.6121 -0.2493
 1616TIP3   OH226262   3.520   3.005   5.833  0.4798  0.0358  0.3047
 1616TIP3    H126263   3.561   2.941   5.891 -0.7246  0.5400  1.7803
 1616TIP3    H226264   3.428   2.979   5.831  0.6755 -0.5058 -2.1462
 1617TIP3   OH226265   2.903   5.629  15.576  0.1031  0.7455 -0.3647
 1617TIP3    H126266   2.903   5.670  15.663 -0.9206 -0.0037  0.0020
 1617TIP3    H226267   2.822   5.659  15.536  0.1833  0.4502 -0.7477
 1618TIP3   OH226268   1.402   1.377   1.126 -0.3155  0.2642  0.1334
 1618TIP3    H126269   1.447   1.453   1.162  1.7283 -1.4355  1.2609
 1618TIP3    H226270   1.445   1.360   1.042  0.5541 -0.7763  0.7686
 1619TIP3   OH226271   3.115   2.185  14.831  0.5522 -0.2158  0.1641
 1619TIP3    H126272   3.164   2.104  14.817  0.8439  0.3004 -1.9140
 1619TIP3    H226273   3.059   2.193  14.755  1.7539  2.3947 -0.4824
 1620TIP3   OH226274   3.774   1.622   3.876  0.2871  0.4600  0.2453
 1620TIP3    H126275   3.688   1.626   3.835 -0.3873 -1.7076  1.3407
 1620TIP3    H226276   3.760   1.659   3.963  0.8308  1.5415 -0.1238
 1621TIP3   OH226277   5.426   5.578  12.732 -0.3078  0.4407  0.0981
 1621TIP3    H126278   5.444   5.618  12.647 -0.5096  0.5575  0.1107
 1621TIP3    H226279   5.331   5.583  12.741 -0.1518  1.8378  1.0234
 1622TIP3   OH226280   6.195   3.981   4.722 -0.0692  0.3087 -0.0662
 1622TIP3    H126281   6.235   4.060   4.685  1.8692 -0.7336 -0.3158
 1622TIP3    H226282   6.233   3.909   4.670 -0.5085 -0.8879  1.2417
 1623TIP3   OH226283   6.273   0.025  11.429 -0.1970  0.6109 -0.4033
 1623TIP3    H126284   6.307   0.003  11.342  0.2436  0.0552 -0.0941
 1623TIP3    H226285   6.182   0.050  11.414 -0.8756 -1.8949 -0.7174
 1624TIP3   OH226286   0.016   4.375  14.229  0.2119  0.2391 -0.5828
 1624TIP3    H126287   0.094   4.342  14.273  0.7565  0.0156 -1.7197
 1624TIP3    H226288   0.002   4.462  14.267  1.5673  0.6764 -1.0521
 1625TIP3   OH226289   0.685   1.575  13.731  0.4751  0.5864 -0.5213
 1625TIP3    H126290   0.768   1.566  13.777 -0.0315  3.9843  1.2371
 1625TIP3    H226291   0.710   1.590  13.640  1.9358  3.0332  0.2156
 1626TIP3   OH226292   5.760   0.461   5.577 -0.0813 -0.4925  0.0792
 1626TIP3    H126293   5.758   0.375   5.618 -0.7591 -0.4279  0.1856
 1626TIP3    H226294   5.821   0.512   5.630 -1.4980 -0.1890  1.4400
 1627TIP3   OH226295   5.414   6.251  16.367 -0.1466  0.3306  0.0355
 1627TIP3    H126296   5.395   6.329  16.419 -0.8646  0.2549 -0.1023
 1627TIP3    H226297   5.339   6.193  16.383  0.2785 -0.2386 -0.0307
 1628TIP3   OH226298   0.088   3.716  14.470  0.1057  0.5994 -0.0089
 1628TIP3    H126299   0.140   3.780  14.518 -0.7518 -0.4218  2.3711
 1628TIP3    H226300  -0.003   3.741  14.487 -0.2534  1.2724 -2.6092
 1629TIP3   OH226301   2.002   2.937  16.703  0.1075  0.0138 -0.6382
 1629TIP3    H126302   2.030   2.927  16.613  1.2471 -0.8047 -0.1948
 1629TIP3    H226303   2.057   2.877  16.753 -1.3031 -0.4194  0.4551
 1630TIP3   OH226304   5.160   3.889   3.200  0.2262 -0.4556 -0.1116
 1630TIP3    H126305   5.143   3.983   3.206 -1.3817 -0.8196  1.4397
 1630TIP3    H226306   5.250   3.883   3.168  0.9196  1.6116  1.3742
 1631TIP3   OH226307   1.418   1.524   2.619  0.3224 -0.6188 -0.1445
 1631TIP3    H126308   1.487   1.501   2.681  0.1507 -0.8490 -0.0394
 1631TIP3    H226309   1.376   1.601   2.657  0.9607 -0.0654 -0.5463
 1632TIP3   OH226310   0.396   0.207   1.062  0.0596  0.0329 -0.7036
 1632TIP3    H126311   0.458   0.161   1.118 -1.7677 -0.5929  0.8716
 1632TIP3    H226312   0.383   0.149   0.988  2.2035  0.6920 -1.6447
 1633TIP3   OH226313   3.988   6.099  15.994 -0.6593  0.7294  0.3469
 1633TIP3    H126314   3.957   6.163  16.058  1.4407  0.1361  1.9941
 1633TIP3    H226315   4.001   6.019  16.044 -0.2031 -0.0990 -1.0791
 1634TIP3   OH226316   4.652   5.248   5.949  0.0297 -0.0686 -0.1495
 1634TIP3    H126317   4.660   5.237   6.043  0.7721 -3.5866 -0.5424
 1634TIP3    H226318   4.561   5.224   5.930  0.4065 -1.2302 -0.5260
 1635TIP3   OH226319   1.482   1.597   4.148 -0.6823  0.0102 -0.0808
 1635TIP3    H126320   1.551   1.664   4.147  0.4502 -1.1170  1.0204
 1635TIP3    H226321   1.403   1.646   4.171  0.1158  0.9972  0.6300
 1636TIP3   OH226322   5.185   5.911  16.004  0.0517  0.2627  0.4118
 1636TIP3    H126323   5.227   5.981  15.954  1.7211  0.0315  1.4587
 1636TIP3    H226324   5.091   5.925  15.991  0.2939  3.4713  1.6688
 1637TIP3   OH226325   1.059   6.363  15.696 -0.3593 -0.1218 -0.9314
 1637TIP3    H126326   1.101   6.421  15.632  0.1182 -0.1271 -0.6271
 1637TIP3    H226327   1.107   6.378  15.777  0.6513 -1.9380 -1.1668
 1638TIP3   OH226328   4.481   4.952   3.278 -0.2206  0.0362 -0.2393
 1638TIP3    H126329   4.416   4.950   3.208 -0.5449  0.7469  0.0349
 1638TIP3    H226330   4.476   5.041   3.313  2.3884  0.7672 -1.6311
 1639TIP3   OH226331   5.570   3.031   4.499 -0.3290  0.0967 -0.4791
 1639TIP3    H126332   5.531   3.116   4.517 -0.2640  0.0124  0.0736
 1639TIP3    H226333   5.507   2.967   4.533 -0.2919 -0.0689 -0.7176
 1640TIP3   OH226334   4.062   6.523   3.604 -0.3350 -0.2199  0.2683
 1640TIP3    H126335   4.117   6.445   3.601  3.4258  2.3005  1.0486
 1640TIP3    H226336   4.107   6.587   3.548 -3.3299  1.4564 -0.3809
 1641TIP3   OH226337   1.080   5.406   5.574 -0.3630 -0.3299  0.3159
 1641TIP3    H126338   1.124   5.405   5.489 -1.3868  0.0662 -0.2307
 1641TIP3    H226339   1.046   5.317   5.584 -0.8745 -0.1753 -0.0304
 1642TIP3   OH226340   6.024   0.010   0.091  0.4045  0.1127 -0.4472
 1642TIP3    H126341   6.028  -0.064   0.152  0.6217 -0.0893 -0.7006
 1642TIP3    H226342   6.116   0.028   0.070  0.3581  0.5740 -0.2449
 1643TIP3   OH226343   4.764   4.344  14.332 -0.0346 -0.4567  0.0865
 1643TIP3    H126344   4.816   4.342  14.412  0.2647  0.3839 -0.0813
 1643TIP3    H226345   4.826   4.322  14.262 -0.2837 -1.1413  0.0810
 1644TIP3   OH226346   5.709   2.748   5.501 -0.1001  0.4315  0.1356
 1644TIP3    H126347   5.729   2.840   5.517  0.0261  0.1944  1.4606
 1644TIP3    H226348   5.746   2.729   5.415 -2.1824  2.2103 -1.1771
 1645TIP3   OH226349   1.674   3.478  15.280 -0.4475  0.1645  0.0550
 1645TIP3    H126350   1.638   3.407  15.332  0.7468 -1.2263 -0.9852
 1645TIP3    H226351   1.598   3.512  15.231 -0.9739 -0.5486  0.3664
 1646TIP3   OH226352   1.948   1.788  11.097  0.3702  0.0767  0.4941
 1646TIP3    H126353   1.891   1.735  11.152  1.5102 -1.6453  0.0521
 1646TIP3    H226354   1.960   1.737  11.017  4.2959 -0.7020  1.4553
 1647TIP3   OH226355   5.454   5.421   0.358 -0.1991 -0.6153  0.1999
 1647TIP3    H126356   5.490   5.419   0.270 -2.6825 -0.7060 -0.8758
 1647TIP3    H226357   5.424   5.512   0.369  0.7924 -0.4024  1.2616
 1648TIP3   OH226358   5.235   3.725  15.691 -0.4557  0.0210 -0.5643
 1648TIP3    H126359   5.217   3.742  15.598 -0.0156  0.8754 -0.5017
 1648TIP3    H226360   5.179   3.651  15.713 -0.8655  0.0677 -1.4088
 1649TIP3   OH226361   1.981   0.503  12.931 -0.8845 -0.1492  0.1538
 1649TIP3    H126362   1.969   0.410  12.912  0.4981 -0.3924  0.4421
 1649TIP3    H226363   1.895   0.542  12.916 -0.7984 -0.9913 -2.6727
 1650TIP3   OH226364   5.113   2.844  13.217 -0.0651 -0.2930 -0.4060
 1650TIP3    H126365   5.150   2.817  13.133  2.0291 -1.0833  0.7341
 1650TIP3    H226366   5.076   2.765  13.255 -2.1959  0.3208 -1.1386
 1651TIP3   OH226367   1.355   2.504  15.904 -0.3213 -0.6900  0.7044
 1651TIP3    H126368   1.372   2.425  15.853  1.0783 -0.0852  0.1842
 1651TIP3    H226369   1.442   2.536  15.928 -0.8832  0.4616  1.2590
 1652TIP3   OH226370   1.503   4.914   4.568  0.1922  0.0945 -0.0694
 1652TIP3    H126371   1.546   4.999   4.566  0.9080 -0.2328  0.8217
 1652TIP3    H226372   1.575   4.851   4.567 -0.2759 -0.4639  0.8550
 1653TIP3   OH226373   5.915   4.304   3.216  0.0447 -0.1178 -0.0814
 1653TIP3    H126374   5.850   4.323   3.284 -1.1281 -0.1213 -1.1700
 1653TIP3    H226375   5.905   4.375   3.152  0.7585 -0.3971 -0.5163
 1654TIP3   OH226376   2.595   2.957   5.838  0.1284  0.2694  0.2417
 1654TIP3    H126377   2.657   2.899   5.882  0.8016  0.3066 -0.6541
 1654TIP3    H226378   2.646   3.003   5.772 -0.5511  1.3750  0.4616
 1655TIP3   OH226379   5.725   1.827  13.614  0.2682 -0.6765  0.2536
 1655TIP3    H126380   5.741   1.851  13.522  1.5180  1.4329  0.9727
 1655TIP3    H226381   5.631   1.837  13.625  0.5100  2.4261  0.0400
 1656TIP3   OH226382   0.484   4.884  12.008  0.8408  0.3135  0.6039
 1656TIP3    H126383   0.480   4.860  12.100 -0.2388  1.9191  1.0027
 1656TIP3    H226384   0.577   4.896  11.990  1.3930 -3.5199  0.5125
 1657TIP3   OH226385   3.933   4.465   1.090  0.4347 -0.2911  0.0829
 1657TIP3    H126386   3.876   4.388   1.090  0.4055 -0.2688  0.1716
 1657TIP3    H226387   4.014   4.435   1.048 -0.0047 -0.0549 -0.9477
 1658TIP3   OH226388   5.551   4.872   0.742  0.6413  0.0369 -0.0200
 1658TIP3    H126389   5.609   4.804   0.706  0.1668  0.0991 -0.8996
 1658TIP3    H226390   5.522   4.922   0.666 -0.1721  0.3236  0.4722
 1659TIP3   OH226391   6.275   3.311   0.287  0.0027 -0.1819  0.3212
 1659TIP3    H126392   6.185   3.281   0.277  0.7227 -2.1883 -0.4859
 1659TIP3    H226393   6.269   3.391   0.338 -2.1957 -0.5514  0.6669
 1660TIP3   OH226394   0.482   0.084   2.354  0.1450  0.6068 -0.1001
 1660TIP3    H126395   0.523   0.115   2.435  0.6775  1.3355 -0.6475
 1660TIP3    H226396   0.420   0.153   2.331  0.7108  0.8634 -0.8536
 1661TIP3   OH226397   1.494   1.665   4.453 -0.1670  0.1077 -0.0769
 1661TIP3    H126398   1.418   1.610   4.468 -0.1676 -0.2379 -1.2651
 1661TIP3    H226399   1.465   1.753   4.479 -0.7371 -0.1517  0.1727
 1662TIP3   OH226400   4.865   0.253  16.283  0.2490  0.1015 -0.3832
 1662TIP3    H126401   4.772   0.252  16.262  0.2739 -0.1276 -0.4895
 1662TIP3    H226402   4.880   0.339  16.323 -0.0689  0.0151 -0.0789
 1663TIP3   OH226403   5.246   4.105   0.236  0.0329 -0.1274  0.3898
 1663TIP3    H126404   5.271   4.179   0.291  1.6706  0.1867 -0.7444
 1663TIP3    H226405   5.250   4.030   0.295  0.2579  0.4200  1.0884
 1664TIP3   OH226406   3.635   6.762  11.858 -0.6460 -0.2180 -0.1930
 1664TIP3    H126407   3.578   6.837  11.841 -1.1375 -0.6702 -0.5641
 1664TIP3    H226408   3.719   6.801  11.885 -0.8561  0.4603 -0.5091
 1665TIP3   OH226409   3.164   3.586   4.267 -0.3447  0.1460  0.2332
 1665TIP3    H126410   3.219   3.592   4.189  2.2148 -1.4643  1.8278
 1665TIP3    H226411   3.224   3.562   4.337 -2.7288  0.6467  2.5460
 1666TIP3   OH226412   4.220   3.389   0.530 -0.0673  0.0925  0.2576
 1666TIP3    H126413   4.166   3.318   0.566 -0.6525 -1.2153 -3.0407
 1666TIP3    H226414   4.304   3.348   0.510  0.7672  1.1627  1.4508
 1667TIP3   OH226415   6.494   3.219  16.225  0.2679 -0.1749  0.0660
 1667TIP3    H126416   6.509   3.144  16.283 -0.7985  0.0057  0.5840
 1667TIP3    H226417   6.458   3.287  16.281  1.8468  0.9740 -0.2780
 1668TIP3   OH226418   3.575   2.219   2.958 -0.1059  0.2155  0.3068
 1668TIP3    H126419   3.498   2.171   2.927 -0.3226  0.6698  0.1436
 1668TIP3    H226420   3.649   2.171   2.921 -0.3300  0.1560 -0.0704
 1669TIP3   OH226421   6.344   1.997   2.208  0.3952 -0.3631 -0.0118
 1669TIP3    H126422   6.328   2.089   2.229  0.5806 -0.0071 -1.3559
 1669TIP3    H226423   6.257   1.957   2.203  0.3552 -0.5141  1.5939
 1670TIP3   OH226424   5.915   2.988   0.516  0.9155 -0.0706  0.1549
 1670TIP3    H126425   5.915   3.010   0.609  0.2891 -1.4763  0.5054
 1670TIP3    H226426   5.854   3.049   0.476 -0.9620 -1.2718  1.1435
 1671TIP3   OH226427   2.678   0.630   5.566 -0.2465  0.4614  0.9130
 1671TIP3    H126428   2.673   0.550   5.620  1.2609 -0.6328 -0.5228
 1671TIP3    H226429   2.588   0.645   5.538 -0.2422 -2.0152 -0.5725
 1672TIP3   OH226430   1.898   1.378   4.166  0.3633  0.3385 -0.2222
 1672TIP3    H126431   1.816   1.360   4.120  0.6767  1.6806 -1.3547
 1672TIP3    H226432   1.908   1.473   4.159  1.0987  0.4075  1.4990
 1673TIP3   OH226433   0.633   4.998   4.898 -0.1759  0.7273 -0.0949
 1673TIP3    H126434   0.558   5.057   4.890 -0.5598  0.2495 -0.0370
 1673TIP3    H226435   0.638   4.955   4.812 -0.3632  0.2896  0.1128
 1674TIP3   OH226436   1.484   1.576   3.076 -0.3478  0.0739 -0.0029
 1674TIP3    H126437   1.578   1.555   3.079 -0.4697 -0.6505 -0.9093
 1674TIP3    H226438   1.479   1.652   3.019 -0.5735 -1.6580 -2.4014
 1675TIP3   OH226439   1.722   5.388  14.012 -0.3610  0.3659  0.0163
 1675TIP3    H126440   1.697   5.354  13.926 -0.9116 -0.3888  0.4667
 1675TIP3    H226441   1.644   5.378  14.066 -0.2469  1.5191  0.4160
 1676TIP3   OH226442   5.931   5.529  13.697 -0.0827 -0.5325  0.0364
 1676TIP3    H126443   5.902   5.577  13.619 -0.2347  1.8798  1.4999
 1676TIP3    H226444   5.850   5.507  13.743  0.0225 -1.6406 -0.2978
 1677TIP3   OH226445   2.799   5.470  14.385 -0.2360  0.5695  0.3289
 1677TIP3    H126446   2.862   5.494  14.453  0.0564 -0.5039  0.4445
 1677TIP3    H226447   2.714   5.469  14.430 -0.0079 -0.3986  0.7321
 1678TIP3   OH226448   2.256   1.548  13.352 -0.7506  0.0186  0.5468
 1678TIP3    H126449   2.347   1.556  13.382 -1.0113 -0.9672  1.6065
 1678TIP3    H226450   2.205   1.595  13.418 -0.9614  1.2503 -0.4540
 1679TIP3   OH226451   1.119   4.032  16.130 -0.6373 -0.8433 -0.4959
 1679TIP3    H126452   1.140   4.013  16.038 -1.0553 -0.1111 -0.7434
 1679TIP3    H226453   1.155   4.119  16.145 -0.3131 -1.0794  0.1258
 1680TIP3   OH226454   0.749   0.689   1.164 -0.5056 -0.6419  0.3278
 1680TIP3    H126455   0.655   0.693   1.184 -0.8718 -0.9238 -1.2957
 1680TIP3    H226456   0.765   0.766   1.109  0.0730 -0.9555  0.0584
 1681TIP3   OH226457   0.557   2.265  10.905 -0.3706 -0.1712  0.1342
 1681TIP3    H126458   0.648   2.253  10.880 -0.0257 -0.0998  1.3403
 1681TIP3    H226459   0.507   2.231  10.831  0.6242 -1.4173  0.0178
 1682TIP3   OH226460   5.404   0.508  13.588 -0.1067  0.1873 -0.0989
 1682TIP3    H126461   5.415   0.550  13.502  0.5740  0.3296  0.0541
 1682TIP3    H226462   5.485   0.458  13.600  0.9059  2.1615  1.5698
 1683TIP3   OH226463   1.032   3.229   2.663 -0.4826 -1.1334  0.3722
 1683TIP3    H126464   1.009   3.184   2.582  1.7640 -3.2754  0.8550
 1683TIP3    H226465   0.948   3.246   2.705 -1.5946 -1.4339 -1.6490
 1684TIP3   OH226466   4.646   6.336  12.595  0.0466  0.2917  0.9623
 1684TIP3    H126467   4.709   6.336  12.523 -0.3944  1.4260  0.5752
 1684TIP3    H226468   4.688   6.283  12.663 -0.0845 -1.8949 -0.5871
 1685TIP3   OH226469   3.360   0.353   3.785 -0.2249  0.0732  0.1595
 1685TIP3    H126470   3.427   0.296   3.749  0.5480 -0.2000  1.9456
 1685TIP3    H226471   3.366   0.433   3.733  1.3228 -0.0420  0.1247
 1686TIP3   OH226472   5.248   5.188   5.545 -0.2691  0.7979 -0.2016
 1686TIP3    H126473   5.322   5.200   5.604 -1.3475 -0.0594  1.3383
 1686TIP3    H226474   5.177   5.158   5.601 -1.1301 -0.6440 -2.0409
 1687TIP3   OH226475   6.479   4.094   0.898  0.2657 -0.5743 -0.2141
 1687TIP3    H126476   6.497   4.143   0.817 -0.2572 -0.5955 -0.3417
 1687TIP3    H226477   6.432   4.156   0.954  2.2509  0.0532  0.8110
 1688TIP3   OH226478   5.449   0.214   3.101 -0.0758  0.9300  0.7739
 1688TIP3    H126479   5.376   0.156   3.126 -0.7607  0.7938 -1.5048
 1688TIP3    H226480   5.499   0.224   3.182 -0.8815 -1.5017  1.6257
 1689TIP3   OH226481   3.953   1.857   1.155 -0.4801 -0.4344  0.4134
 1689TIP3    H126482   3.994   1.901   1.081 -0.2639 -1.6759 -0.2309
 1689TIP3    H226483   3.887   1.918   1.187 -0.6740  0.0434 -0.8928
 1690TIP3   OH226484   3.479   6.545   1.845  0.8526  0.0303 -0.5535
 1690TIP3    H126485   3.561   6.532   1.796  0.8346 -1.3506 -0.2209
 1690TIP3    H226486   3.455   6.636   1.826  0.4956 -0.6597 -3.6234
 1691TIP3   OH226487   3.616   5.596   2.184 -0.0750 -0.1857 -0.3280
 1691TIP3    H126488   3.644   5.527   2.244 -0.9129 -1.3828 -1.2760
 1691TIP3    H226489   3.681   5.593   2.113 -0.3117 -0.2301 -0.5414
 1692TIP3   OH226490   4.796   2.369  11.800 -0.0579 -0.3687  0.1936
 1692TIP3    H126491   4.824   2.331  11.717  0.5533 -0.2646  0.3521
 1692TIP3    H226492   4.809   2.298  11.864 -2.6536 -1.2159 -0.1624
 1693TIP3   OH226493   1.324   3.043   2.647 -0.2668 -0.0750  0.8390
 1693TIP3    H126494   1.375   2.966   2.623 -1.8809 -1.3717  1.4305
 1693TIP3    H226495   1.309   3.088   2.564  1.8146  0.3482  0.6619
 1694TIP3   OH226496   6.065   4.350  10.967  0.1157 -0.2234 -0.1477
 1694TIP3    H126497   6.105   4.299  10.895 -0.4764  1.1154 -1.4458
 1694TIP3    H226498   5.991   4.394  10.926  1.8260  3.3294  0.4469
 1695TIP3   OH226499   4.386   1.510  15.666 -0.0913 -0.3239  0.0320
 1695TIP3    H126500   4.460   1.545  15.617 -0.5581  0.8718  0.1568
 1695TIP3    H226501   4.422   1.483  15.750  0.1316  0.6400  0.2481
 1696TIP3   OH226502   6.437   6.031   0.129  0.3512 -0.1946 -0.1639
 1696TIP3    H126503   6.512   6.086   0.105 -0.6234  1.3264  0.1935
 1696TIP3    H226504   6.434   6.036   0.224  2.1958 -3.5297  0.1445
 1697TIP3   OH226505   3.861   6.013  15.298 -0.6920  0.1565  0.0316
 1697TIP3    H126506   3.931   6.001  15.233 -0.3796  1.4119  0.1222
 1697TIP3    H226507   3.815   5.929  15.300 -0.2363 -0.1329 -1.2753
 1698TIP3   OH226508   3.577   6.127  15.903 -0.2912 -0.4494 -0.6577
 1698TIP3    H126509   3.500   6.155  15.952 -0.0790 -0.2914 -0.4132
 1698TIP3    H226510   3.616   6.058  15.957  0.2143  0.0575 -0.3657
 1699TIP3   OH226511   6.199   3.955   2.352 -0.1897  0.6456 -0.4325
 1699TIP3    H126512   6.198   3.865   2.382 -0.6355  0.2611 -1.5591
 1699TIP3    H226513   6.225   4.006   2.428 -1.4081 -0.2740  0.6128
 1700TIP3   OH226514   0.752   1.839  13.862  0.1472  0.3328  0.1864
 1700TIP3    H126515   0.832   1.886  13.837 -0.2369  0.4396 -0.8288
 1700TIP3    H226516   0.728   1.788  13.785  0.2395 -1.1215  1.0808
 1701TIP3   OH226517   1.570   5.173  14.945  0.0556  0.1322 -1.1175
 1701TIP3    H126518   1.599   5.202  14.859 -1.1667  0.9716 -1.2597
 1701TIP3    H226519   1.651   5.164  14.996  0.7109  0.5159 -2.0775
 1702TIP3   OH226520   0.106   3.369  11.847  0.0378  0.1841  0.0866
 1702TIP3    H126521   0.123   3.310  11.921  0.1820 -0.0554 -0.1343
 1702TIP3    H226522   0.013   3.356  11.828 -0.0095  0.2765  0.2540
 1703TIP3   OH226523   0.478   5.737  10.353  0.1037  0.2354  0.0730
 1703TIP3    H126524   0.477   5.677  10.427  1.7979 -0.2622 -0.2820
 1703TIP3    H226525   0.397   5.788  10.362 -1.0962 -1.7150  0.6714
 1704TIP3   OH226526   6.498   1.130  15.105 -0.0679 -0.6858  0.3725
 1704TIP3    H126527   6.589   1.157  15.120  0.2561 -1.1890 -0.6213
 1704TIP3    H226528   6.477   1.073  15.178 -0.1281  0.7300  1.4793
 1705TIP3   OH226529   3.655   3.510  16.760  0.5270  0.2103  0.6320
 1705TIP3    H126530   3.638   3.533  16.851 -4.2913 -1.7957  0.3480
 1705TIP3    H226531   3.641   3.416  16.755 -1.3911  0.5843 -2.5423
 1706TIP3   OH226532   2.533   5.367  15.029  0.2023  0.3136 -0.5921
 1706TIP3    H126533   2.606   5.379  14.968  1.2354  0.2044  0.5994
 1706TIP3    H226534   2.549   5.431  15.098 -1.1921  0.7260 -0.6426
 1707TIP3   OH226535   0.910   5.580  12.747  0.1756 -0.4570  0.3509
 1707TIP3    H126536   0.942   5.542  12.829  1.6459 -1.3975 -0.6333
 1707TIP3    H226537   0.817   5.561  12.746 -0.3717  1.7263  2.9696
 1708TIP3   OH226538   2.239   1.006   2.150  0.4060  0.0439  0.3553
 1708TIP3    H126539   2.153   0.992   2.190 -0.0268  0.3417 -0.4656
 1708TIP3    H226540   2.253   0.928   2.095  0.7168 -0.0636  0.5860
 1709TIP3   OH226541   2.215   4.707  10.740 -0.8952  0.0060  0.1674
 1709TIP3    H126542   2.181   4.796  10.748 -1.6557  0.0018 -2.6532
 1709TIP3    H226543   2.148   4.659  10.691 -0.0050 -1.8584  0.6990
 1710TIP3   OH226544   1.182   4.937   5.160  0.1451 -0.0673 -0.5553
 1710TIP3    H126545   1.128   4.955   5.236 -1.1630  0.8891 -1.6877
 1710TIP3    H226546   1.268   4.972   5.182 -0.1045 -0.2297  0.6639
 1711TIP3   OH226547   5.697   3.900   4.245 -0.4812  0.0128 -0.4671
 1711TIP3    H126548   5.756   3.842   4.196 -0.1707  0.2550 -0.3758
 1711TIP3    H226549   5.746   3.981   4.256 -1.0905  0.4566 -0.9939
 1712TIP3   OH226550   2.221   6.615   4.019 -0.3681  0.0062  0.1639
 1712TIP3    H126551   2.231   6.686   4.081 -0.0252 -1.0058  1.2816
 1712TIP3    H226552   2.311   6.586   4.001 -0.6465 -3.1528  3.2819
 1713TIP3   OH226553   5.163   5.856   2.274  0.4573 -0.0613  0.2852
 1713TIP3    H126554   5.180   5.873   2.182 -0.0783 -0.7114  0.0611
 1713TIP3    H226555   5.113   5.931   2.304  0.6399  0.1527  0.0515
 1714TIP3   OH226556   4.690   6.479   2.078  0.3967  0.3365 -0.8583
 1714TIP3    H126557   4.742   6.538   2.023  1.1298  0.0481 -0.4810
 1714TIP3    H226558   4.750   6.408   2.100 -0.0929  0.1204 -0.2169
 1715TIP3   OH226559   0.053   2.114   6.521  0.4040  0.3553 -0.0048
 1715TIP3    H126560   0.128   2.070   6.481  0.2449  0.2651 -0.2011
 1715TIP3    H226561   0.084   2.138   6.609  0.8875  0.9301 -0.3314
 1716TIP3   OH226562   0.703   3.819   3.015 -0.5188  0.4282  0.4684
 1716TIP3    H126563   0.610   3.815   3.039 -0.9761  1.5334 -0.9969
 1716TIP3    H226564   0.743   3.872   3.084 -0.8259 -0.6672  1.5065
 1717TIP3   OH226565   4.898   5.173   6.675 -0.0995 -0.1451  0.2800
 1717TIP3    H126566   4.851   5.180   6.592  1.5218 -1.6172 -0.8107
 1717TIP3    H226567   4.852   5.233   6.734 -0.2778  2.2143 -2.1393
 1718TIP3   OH226568   4.053   5.359   0.164 -0.1344 -0.0800 -0.1948
 1718TIP3    H126569   3.994   5.381   0.092 -1.8748 -2.4736  0.4005
 1718TIP3    H226570   4.068   5.442   0.209 -1.0733  1.0096 -1.8181
 1719TIP3   OH226571   0.451   2.310   5.376 -0.2688 -0.3531  0.5051
 1719TIP3    H126572   0.491   2.253   5.310 -1.6686  0.3801 -1.0179
 1719TIP3    H226573   0.508   2.387   5.379 -0.0908 -0.4758  0.3091
 1720TIP3   OH226574   6.157   4.411   1.298  0.3769  0.5180 -0.6210
 1720TIP3    H126575   6.116   4.427   1.213 -0.8426 -2.2408 -0.6100
 1720TIP3    H226576   6.233   4.357   1.279  2.8567  3.7841 -0.3914
 1721TIP3   OH226577   3.875   2.826   3.513  0.3351  0.6334 -0.2798
 1721TIP3    H126578   3.823   2.817   3.433  0.5143  2.0748 -0.5704
 1721TIP3    H226579   3.864   2.742   3.558 -2.7449  1.1017 -0.0348
 1722TIP3   OH226580   0.320   3.375  15.074  0.2692  0.7111 -0.3715
 1722TIP3    H126581   0.300   3.322  15.152 -0.8601 -0.9644 -1.7627
 1722TIP3    H226582   0.329   3.464  15.108  1.7736 -0.2478  1.9732
 1723TIP3   OH226583   2.946   1.363  15.501 -0.0366 -0.0089  0.3688
 1723TIP3    H126584   2.895   1.306  15.558 -0.7311 -0.6895 -0.9120
 1723TIP3    H226585   2.911   1.451  15.519 -1.0214 -0.3552  0.1806
 1724TIP3   OH226586   0.559   4.552   5.772  0.3731  0.2835 -0.0792
 1724TIP3    H126587   0.484   4.550   5.713  0.8258  0.6749 -0.6743
 1724TIP3    H226588   0.522   4.572   5.858 -0.2106  0.3851 -0.3546
 1725TIP3   OH226589   4.557   2.860   2.654 -0.2242 -0.0206 -0.1277
 1725TIP3    H126590   4.504   2.913   2.595 -0.7404  1.3928  1.5563
 1725TIP3    H226591   4.505   2.781   2.668 -1.6643  1.0853  1.0184
 1726TIP3   OH226592   5.421   6.119   2.760 -0.0184  0.2201 -0.0217
 1726TIP3    H126593   5.341   6.094   2.808 -0.3518  1.1076 -0.1122
 1726TIP3    H226594   5.404   6.092   2.670 -0.1565  0.2729 -0.0125
 1727TIP3   OH226595   6.076   3.592   0.613  0.0395  0.9765  0.7005
 1727TIP3    H126596   6.162   3.608   0.575  0.1159 -1.4334 -0.2380
 1727TIP3    H226597   6.094   3.544   0.694 -0.4307 -0.3060  0.0623
 1728TIP3   OH226598   5.727   0.822  16.222 -0.0287  0.3706 -0.1155
 1728TIP3    H126599   5.802   0.839  16.278  0.4646 -0.0858 -0.6251
 1728TIP3    H226600   5.765   0.795  16.138 -0.7636 -0.6432 -0.1352
 1729TIP3   OH226601   5.388   3.963  14.803  0.3869 -0.4524  0.0269
 1729TIP3    H126602   5.340   4.018  14.865  1.3603  1.2146 -0.6651
 1729TIP3    H226603   5.427   3.894  14.857 -0.3498 -0.1345  0.9856
 1730TIP3   OH226604   2.115   6.638  16.862 -0.3053 -0.1920  0.6023
 1730TIP3    H126605   2.063   6.594  16.930 -0.9407 -1.7503 -0.8784
 1730TIP3    H226606   2.050   6.678  16.804  0.1412 -1.4242 -0.7758
 1731TIP3   OH226607   6.730   3.310   5.378  0.3509 -0.5350 -0.0894
 1731TIP3    H126608   6.773   3.299   5.293  0.7813  1.7081 -0.1944
 1731TIP3    H226609   6.639   3.330   5.356  0.4908  0.1709 -0.0319
 1732TIP3   OH226610   3.260   0.957   5.724  0.6272 -0.0339  0.1233
 1732TIP3    H126611   3.175   1.001   5.715  1.4223  1.0567 -2.8599
 1732TIP3    H226612   3.261   0.922   5.813 -1.5511  2.8789  1.3503
 1733TIP3   OH226613   1.683   1.088   1.763 -0.1177 -0.2935 -0.2262
 1733TIP3    H126614   1.776   1.071   1.777  0.0710  1.9720  1.5577
 1733TIP3    H226615   1.674   1.097   1.668  1.4412 -0.6431 -0.4157
 1734TIP3   OH226616   4.438   4.504   6.157 -0.4772 -0.0534  0.2645
 1734TIP3    H126617   4.460   4.528   6.247 -3.7004 -2.0314  1.6818
 1734TIP3    H226618   4.363   4.560   6.136 -2.2638 -2.3947  0.2992
 1735TIP3   OH226619   5.007   4.661   1.736 -0.1251  0.1111  0.0005
 1735TIP3    H126620   4.967   4.578   1.708  1.1024  0.2567 -2.3122
 1735TIP3    H226621   5.089   4.666   1.686  0.8893  1.6825  1.7470
 1736TIP3   OH226622   1.354   3.341  14.173 -0.5816 -0.0305 -0.8087
 1736TIP3    H126623   1.383   3.411  14.115  1.0284 -0.4259 -0.5276
 1736TIP3    H226624   1.421   3.338  14.242 -1.6140 -0.6194  0.1820
 1737TIP3   OH226625   0.071   2.968   4.691  0.3313  0.0012 -0.0018
 1737TIP3    H126626   0.060   3.006   4.604 -0.2419 -2.4168 -0.9945
 1737TIP3    H226627   0.026   2.884   4.687 -1.0275  0.4988  3.0952
 1738TIP3   OH226628   4.119   4.785   0.482 -0.0566  0.1738  0.3340
 1738TIP3    H126629   4.071   4.807   0.562 -1.2852 -0.4407 -0.2054
 1738TIP3    H226630   4.061   4.813   0.411 -0.3833 -2.0331 -0.3403
 1739TIP3   OH226631   4.498   5.789   4.172 -0.4162  0.7419  0.2875
 1739TIP3    H126632   4.428   5.785   4.237  0.2862  1.0043  1.0721
 1739TIP3    H226633   4.576   5.812   4.223  0.5057 -0.8976 -0.3561
 1740TIP3   OH226634   3.438   1.714  12.499  0.3635  0.2864 -0.3707
 1740TIP3    H126635   3.414   1.762  12.420 -0.5515 -0.0537 -0.3007
 1740TIP3    H226636   3.364   1.727  12.559  1.2970  1.0063  0.6332
 1741TIP3   OH226637   5.402   3.865   0.603  0.2775 -0.0041 -0.4496
 1741TIP3    H126638   5.451   3.783   0.607  1.5620  0.6735 -1.7833
 1741TIP3    H226639   5.350   3.858   0.523  1.7291  1.2008 -1.5157
 1742TIP3   OH226640   6.082   6.053   5.240  0.2912 -0.1861 -0.3298
 1742TIP3    H126641   6.091   6.000   5.319  0.7176 -0.3654 -0.4981
 1742TIP3    H226642   6.062   5.990   5.171  0.1921 -0.0607 -0.4163
 1743TIP3   OH226643   6.062   1.186  12.719  0.1803 -0.3314  0.1450
 1743TIP3    H126644   6.066   1.093  12.738 -1.1484 -0.2551  0.8568
 1743TIP3    H226645   5.972   1.211  12.739  0.4084  1.0208 -0.4315
 1744TIP3   OH226646   2.654   0.362   3.505 -0.1739 -0.3973  0.4380
 1744TIP3    H126647   2.709   0.301   3.553 -1.9088 -3.4051 -1.2366
 1744TIP3    H226648   2.586   0.388   3.567  0.0100 -0.9507  0.8706
 1745TIP3   OH226649   3.668   1.526  16.459  0.5094 -0.0967  0.0522
 1745TIP3    H126650   3.650   1.583  16.383  2.3539  1.0304  0.4404
 1745TIP3    H226651   3.760   1.503  16.450  0.3132 -1.3125  1.0842
 1746TIP3   OH226652   2.967   5.365  11.916  0.1195 -0.0769  0.1464
 1746TIP3    H126653   2.968   5.451  11.957 -0.7262 -1.1752  2.5863
 1746TIP3    H226654   3.016   5.309  11.977 -0.5412 -1.6193 -0.7129
 1747TIP3   OH226655   5.408   6.030  11.019  0.7744 -0.1270  0.0205
 1747TIP3    H126656   5.313   6.042  11.018  0.4043 -2.0467  3.3502
 1747TIP3    H226657   5.426   5.976  10.942 -1.0270 -0.8518  0.0719
 1748TIP3   OH226658   0.353   0.565   3.446  0.0773 -0.2997  0.1240
 1748TIP3    H126659   0.261   0.593   3.444 -0.1966 -1.1837  0.3070
 1748TIP3    H226660   0.380   0.581   3.536 -0.2288 -1.0807  0.3608
 1749TIP3   OH226661   5.875   5.827  15.943 -0.0559  0.7475  0.4282
 1749TIP3    H126662   5.869   5.897  16.008  0.5358  0.5800  0.6710
 1749TIP3    H226663   5.858   5.870  15.859 -1.0159  0.9334  0.7069
 1750TIP3   OH226664   5.081   2.224  11.658 -0.1032  0.0376  0.1228
 1750TIP3    H126665   5.072   2.317  11.683 -1.1949  0.7744 -2.8450
 1750TIP3    H226666   5.175   2.214  11.640 -0.0873  0.7582 -0.2398
 1751TIP3   OH226667   2.309   5.727  14.196  0.0138 -0.5550  0.3940
 1751TIP3    H126668   2.270   5.806  14.233 -2.5820 -1.0796 -1.1208
 1751TIP3    H226669   2.399   5.753  14.175 -0.8196  2.0588 -0.2062
 1752TIP3   OH226670   3.497   0.790   3.524  0.1270  0.1794 -0.3058
 1752TIP3    H126671   3.529   0.837   3.447  0.7216  0.3276  0.0323
 1752TIP3    H226672   3.408   0.822   3.537  1.1668  2.6020  1.0509
 1753TIP3   OH226673   3.193   0.945  13.567 -0.3296  0.0330  0.2525
 1753TIP3    H126674   3.110   0.917  13.528 -0.8631  1.8065  0.0779
 1753TIP3    H226675   3.176   1.034  13.597  1.6801  0.6138 -0.2810
 1754TIP3   OH226676   0.502   3.302   2.351  0.2405  0.0197 -0.2617
 1754TIP3    H126677   0.468   3.232   2.407 -0.6260  1.9446  1.6529
 1754TIP3    H226678   0.425   3.338   2.307  0.8048 -0.8468 -2.0172
 1755TIP3   OH226679   2.692   2.906  15.613  0.1019 -0.3961 -0.4496
 1755TIP3    H126680   2.622   2.881  15.673  0.1307 -0.0424 -0.2646
 1755TIP3    H226681   2.764   2.846  15.634  0.0394 -0.4081 -0.2679
 1756TIP3   OH226682   5.940   0.743   3.521  0.4531  0.2661 -0.0113
 1756TIP3    H126683   5.891   0.780   3.595 -0.0790  1.9122 -1.1426
 1756TIP3    H226684   6.029   0.732   3.554 -0.0229 -0.0613  1.2046
 1757TIP3   OH226685   0.828   6.461   0.156  0.4493  0.0453  0.5796
 1757TIP3    H126686   0.792   6.480   0.243  0.3545  0.3127  0.4833
 1757TIP3    H226687   0.777   6.517   0.097 -0.3506 -1.0647  0.2035
 1758TIP3   OH226688   2.396   0.397  11.421  0.1597 -0.3239  0.0566
 1758TIP3    H126689   2.353   0.436  11.345 -0.9192 -0.6878  0.4721
 1758TIP3    H226690   2.389   0.464  11.490  0.1193 -0.4504  0.1739
 1759TIP3   OH226691   1.097   4.334   3.989 -0.1514  0.5578  0.2053
 1759TIP3    H126692   1.112   4.426   3.968 -1.0192  0.7014  0.1681
 1759TIP3    H226693   1.018   4.311   3.939  0.8891 -0.6093 -0.9188
 1760TIP3   OH226694   2.603   1.382   3.346 -0.3933  0.0273  0.0631
 1760TIP3    H126695   2.604   1.298   3.301 -0.6484  0.1042 -0.0829
 1760TIP3    H226696   2.546   1.438   3.293 -0.3013  0.2641  0.2110
 1761TIP3   OH226697   0.972   5.203  16.991  0.4157 -0.5540 -0.6425
 1761TIP3    H126698   1.003   5.160  17.071  2.7027 -1.0981 -1.7600
 1761TIP3    H226699   1.050   5.209  16.935 -0.2063  3.4445 -1.2533
 1762TIP3   OH226700   2.757   6.375  14.784  0.0355 -0.1513 -0.1368
 1762TIP3    H126701   2.831   6.321  14.757  0.3338  0.9140 -1.5245
 1762TIP3    H226702   2.680   6.331  14.747  0.2859  0.4033 -1.3508
 1763TIP3   OH226703   5.160   5.704   6.285  0.5954 -0.0380 -0.0841
 1763TIP3    H126704   5.147   5.783   6.232  1.3263  1.8922  2.4888
 1763TIP3    H226705   5.253   5.684   6.275 -0.1580 -2.2969 -2.9868
 1764TIP3   OH226706   3.357   3.936  11.282  0.4014 -0.2071 -0.2753
 1764TIP3    H126707   3.299   3.991  11.334 -1.3589 -1.9457 -0.3361
 1764TIP3    H226708   3.416   3.897  11.346 -0.6154 -0.9563  0.2295
 1765TIP3   OH226709   1.731   2.198  15.545 -0.3494  0.0514 -0.0309
 1765TIP3    H126710   1.782   2.119  15.529 -0.0371 -0.1253  1.6665
 1765TIP3    H226711   1.736   2.248  15.464 -0.7914 -1.7947 -1.2276
 1766TIP3   OH226712   0.743   1.988   2.929 -0.2631 -0.0357 -0.0711
 1766TIP3    H126713   0.674   1.994   2.994 -1.4672 -1.5598 -1.1778
 1766TIP3    H226714   0.811   1.935   2.970 -0.2007  0.5826  0.6284
 1767TIP3   OH226715   0.044   3.931  12.012 -0.5732  0.0566 -0.1553
 1767TIP3    H126716   0.028   3.839  12.029  0.6354 -0.0334  0.5558
 1767TIP3    H226717   0.052   3.971  12.098  0.8141  0.4676 -0.4539
 1768TIP3   OH226718   0.255   1.878  15.734  0.4959 -0.0438  0.2234
 1768TIP3    H126719   0.227   1.954  15.786  2.0116  1.5459 -1.2638
 1768TIP3    H226720   0.332   1.908  15.686 -0.1096 -1.8938 -1.9776
 1769TIP3   OH226721   0.744   4.193  15.803 -0.6873  0.3065  0.2439
 1769TIP3    H126722   0.825   4.146  15.781  0.1468  2.1856 -0.7774
 1769TIP3    H226723   0.746   4.271  15.749 -2.3384  1.2651  1.5265
 1770TIP3   OH226724   3.689   2.553   1.217 -0.3776  0.3255 -0.0372
 1770TIP3    H126725   3.773   2.584   1.184 -0.4497  1.4208  0.7912
 1770TIP3    H226726   3.711   2.482   1.277 -0.0985  0.0989 -0.4023
 1771TIP3   OH226727   2.843   4.163  10.418 -0.0562  0.2075 -0.2359
 1771TIP3    H126728   2.885   4.228  10.361  0.6360  0.4044  0.4779
 1771TIP3    H226729   2.915   4.106  10.445 -0.4573 -0.1515  0.0739
 1772TIP3   OH226730   2.044   1.244  15.161  0.1071  0.3549  0.1391
 1772TIP3    H126731   2.045   1.316  15.098 -0.5067  1.2203  1.0988
 1772TIP3    H226732   2.135   1.217  15.169  0.1835  0.1408 -1.2066
 1773TIP3   OH226733   2.128   5.913   0.905 -0.3217  0.1914  0.2038
 1773TIP3    H126734   2.054   5.863   0.870  0.8537 -1.9583  0.6770
 1773TIP3    H226735   2.190   5.916   0.832  0.3909 -0.6886  0.7623
 1774TIP3   OH226736   0.676   2.882   0.019 -0.4568 -0.5258  1.0983
 1774TIP3    H126737   0.588   2.852  -0.004 -0.5130  0.6310 -0.2828
 1774TIP3    H226738   0.711   2.918  -0.062 -0.3850  3.1100  2.6497
 1775TIP3   OH226739   1.916   6.611   3.128 -0.3250  0.6944 -0.1130
 1775TIP3    H126740   1.979   6.553   3.171  0.8983  1.2072 -1.1503
 1775TIP3    H226741   1.955   6.698   3.136 -1.3238  1.1418 -0.0390
 1776TIP3   OH226742   5.740   1.989  14.728  0.9845 -0.2093  0.0440
 1776TIP3    H126743   5.762   1.913  14.674  0.5174 -0.3190  0.0074
 1776TIP3    H226744   5.645   1.985  14.737  0.9676  0.3291  0.1038
 1777TIP3   OH226745   3.211   5.352   4.178 -0.2418  0.7248 -0.1712
 1777TIP3    H126746   3.118   5.327   4.180 -0.5640  1.9417  0.0630
 1777TIP3    H226747   3.226   5.383   4.089 -0.0270  0.4285 -0.2398
 1778TIP3   OH226748   4.140   6.175   1.832  0.1130 -0.0667 -0.0235
 1778TIP3    H126749   4.157   6.095   1.782 -0.5744 -0.0178 -0.3453
 1778TIP3    H226750   4.203   6.238   1.799 -1.1013  0.3209 -1.6958
 1779TIP3   OH226751   1.878   1.714  13.156  0.1111  0.5004 -0.0096
 1779TIP3    H126752   1.805   1.731  13.097  1.4145 -1.5242 -2.3265
 1779TIP3    H226753   1.895   1.620  13.147  1.0585  0.3405  2.8160
 1780TIP3   OH226754   4.297   6.389   4.164 -0.0045 -0.4400  0.2077
 1780TIP3    H126755   4.207   6.375   4.136 -0.0404 -0.6877  0.4450
 1780TIP3    H226756   4.317   6.314   4.219  0.6667 -0.8610 -0.6035
 1781TIP3   OH226757   1.193   5.075  12.092 -0.4948  0.7520 -0.2274
 1781TIP3    H126758   1.219   5.010  12.026  0.2842  0.3220  0.4929
 1781TIP3    H226759   1.268   5.134  12.098 -1.1405  1.6402 -0.7684
 1782TIP3   OH226760   1.254   4.026   0.898  0.1850 -0.6438 -0.3857
 1782TIP3    H126761   1.339   4.027   0.853  0.1459  0.0419 -0.4628
 1782TIP3    H226762   1.212   4.107   0.869  0.2936 -0.0280  1.1352
 1783TIP3   OH226763   0.422   5.621   4.198 -0.2910  0.5301  0.5464
 1783TIP3    H126764   0.337   5.578   4.205 -0.8340  1.0477 -2.1768
 1783TIP3    H226765   0.413   5.700   4.251 -1.1973  0.1113  1.0190
 1784TIP3   OH226766   0.903   1.436   3.712  0.1582 -0.0789  0.3444
 1784TIP3    H126767   0.985   1.423   3.758  0.5846  1.5400  0.0798
 1784TIP3    H226768   0.859   1.506   3.760  0.4572  1.3894 -1.4612
 1785TIP3   OH226769   0.331   5.510  16.175  0.2482 -0.3150 -0.5266
 1785TIP3    H126770   0.390   5.481  16.105  0.5534  0.9277 -0.7945
 1785TIP3    H226771   0.365   5.596  16.201  0.3976 -0.9673  1.4718
 1786TIP3   OH226772   6.645   3.781   3.831  0.0684  0.1000  0.0172
 1786TIP3    H126773   6.659   3.868   3.795  0.9620  0.2812  0.7674
 1786TIP3    H226774   6.620   3.727   3.756  1.3413  0.5966 -0.7741
 1787TIP3   OH226775   5.016   4.628  13.629 -0.2156 -0.5161 -0.0145
 1787TIP3    H126776   4.970   4.560  13.580  1.4992 -1.9155  0.2801
 1787TIP3    H226777   4.962   4.643  13.707 -1.3645 -0.4574 -0.8152
 1788TIP3   OH226778   5.173   5.898  14.699  0.3881  0.1199 -0.2433
 1788TIP3    H126779   5.196   5.807  14.719  0.5730  0.0238 -0.8883
 1788TIP3    H226780   5.193   5.908  14.606 -1.5556  0.2356 -0.6648
 1789TIP3   OH226781   3.921   5.459  16.260 -0.4169 -0.2310 -0.5796
 1789TIP3    H126782   3.924   5.364  16.262  0.5453 -0.1987 -0.2384
 1789TIP3    H226783   3.983   5.483  16.191  2.0839  0.2574  1.7677
 1790TIP3   OH226784   5.202   0.675  12.327  0.1718  0.0319 -0.9882
 1790TIP3    H126785   5.215   0.769  12.339 -0.6967  0.1560 -0.9669
 1790TIP3    H226786   5.108   0.666  12.310  0.3683 -0.7565 -1.7137
 1791TIP3   OH226787   0.484   1.388  14.755  0.3342 -0.1439 -0.1159
 1791TIP3    H126788   0.436   1.338  14.689  0.7346 -0.5924 -0.0617
 1791TIP3    H226789   0.422   1.456  14.783  0.0486 -0.1626 -0.7071
 1792TIP3   OH226790   5.844   3.542  11.466  0.1173 -0.4592 -0.2122
 1792TIP3    H126791   5.782   3.593  11.412  0.5453 -0.0658 -0.3400
 1792TIP3    H226792   5.930   3.568  11.433  0.3925 -0.0530  0.8104
 1793TIP3   OH226793   1.956   2.813   3.075 -0.3111 -0.2547 -0.7035
 1793TIP3    H126794   2.006   2.738   3.041  0.4901  0.7777 -1.8619
 1793TIP3    H226795   1.913   2.850   2.998  0.3468  1.2359 -0.3857
 1794TIP3   OH226796   5.767   3.312   2.401 -0.0421 -0.0041 -0.2400
 1794TIP3    H126797   5.856   3.286   2.376  0.1473  1.2365 -0.9409
 1794TIP3    H226798   5.712   3.281   2.330  0.0773  0.7563 -0.6760
 1795TIP3   OH226799   4.468   1.051  13.697  0.7200 -0.2849  0.4547
 1795TIP3    H126800   4.495   1.074  13.608  0.4073 -0.6051  0.2763
 1795TIP3    H226801   4.433   1.133  13.733 -0.8338 -0.5842 -0.3450
 1796TIP3   OH226802   2.027   0.033  11.819 -0.0886 -0.1835  0.3221
 1796TIP3    H126803   2.051  -0.055  11.790  1.0202  0.0794  0.4238
 1796TIP3    H226804   2.032   0.030  11.914  0.2999  0.0766  0.3144
 1797TIP3   OH226805   1.744   0.077  13.664  0.0127 -0.4358 -0.4044
 1797TIP3    H126806   1.671   0.133  13.638  0.3652 -0.1347 -0.7352
 1797TIP3    H226807   1.733   0.067  13.758  0.2109  0.5615 -0.2694
 1798TIP3   OH226808   4.618   6.687   1.066  0.0823  0.7635 -0.9080
 1798TIP3    H126809   4.564   6.698   0.987 -0.5587 -1.3536 -0.7984
 1798TIP3    H226810   4.620   6.592   1.080  0.7210  1.0859  1.2628
 1799TIP3   OH226811   5.685   5.393   3.977 -0.2831  0.0650  0.5131
 1799TIP3    H126812   5.717   5.482   3.991 -1.5792  0.4015  1.3593
 1799TIP3    H226813   5.642   5.396   3.892 -1.6651  0.6399  1.2174
 1800TIP3   OH226814   5.003   3.954  12.302 -0.1230  0.0916 -0.0011
 1800TIP3    H126815   4.941   3.904  12.249 -1.1122  2.1843 -0.8504
 1800TIP3    H226816   4.950   3.995  12.369  0.5576  0.7135  0.1620
 1801TIP3   OH226817   5.531   0.121  13.282 -0.2049  0.4452  0.4075
 1801TIP3    H126818   5.567   0.075  13.357  2.1478 -0.2853 -1.1299
 1801TIP3    H226819   5.607   0.150  13.232 -1.7085  1.5663 -1.3159
 1802TIP3   OH226820   0.115   3.340   1.749  0.6429  0.6514  0.6683
 1802TIP3    H126821   0.191   3.379   1.708  1.9483 -2.0249  0.3973
 1802TIP3    H226822   0.134   3.343   1.843  1.8340 -1.3417  0.5326
 1803TIP3   OH226823   6.322   4.814  15.918  0.6304  0.0951  0.5285
 1803TIP3    H126824   6.339   4.748  15.985  0.8117  0.1171  0.5060
 1803TIP3    H226825   6.279   4.767  15.848  2.6977 -0.4531 -0.4102
 1804TIP3   OH226826   3.874   2.397  16.859  0.4082  0.9869 -0.2502
 1804TIP3    H126827   3.865   2.447  16.940 -0.2382  1.9299 -0.8980
 1804TIP3    H226828   3.953   2.345  16.872 -0.2088  0.4035  1.3731
 1805TIP3   OH226829   5.453   4.021  15.124 -0.8046 -0.0253 -0.1848
 1805TIP3    H126830   5.531   3.968  15.104 -1.0298 -0.6290  0.5123
 1805TIP3    H226831   5.485   4.092  15.179 -0.4472  0.7457 -1.3756
 1806TIP3   OH226832   5.851   3.618  14.273 -0.0072  0.2414  0.2388
 1806TIP3    H126833   5.843   3.714  14.272 -0.7851  0.2328  2.6688
 1806TIP3    H226834   5.921   3.601  14.336  1.1328 -0.7615 -1.2595
 1807TIP3   OH226835   6.199   1.469   2.483 -0.5275 -0.6718  0.2098
 1807TIP3    H126836   6.275   1.486   2.539  0.8088 -0.7680 -1.5301
 1807TIP3    H226837   6.200   1.374   2.471 -1.1240 -0.7080  0.4455
 1808TIP3   OH226838   5.184   5.562  13.076 -0.3336 -0.3097  0.2891
 1808TIP3    H126839   5.167   5.530  12.987  1.5312  1.9475 -0.9492
 1808TIP3    H226840   5.121   5.633  13.088  0.8992  0.8737 -0.1231
 1809TIP3   OH226841   2.134   6.464   3.203  0.5199  0.1085  0.0942
 1809TIP3    H126842   2.184   6.485   3.282  0.3131  0.1130  0.2252
 1809TIP3    H226843   2.197   6.468   3.132  0.9848 -1.1380  0.4134
 1810TIP3   OH226844   1.067   1.674   1.928 -0.1835  0.4901  0.2228
 1810TIP3    H126845   1.125   1.689   2.003  2.3267 -2.4908 -1.0148
 1810TIP3    H226846   1.053   1.579   1.927  0.0073  0.4290 -3.1975
 1811TIP3   OH226847   3.318   3.320  14.089  0.5701  0.3517  0.6817
 1811TIP3    H126848   3.255   3.253  14.064  0.6333  0.5351  0.0205
 1811TIP3    H226849   3.277   3.366  14.162  0.9555 -1.0551  1.8145
 1812TIP3   OH226850   6.239   4.565  12.607 -0.0569  0.4228  0.6441
 1812TIP3    H126851   6.149   4.572  12.575  0.3064  1.4453 -0.1745
 1812TIP3    H226852   6.235   4.600  12.697 -0.6385 -0.3291  0.9145
 1813TIP3   OH226853   1.356   5.678   4.573 -0.2851  0.3935 -0.7642
 1813TIP3    H126854   1.380   5.763   4.537  1.5622  0.0913 -0.2734
 1813TIP3    H226855   1.369   5.616   4.501 -0.3165  0.3343 -0.7192
 1814TIP3   OH226856   2.193   3.708   3.287 -0.7945  0.0395 -0.2703
 1814TIP3    H126857   2.140   3.632   3.262 -1.3735  0.4619 -0.3390
 1814TIP3    H226858   2.160   3.779   3.232  1.1830 -0.1437 -1.7308
 1815TIP3   OH226859   1.874   2.890   6.523  0.0563 -0.1164 -0.1441
 1815TIP3    H126860   1.812   2.855   6.459  1.5161 -2.1096 -0.4779
 1815TIP3    H226861   1.953   2.838   6.512  0.5240 -0.1158  2.8871
 1816TIP3   OH226862   5.603   0.804  13.537 -1.2696 -0.1463 -0.3962
 1816TIP3    H126863   5.553   0.848  13.606  0.8531 -0.7414  1.5332
 1816TIP3    H226864   5.598   0.711  13.558 -0.7346 -0.3474 -1.1262
 1817TIP3   OH226865   0.824   3.712   0.741  0.6626  0.1454 -0.0176
 1817TIP3    H126866   0.852   3.683   0.654 -0.7862 -0.1222 -0.3972
 1817TIP3    H226867   0.757   3.650   0.766  1.1976  0.1259  1.3817
 1818TIP3   OH226868   0.056   0.640  15.744 -0.5527 -0.2940  0.0788
 1818TIP3    H126869   0.135   0.693  15.732 -1.0094  0.1611 -1.0198
 1818TIP3    H226870   0.041   0.600  15.658 -1.8761  0.1333  0.1016
 1819TIP3   OH226871   0.472   1.675  12.054 -0.0838  0.4070 -0.4330
 1819TIP3    H126872   0.457   1.613  12.125 -1.2250 -0.2605 -1.2402
 1819TIP3    H226873   0.462   1.761  12.094  1.0265  0.0721  0.5869
 1820TIP3   OH226874   1.336   4.364   2.714  0.2730  0.2258  0.3018
 1820TIP3    H126875   1.403   4.356   2.782  0.3595  0.3288  0.2292
 1820TIP3    H226876   1.265   4.307   2.743  0.5969 -0.2663  0.1312
 1821TIP3   OH226877   4.281   2.347  13.240  0.9752 -0.0181  0.1013
 1821TIP3    H126878   4.339   2.344  13.163  2.1640  0.8556  0.9572
 1821TIP3    H226879   4.340   2.352  13.315 -0.2017  0.4498  1.0158
 1822TIP3   OH226880   3.097   3.272  13.809  0.5254 -0.4962  0.1875
 1822TIP3    H126881   3.096   3.359  13.849  1.1296 -0.1099 -0.6298
 1822TIP3    H226882   3.064   3.214  13.877 -2.7616  0.7842 -0.2015
 1823TIP3   OH226883   6.351   1.307   5.519  0.0871  0.1993  0.2037
 1823TIP3    H126884   6.421   1.270   5.465 -1.1273 -1.3862 -0.3635
 1823TIP3    H226885   6.383   1.392   5.546  2.2386 -0.5083 -0.0185
 1824TIP3   OH226886   0.483   2.889   4.267  0.2093  0.0817  0.3990
 1824TIP3    H126887   0.489   2.971   4.315 -1.7026 -0.5073  1.7048
 1824TIP3    H226888   0.435   2.912   4.187  1.8450  0.7008 -0.4361
 1825TIP3   OH226889   0.848   5.415   5.026  0.2116 -0.1337 -0.1690
 1825TIP3    H126890   0.813   5.355   4.960 -2.1497  0.6295  0.3186
 1825TIP3    H226891   0.849   5.500   4.983  0.2583  0.0680  0.2292
 1826TIP3   OH226892   0.032   0.912  12.252 -0.2840 -0.2181 -0.0797
 1826TIP3    H126893   0.092   0.859  12.200 -2.0773 -1.6169 -0.7896
 1826TIP3    H226894   0.086   0.983  12.286  1.5460 -0.8910 -1.4840
 1827TIP3   OH226895   2.014   1.080  12.549 -0.4181 -0.4518 -0.3531
 1827TIP3    H126896   2.000   1.094  12.643  1.6374  2.3554 -0.4094
 1827TIP3    H226897   2.067   1.001  12.545  1.3212  0.6134  1.0177
 1828TIP3   OH226898   3.535   6.388  14.930 -0.3189  0.1629  0.4364
 1828TIP3    H126899   3.467   6.433  14.979 -1.4345 -0.4299 -0.5432
 1828TIP3    H226900   3.576   6.330  14.994 -1.3667 -0.1680  0.8180
 1829TIP3   OH226901   1.745   2.740  14.418  0.2778  0.2587  0.0844
 1829TIP3    H126902   1.729   2.723  14.325 -1.8396  0.4968  0.3839
 1829TIP3    H226903   1.687   2.678  14.464  1.2582  0.1830  1.2539
 1830TIP3   OH226904   6.594   2.902  15.825 -0.2859  0.1854  0.0957
 1830TIP3    H126905   6.689   2.915  15.827 -0.3593  0.6960  0.5943
 1830TIP3    H226906   6.575   2.848  15.901 -0.2151 -1.2357 -0.8888
 1831TIP3   OH226907   6.083   6.127   0.206  0.2199 -0.0343  0.0412
 1831TIP3    H126908   6.039   6.160   0.284  0.1233 -0.1911  0.0537
 1831TIP3    H226909   6.039   6.173   0.134 -1.9253 -2.2634 -0.1534
 1832TIP3   OH226910   1.042   3.457   2.345 -0.0156 -0.1098 -0.4923
 1832TIP3    H126911   1.024   3.449   2.439  0.3143 -2.1308 -0.5683
 1832TIP3    H226912   0.961   3.493   2.309 -1.0487 -1.5691  0.2746
 1833TIP3   OH226913   3.870   5.474   4.428 -0.1777  0.4687  0.0234
 1833TIP3    H126914   3.888   5.446   4.518  0.9634  1.1136  0.0103
 1833TIP3    H226915   3.849   5.567   4.436  3.5157  1.4659 -0.7340
 1834TIP3   OH226916   4.155   3.542  15.405  0.3653  0.7541 -1.0410
 1834TIP3    H126917   4.110   3.490  15.339  0.3619 -0.1349 -0.3454
 1834TIP3    H226918   4.237   3.569  15.362  1.5186 -1.9043 -0.5968
 1835TIP3   OH226919   4.615   1.608   2.526  0.8194  0.3300  0.1444
 1835TIP3    H126920   4.691   1.572   2.480  0.9254  1.1810 -0.3518
 1835TIP3    H226921   4.552   1.536   2.529  1.2764 -0.0886 -0.2837
 1836TIP3   OH226922   1.394   6.127  13.550  0.3424 -0.2967 -0.2037
 1836TIP3    H126923   1.371   6.195  13.487  2.8883  0.8348  0.0172
 1836TIP3    H226924   1.310   6.089  13.576 -0.8682  0.3939 -2.9470
 1837TIP3   OH226925   1.777   1.641   2.552 -0.4852 -0.0935  0.1817
 1837TIP3    H126926   1.699   1.629   2.607 -0.9582 -0.2359 -0.5080
 1837TIP3    H226927   1.851   1.622   2.610 -0.9405  0.5508  0.9867
 1838TIP3   OH226928   6.599   5.611  10.949 -0.7619 -0.3132  0.6855
 1838TIP3    H126929   6.652   5.665  11.008  0.3191  0.5468 -1.0379
 1838TIP3    H226930   6.661   5.551  10.909 -1.4331 -0.6932  0.2008
 1839TIP3   OH226931   4.952   6.055  15.968 -0.0332 -0.1812 -0.4061
 1839TIP3    H126932   4.982   6.094  15.885  0.6058 -2.1133 -1.1058
 1839TIP3    H226933   4.859   6.078  15.973  0.2622  1.1833 -0.9431
 1840TIP3   OH226934   0.624   3.430   5.796  0.1991  0.1191 -0.8408
 1840TIP3    H126935   0.630   3.509   5.849 -1.7670  0.3865 -0.9626
 1840TIP3    H226936   0.680   3.367   5.840 -1.6169  0.2318  1.7722
 1841TIP3   OH226937   4.807   2.848   3.325 -0.5552 -0.1028 -0.0862
 1841TIP3    H126938   4.764   2.780   3.376 -0.0827  0.3955  0.9957
 1841TIP3    H226939   4.805   2.925   3.381  3.1451 -0.4604  0.6778
 1842TIP3   OH226940   1.751   0.954   3.321 -0.1798 -0.3769  0.6500
 1842TIP3    H126941   1.670   0.910   3.346 -0.9398  0.2883 -0.5632
 1842TIP3    H226942   1.727   1.047   3.318  0.8378 -0.0978  1.0452
 1843TIP3   OH226943   1.599   5.364  15.239 -0.0020 -0.0176  0.0645
 1843TIP3    H126944   1.647   5.447  15.246  0.6360 -0.4603  1.1445
 1843TIP3    H226945   1.665   5.301  15.211 -0.9684  0.2504 -2.9765
 1844TIP3   OH226946   0.593   6.054  11.254  0.2478  0.4449 -0.0532
 1844TIP3    H126947   0.669   6.095  11.295  0.6946 -2.1281  1.7950
 1844TIP3    H226948   0.629   5.987  11.196 -0.5996 -1.2245  1.3132
 1845TIP3   OH226949   5.323   4.690  14.313  0.3647  0.3963 -0.4050
 1845TIP3    H126950   5.262   4.651  14.376  0.1520  1.0180 -0.2215
 1845TIP3    H226951   5.276   4.686  14.229 -0.1878  1.4235 -0.1587
 1846TIP3   OH226952   4.910   2.854   3.609  0.3460 -0.1733  0.0929
 1846TIP3    H126953   4.945   2.806   3.684  0.1999  0.2293  0.4170
 1846TIP3    H226954   4.840   2.798   3.576  1.2023 -0.9303 -0.4880
 1847TIP3   OH226955   5.769   3.563   0.752 -0.2682 -1.4633 -0.1790
 1847TIP3    H126956   5.827   3.494   0.718  0.6707 -1.4287  1.2780
 1847TIP3    H226957   5.827   3.618   0.805 -1.6202 -1.3843  1.2568
 1848TIP3   OH226958   4.008   1.296  16.241  0.4580  0.1953 -0.1754
 1848TIP3    H126959   4.082   1.240  16.220  2.7818  2.6446  1.1578
 1848TIP3    H226960   3.997   1.351  16.163  0.7632  0.5856  0.0580
 1849TIP3   OH226961   2.580   4.041  12.271  0.3943 -0.4304  0.1461
 1849TIP3    H126962   2.635   4.031  12.193  0.9370  0.3104  0.4311
 1849TIP3    H226963   2.613   3.975  12.332  0.7802 -0.1813  0.2072
 1850TIP3   OH226964   3.687   5.842   1.548  0.1540 -0.5130 -0.0690
 1850TIP3    H126965   3.755   5.808   1.607  1.1179  1.4398 -0.0326
 1850TIP3    H226966   3.658   5.924   1.588 -0.8527 -0.3521 -1.0934
 1851TIP3   OH226967   1.667   4.430  14.857  0.1093 -0.4582 -0.6255
 1851TIP3    H126968   1.628   4.343  14.867  2.1448 -1.5350 -1.6773
 1851TIP3    H226969   1.609   4.488  14.905 -2.2086 -2.1463 -1.3085
 1852TIP3   OH226970   1.772   6.112   4.285  0.4613  0.8374 -0.2947
 1852TIP3    H126971   1.680   6.141   4.287  0.5664  1.1060  0.6747
 1852TIP3    H226972   1.769   6.021   4.316  0.3861  0.4709 -1.3606
 1853TIP3   OH226973   3.508   3.485   1.553 -0.2979 -0.1015  0.1737
 1853TIP3    H126974   3.588   3.441   1.523 -0.5115  0.2304 -0.9110
 1853TIP3    H226975   3.444   3.467   1.485 -1.0292  0.0195  0.8213
 1854TIP3   OH226976   5.933   6.700   2.549 -0.3006 -0.1268 -0.0421
 1854TIP3    H126977   5.949   6.635   2.618 -2.5571 -1.2829 -0.5795
 1854TIP3    H226978   5.930   6.650   2.468  0.5437  1.0131 -0.8012
 1855TIP3   OH226979   3.643   1.443   4.224  0.3075  0.6955 -0.8196
 1855TIP3    H126980   3.629   1.515   4.286 -2.0990 -0.7963  0.4422
 1855TIP3    H226981   3.705   1.385   4.268  2.0253  1.8196 -1.7157
 1856TIP3   OH226982   4.801   6.530  16.091  0.5378  0.2300  0.1095
 1856TIP3    H126983   4.863   6.487  16.034  1.1661  0.1608  0.8421
 1856TIP3    H226984   4.855   6.584  16.149 -0.0289 -0.3260  1.1714
 1857TIP3   OH226985   0.757   5.785   1.053 -0.5427  0.5704  0.1694
 1857TIP3    H126986   0.812   5.849   1.098 -0.8099  1.0706 -0.2161
 1857TIP3    H226987   0.820   5.725   1.012 -0.2914  0.9828 -0.0460
 1858TIP3   OH226988   5.846   3.313   3.139  0.2529 -0.4260 -0.3416
 1858TIP3    H126989   5.752   3.302   3.154  0.1795 -0.2697 -0.6808
 1858TIP3    H226990   5.888   3.251   3.199 -0.0487 -0.1344  0.1699
 1859TIP3   OH226991   0.843   5.306   4.191  0.2623  0.0755  0.5010
 1859TIP3    H126992   0.916   5.246   4.180  1.4161  1.6061 -0.4157
 1859TIP3    H226993   0.768   5.261   4.154  1.4865 -0.0823 -1.8271
 1860TIP3   OH226994   1.540   2.604   0.543  0.4693  0.6935 -0.6789
 1860TIP3    H126995   1.479   2.601   0.469  1.3813  0.0128 -1.4120
 1860TIP3    H226996   1.551   2.512   0.568  0.5130  0.8900  0.0149
 1861TIP3   OH226997   5.462   0.689   0.991 -0.1462 -0.2088 -1.0195
 1861TIP3    H126998   5.485   0.675   0.900  1.8158 -2.0651 -0.2899
 1861TIP3    H226999   5.528   0.750   1.024 -1.4127  1.2121 -1.0675
 1862TIP3   OH227000   0.150   3.322   2.027  0.9260  0.8054 -0.2728
 1862TIP3    H127001   0.081   3.278   2.074  0.3125  0.7617 -1.1976
 1862TIP3    H227002   0.204   3.362   2.095 -0.1254  1.0221  0.4431
 1863TIP3   OH227003   1.421   3.055   3.150  0.3312  0.8320 -0.0790
 1863TIP3    H127004   1.409   3.100   3.066 -3.6608  0.9250  0.4352
 1863TIP3    H227005   1.375   3.110   3.213 -2.6265 -2.6201  0.9588
 1864TIP3   OH227006   4.691   5.753  16.276  0.5709 -0.0067 -0.1775
 1864TIP3    H127007   4.774   5.757  16.229 -0.5302 -1.1538 -2.3054
 1864TIP3    H227008   4.638   5.691  16.226 -1.3893  0.3094  1.4345
 1865TIP3   OH227009   1.599   3.981  11.693  0.6202  0.6811 -0.2279
 1865TIP3    H127010   1.686   3.942  11.697  0.7181  0.9427  0.2867
 1865TIP3    H227011   1.606   4.060  11.747  0.0037  0.5829 -0.0007
 1866TIP3   OH227012   0.668   5.570   1.889 -0.0196  0.3894  0.3414
 1866TIP3    H127013   0.724   5.492   1.898 -0.1632  0.1699 -0.6182
 1866TIP3    H227014   0.727   5.638   1.857 -0.2718  0.1928 -0.5472
 1867TIP3   OH227015   5.388   3.599  15.193  0.2506 -0.0002  0.3957
 1867TIP3    H127016   5.461   3.597  15.255  0.1569  1.1317  0.5441
 1867TIP3    H227017   5.395   3.516  15.146  1.8144  0.2359  0.1950
 1868TIP3   OH227018   4.886   2.978   4.535  0.1925  0.6757  0.2974
 1868TIP3    H127019   4.976   3.008   4.551  0.1158  2.0459 -1.6272
 1868TIP3    H227020   4.831   3.043   4.578  0.1042  1.0129 -0.3110
 1869TIP3   OH227021   1.674   5.199   0.008  0.7101 -0.3675 -0.0447
 1869TIP3    H127022   1.750   5.216   0.064  1.1751  0.1879 -0.8395
 1869TIP3    H227023   1.633   5.284  -0.004 -1.3477 -0.9702  2.1968
 1870TIP3   OH227024   6.699   0.983  13.783 -0.4769  0.2824  0.4798
 1870TIP3    H127025   6.665   1.035  13.856  0.0692 -0.0681  0.9910
 1870TIP3    H227026   6.644   1.007  13.709 -2.3572 -0.8795  1.4716
 1871TIP3   OH227027   5.246   0.967  14.224  0.1035  0.0582 -0.1921
 1871TIP3    H127028   5.264   0.956  14.131 -0.8465 -0.7917 -0.2880
 1871TIP3    H227029   5.207   0.884  14.251  0.1842  0.3714  0.9196
 1872TIP3   OH227030   0.399   5.198   4.914 -0.0980 -0.2322 -0.6825
 1872TIP3    H127031   0.371   5.245   4.993 -0.9211  0.0121 -1.1190
 1872TIP3    H227032   0.318   5.172   4.871  0.3509 -0.4343 -1.4149
 1873TIP3   OH227033   1.809   0.491  16.985 -0.2131 -0.4032 -0.1859
 1873TIP3    H127034   1.807   0.395  16.990  0.1295 -0.3272  1.5803
 1873TIP3    H227035   1.741   0.519  17.046  1.1088  0.5290  0.8716
 1874TIP3   OH227036   2.916   3.690  13.202  0.1482 -0.0648  0.2031
 1874TIP3    H127037   2.894   3.613  13.254  0.4265  0.8556  1.7246
 1874TIP3    H227038   2.845   3.752  13.219  1.1210  0.8972  0.8814
 1875TIP3   OH227039   1.764   1.801   0.791  0.6059  0.1271 -0.1312
 1875TIP3    H127040   1.754   1.883   0.744 -3.3339  0.6088  1.3538
 1875TIP3    H227041   1.764   1.825   0.883 -4.1817 -1.6507  0.4979
 1876TIP3   OH227042   6.221   3.537   2.110  0.0145  0.1721  0.6451
 1876TIP3    H127043   6.290   3.574   2.056  0.1377 -0.6653  0.2354
 1876TIP3    H227044   6.261   3.461   2.152 -0.4403  0.1069  0.9658
 1877TIP3   OH227045   4.432   1.406   1.134 -0.2928 -0.1271 -0.1941
 1877TIP3    H127046   4.476   1.321   1.132 -0.1366 -0.0371 -1.1488
 1877TIP3    H227047   4.482   1.458   1.197  0.3610 -0.3544 -0.5155
 1878TIP3   OH227048   3.925   6.275  15.030 -0.6112 -0.0948  0.0642
 1878TIP3    H127049   3.988   6.245  14.965  0.7713 -1.1904  1.8478
 1878TIP3    H227050   3.938   6.370  15.035  0.2798 -0.1976 -0.2423
 1879TIP3   OH227051   0.016   3.159  15.589  0.1689 -1.1197 -0.2864
 1879TIP3    H127052   0.035   3.074  15.549 -1.0021 -1.7364  0.4287
 1879TIP3    H227053  -0.069   3.147  15.631 -0.5926  0.7631 -1.1967
 1880TIP3   OH227054   2.401   5.718   4.846 -0.5388 -0.3857  0.1034
 1880TIP3    H127055   2.474   5.663   4.877 -2.9267 -1.3003  4.4265
 1880TIP3    H227056   2.407   5.798   4.899 -1.7878  0.1671 -0.5714
 1881TIP3   OH227057   0.914   3.142  15.965 -0.0234  0.2382  0.0697
 1881TIP3    H127058   0.842   3.199  15.989 -0.1214  2.0596 -4.0743
 1881TIP3    H227059   0.986   3.168  16.022 -1.3806  1.4197  1.2764
 1882TIP3   OH227060   6.230   4.018  16.019 -0.2327 -0.4073  0.2499
 1882TIP3    H127061   6.179   4.039  15.941  1.1403  3.5979  0.3482
 1882TIP3    H227062   6.168   4.024  16.091 -1.3277 -3.3634 -0.3601
 1883TIP3   OH227063   2.855   2.990  10.759 -0.0139  0.1104  0.6711
 1883TIP3    H127064   2.826   3.058  10.820 -1.4904 -0.6653  0.8490
 1883TIP3    H227065   2.902   3.038  10.690  1.8605  0.9790  2.4875
 1884TIP3   OH227066   5.585   0.109   4.434  0.0866 -0.0238 -0.2079
 1884TIP3    H127067   5.590   0.014   4.430 -0.3565 -0.0677  0.2843
 1884TIP3    H227068   5.652   0.139   4.372 -1.1592 -0.6619 -1.9162
 1885TIP3   OH227069   4.496   1.833  12.587  0.4172  0.2532  0.4937
 1885TIP3    H127070   4.469   1.854  12.677 -1.3567  0.6318 -0.0967
 1885TIP3    H227071   4.508   1.919  12.546 -1.3186  0.1360 -0.3315
 1886TIP3   OH227072   6.496   6.161  11.166 -0.3395 -0.7573 -0.8922
 1886TIP3    H127073   6.530   6.214  11.094  0.8544  0.4421  0.5010
 1886TIP3    H227074   6.574   6.134  11.214 -1.0797 -2.0768 -0.4150
 1887TIP3   OH227075   1.875   4.059  11.745 -0.0458 -0.2517  0.8288
 1887TIP3    H127076   1.951   4.009  11.713  0.4042  0.6257  0.5214
 1887TIP3    H227077   1.844   4.009  11.821  1.2687 -0.2444  1.3861
 1888TIP3   OH227078   1.774   1.422   3.332  0.3551 -0.6938  0.4548
 1888TIP3    H127079   1.854   1.389   3.291  0.3646 -0.3016  0.1504
 1888TIP3    H227080   1.704   1.393   3.273  0.3078 -0.7108  0.5199
 1889TIP3   OH227081   6.246   3.507  11.900 -0.3895 -0.4431  0.5466
 1889TIP3    H127082   6.188   3.485  11.827 -0.6594 -1.6252  1.1096
 1889TIP3    H227083   6.201   3.577  11.947 -0.1307  0.4551 -0.5103
 1890TIP3   OH227084   4.077   1.119   1.883  0.1384  0.5973 -0.1843
 1890TIP3    H127085   4.132   1.191   1.852  3.6086 -1.1511  1.5575
 1890TIP3    H227086   4.079   1.054   1.812 -0.6026  0.9876 -0.5667
 1891TIP3   OH227087   3.291   0.078   0.343  0.0383 -0.1299 -0.6549
 1891TIP3    H127088   3.323   0.139   0.410  0.1877 -1.4197  0.4640
 1891TIP3    H227089   3.200   0.104   0.328  0.2116  0.6045 -0.4642
 1892TIP3   OH227090   2.640   4.761  11.835  0.1316 -0.3818  0.3521
 1892TIP3    H127091   2.673   4.834  11.887  0.8215 -0.8758  0.6190
 1892TIP3    H227092   2.717   4.707  11.818  0.0140  0.0477 -1.6340
 1893TIP3   OH227093   6.305   1.964  16.478  0.0330 -0.4180  0.3261
 1893TIP3    H127094   6.301   2.026  16.405 -0.9031 -2.1664 -1.1620
 1893TIP3    H227095   6.348   1.887  16.442 -0.7790 -1.4474  1.5004
 1894TIP3   OH227096   6.455   4.034   5.937  0.4646 -0.3244 -0.4849
 1894TIP3    H127097   6.435   3.941   5.951  0.6451 -0.2376  0.3787
 1894TIP3    H227098   6.516   4.056   6.007 -0.3963  0.7219 -0.0508
 1895TIP3   OH227099   1.984   6.551   3.573  0.4169  0.5844 -0.2484
 1895TIP3    H127100   1.972   6.528   3.665  0.6389  1.3789 -0.0165
 1895TIP3    H227101   1.896   6.563   3.538  0.3051 -0.5010 -0.3429
 1896TIP3   OH227102   1.128   3.814  12.568 -0.1843  0.3712  0.6275
 1896TIP3    H127103   1.186   3.846  12.499  1.6491  0.9076  2.3807
 1896TIP3    H227104   1.084   3.893  12.600 -0.2997  0.2625  0.7393
 1897TIP3   OH227105   1.811   5.093  11.199  0.4076 -0.5662  0.2977
 1897TIP3    H127106   1.861   5.167  11.166 -0.1556 -0.9039 -1.3630
 1897TIP3    H227107   1.846   5.017  11.151  1.0798 -1.4048  2.0756
 1898TIP3   OH227108   0.151   5.081  16.535 -0.0094  0.0294  0.4070
 1898TIP3    H127109   0.197   5.060  16.454 -0.6145  1.1719 -0.2483
 1898TIP3    H227110   0.102   5.001  16.556  2.5206 -1.3437  1.3316
 1899TIP3   OH227111   5.029   0.804  15.720  0.1894 -0.2514  0.4210
 1899TIP3    H127112   5.022   0.784  15.813 -1.1513  1.9277  0.8238
 1899TIP3    H227113   4.963   0.872  15.705  2.3452  1.4672 -1.5137
 1900TIP3   OH227114   5.831   5.619   3.898 -0.1405 -0.0726  0.1104
 1900TIP3    H127115   5.813   5.669   3.818  1.4715 -1.2710 -1.0226
 1900TIP3    H227116   5.926   5.622   3.907 -0.1099 -1.9558  0.6488
 1901TIP3   OH227117   5.092   5.468   4.488  0.6205  0.4874 -0.4123
 1901TIP3    H127118   5.128   5.503   4.570  0.1037 -0.1433  0.0912
 1901TIP3    H227119   5.115   5.534   4.422  0.8614  1.1022  0.2710
 1902TIP3   OH227120   2.528   6.714   3.350  0.4234  0.1524  0.2255
 1902TIP3    H127121   2.476   6.674   3.420 -2.1472  1.4213 -0.8681
 1902TIP3    H227122   2.579   6.642   3.314 -3.5999 -2.1330 -1.2814
 1903TIP3   OH227123   4.757   4.617   6.142 -0.4132  0.0092 -0.5276
 1903TIP3    H127124   4.747   4.594   6.050 -0.8516  4.6425 -1.7501
 1903TIP3    H227125   4.679   4.581   6.185 -1.1531 -0.5504 -2.3217
 1904TIP3   OH227126   2.022   4.362  12.116  0.0678 -0.0784  0.0080
 1904TIP3    H127127   1.940   4.338  12.071  0.6968  1.3112 -1.9968
 1904TIP3    H227128   2.091   4.334  12.056  1.1118 -1.5289  1.8346
 1905TIP3   OH227129   1.714   3.236   0.494 -0.4395 -0.1038  0.1555
 1905TIP3    H127130   1.756   3.252   0.409 -0.9513 -0.4381 -0.1630
 1905TIP3    H227131   1.703   3.323   0.532 -0.3427  0.0615 -0.1892
 1906TIP3   OH227132   5.880   2.502   6.112 -0.0255 -0.1027 -0.1742
 1906TIP3    H127133   5.890   2.423   6.059 -0.2662 -0.8654  0.9035
 1906TIP3    H227134   5.867   2.470   6.202 -1.7481  1.0982  0.0483
 1907TIP3   OH227135   2.352   3.497   5.406 -0.0484 -0.5598 -0.0056
 1907TIP3    H127136   2.261   3.489   5.379 -0.2230 -0.0300  0.4326
 1907TIP3    H227137   2.363   3.433   5.476 -0.1917 -0.3444  0.2150
 1908TIP3   OH227138   3.377   5.157   5.991 -0.5038  0.2806  0.3064
 1908TIP3    H127139   3.344   5.111   6.068  1.7741 -1.8536  0.0886
 1908TIP3    H227140   3.303   5.159   5.930 -0.9639 -2.2257  0.7326
 1909TIP3   OH227141   3.781   2.211   5.350  0.3816 -0.1574  0.4706
 1909TIP3    H127142   3.790   2.120   5.322  2.6165  0.3627 -0.6262
 1909TIP3    H227143   3.805   2.210   5.443 -0.5947 -0.8429  0.7166
 1910TIP3   OH227144   1.698   5.554   5.619  0.2266  0.6417 -0.1815
 1910TIP3    H127145   1.755   5.603   5.679  0.3053  2.3663 -1.6267
 1910TIP3    H227146   1.748   5.548   5.538 -0.9311  0.6246 -0.9017
 1911TIP3   OH227147   6.279   0.868  15.945 -0.0393  0.1727  0.4389
 1911TIP3    H127148   6.335   0.793  15.928 -1.6161 -0.5910 -1.6301
 1911TIP3    H227149   6.314   0.938  15.889 -1.2437 -0.3810 -1.0536
 1912TIP3   OH227150   4.437   4.123  17.225 -0.1555  0.1004  0.0225
 1912TIP3    H127151   4.407   4.053  17.283  0.9653  0.4390  1.0337
 1912TIP3    H227152   4.523   4.093  17.194  0.5694  1.2293  0.8706
 1913TIP3   OH227153   3.188   2.850  16.634  0.1801  0.0851 -0.3924
 1913TIP3    H127154   3.144   2.931  16.660 -0.2459  0.7063 -2.9065
 1913TIP3    H227155   3.279   2.861  16.664 -0.3611  0.5944  1.0875
 1914TIP3   OH227156   0.785   6.111   1.955 -0.8182  0.8386  0.3722
 1914TIP3    H127157   0.871   6.085   1.925  0.5471  1.6209  3.3956
 1914TIP3    H227158   0.764   6.189   1.904  0.5974  1.0610  0.1221
 1915TIP3   OH227159   2.743   3.372   4.959 -0.1622  0.1077 -0.3941
 1915TIP3    H127160   2.835   3.345   4.951 -0.3639 -0.5394 -0.5430
 1915TIP3    H227161   2.696   3.317   4.896 -1.0540 -1.4981  1.6049
 1916TIP3   OH227162   2.684   2.759  11.849  0.3561  0.0159  0.3083
 1916TIP3    H127163   2.676   2.737  11.942 -1.6936 -0.6079  0.0008
 1916TIP3    H227164   2.758   2.707  11.818  0.5841 -0.3323  1.4242
 1917TIP3   OH227165   0.564   4.395  17.001 -0.1034 -0.2676  0.5452
 1917TIP3    H127166   0.549   4.445  16.921  0.4105 -0.8395  0.0918
 1917TIP3    H227167   0.495   4.329  17.002  0.6439 -1.0524 -0.0586
 1918TIP3   OH227168   0.052   3.308  17.221 -0.1968 -0.2353  0.1103
 1918TIP3    H127169   0.010   3.233  17.263 -1.3502 -0.2976 -1.1309
 1918TIP3    H227170  -0.020   3.354  17.178  0.6081  1.2148  0.3126
 1919TIP3   OH227171   6.677   0.115  12.610 -0.4674  0.9093 -0.3637
 1919TIP3    H127172   6.727   0.180  12.659 -1.8320  1.0964  0.8137
 1919TIP3    H227173   6.613   0.166  12.560 -1.1597  0.5242  0.1153
 1920TIP3   OH227174   6.580   6.598  11.512 -0.1924  0.2291 -0.2927
 1920TIP3    H127175   6.575   6.549  11.430  0.2839 -0.7617  0.2553
 1920TIP3    H227176   6.603   6.687  11.485 -0.6166  0.0523 -1.2723
 1921TIP3   OH227177   4.750   4.740   5.203  0.1472  0.3972  0.5044
 1921TIP3    H127178   4.844   4.753   5.192  0.1579  0.2262  0.3935
 1921TIP3    H227179   4.737   4.740   5.297  0.2945  0.1620  0.5247
 1922TIP3   OH227180   3.652   1.519   3.095  0.0251 -1.0438 -0.0182
 1922TIP3    H127181   3.592   1.445   3.097 -0.2277 -0.8483 -0.2857
 1922TIP3    H227182   3.696   1.517   3.180 -1.0197 -0.6376  0.5328
 1923TIP3   OH227183   3.733   6.237   6.554  0.2822 -0.3564  0.3587
 1923TIP3    H127184   3.699   6.149   6.538 -0.8077 -0.0644  1.0195
 1923TIP3    H227185   3.786   6.257   6.477  0.0152 -1.3399 -0.0833
 1924TIP3   OH227186   2.828   2.475  12.481 -0.4184 -0.2479  0.6948
 1924TIP3    H127187   2.898   2.535  12.454 -1.2276  0.3252 -0.1502
 1924TIP3    H227188   2.855   2.446  12.568  0.2454  0.9434  0.9013
 1925TIP3   OH227189   2.789   1.051   5.398 -0.2878 -0.3930 -0.5483
 1925TIP3    H127190   2.837   1.031   5.318 -1.8535 -0.4564 -1.4986
 1925TIP3    H227191   2.806   0.977   5.456  0.4153 -0.6018 -1.0172
 1926TIP3   OH227192   6.743   4.463  13.459  0.0485  0.2601  0.4936
 1926TIP3    H127193   6.806   4.454  13.388 -0.6336 -2.0933  0.1330
 1926TIP3    H227194   6.786   4.520  13.522  2.5916 -1.3862  0.3251
 1927TIP3   OH227195   3.351   6.587   4.987  0.0935  0.1083  0.4166
 1927TIP3    H127196   3.352   6.527   5.062 -1.1951 -0.4239  0.0074
 1927TIP3    H227197   3.295   6.659   5.014 -1.5638 -0.7855 -0.5651
 1928TIP3   OH227198   6.457   2.039  10.212  0.0781  1.3117 -0.0184
 1928TIP3    H127199   6.472   2.098  10.286 -0.1278  1.4178 -0.0595
 1928TIP3    H227200   6.510   2.075  10.141  0.8953  0.7560  0.3080
 1929TIP3   OH227201   2.206   4.504   6.070  0.2139 -0.0131  0.6241
 1929TIP3    H127202   2.132   4.527   6.125 -0.5681 -0.6138 -0.1623
 1929TIP3    H227203   2.199   4.561   5.994  0.1678 -0.5330  0.2348
 1930TIP3   OH227204   4.715   4.051   0.236  0.4007 -0.4211 -0.2487
 1930TIP3    H127205   4.747   3.961   0.232 -0.0848 -0.6516  0.8004
 1930TIP3    H227206   4.788   4.104   0.202  1.3767 -1.0569  0.7949
 1931TIP3   OH227207   3.387   4.580   5.402  0.7806  0.0664 -0.1815
 1931TIP3    H127208   3.333   4.659   5.392 -0.5143 -0.8373 -0.4483
 1931TIP3    H227209   3.383   4.560   5.495  1.9612  0.9018  0.0549
 1932TIP3   OH227210   4.404   3.443   0.143  0.3184  0.1116 -0.1251
 1932TIP3    H127211   4.464   3.474   0.211 -1.3597  2.1201  0.4967
 1932TIP3    H227212   4.451   3.457   0.061  0.5452  2.1032  0.3234
 1933TIP3   OH227213   1.118   6.013  12.521  0.0370 -0.0098 -0.3998
 1933TIP3    H127214   1.189   5.950  12.509 -1.1030 -1.2958 -0.5719
 1933TIP3    H227215   1.061   5.972  12.586 -1.7317 -0.0769 -1.9438
 1934TIP3   OH227216   5.333   6.604   1.453  0.2942 -0.1087  0.2756
 1934TIP3    H127217   5.335   6.666   1.380  0.3135  1.4155  1.5465
 1934TIP3    H227218   5.422   6.603   1.487 -0.0525  0.3397  1.2225
 1935TIP3   OH227219   2.993   5.195   0.420 -0.5569 -0.2414 -0.8557
 1935TIP3    H127220   2.967   5.103   0.414  1.2878 -0.7633 -1.1131
 1935TIP3    H227221   3.012   5.208   0.513 -1.2341 -0.0073 -0.7515
 1936TIP3   OH227222   0.888   5.914  12.879  0.4531  0.4739  0.3924
 1936TIP3    H127223   0.860   6.004  12.863  2.1845  1.5226  2.8388
 1936TIP3    H227224   0.806   5.866  12.892 -0.4888  1.7172 -0.8109
 1937TIP3   OH227225   6.614   1.287  15.472  0.5872 -1.0638 -0.1843
 1937TIP3    H127226   6.672   1.336  15.415  1.2260 -3.1079 -1.3477
 1937TIP3    H227227   6.530   1.332  15.467  0.7391 -1.0197 -2.4709
 1938TIP3   OH227228   0.242   0.400   3.055  0.4252  0.6716  0.3406
 1938TIP3    H127229   0.227   0.329   2.993  1.4119  0.4136  0.3918
 1938TIP3    H227230   0.209   0.366   3.139  1.6915 -0.0635  0.5503
 1939TIP3   OH227231   6.772   2.579   1.165  0.3172 -0.0987  0.0170
 1939TIP3    H127232   6.754   2.488   1.187 -1.9044  0.4240  0.5409
 1939TIP3    H227233   6.825   2.612   1.238 -0.8369 -0.3607  0.9869
 1940TIP3   OH227234   0.778   2.724  12.794  0.4227  0.1420  0.3958
 1940TIP3    H127235   0.772   2.710  12.700 -0.7028  0.1183  0.4569
 1940TIP3    H227236   0.752   2.815  12.806 -1.4796 -0.4267  0.8553
 1941TIP3   OH227237   1.397   0.810  13.423  0.2508 -0.4744  0.1303
 1941TIP3    H127238   1.433   0.765  13.346 -0.5205  0.5223 -0.8324
 1941TIP3    H227239   1.461   0.878  13.443 -0.9747  1.2596 -1.5439
 1942TIP3   OH227240   3.384   5.727   5.932  0.4145 -0.0984 -0.5114
 1942TIP3    H127241   3.392   5.741   5.838  0.7712 -1.4813 -0.6991
 1942TIP3    H227242   3.457   5.776   5.970 -0.8804  2.0878 -0.7770
 1943TIP3   OH227243   5.312   2.499   0.262  0.1976 -0.1378 -0.4812
 1943TIP3    H127244   5.360   2.533   0.337 -1.7322  1.3394  0.1318
 1943TIP3    H227245   5.220   2.505   0.287 -0.4050 -1.1625 -2.3243
 1944TIP3   OH227246   6.608   2.908   4.077  0.3587  0.1193  0.7045
 1944TIP3    H127247   6.613   2.911   3.981  0.5463 -0.7803  0.6879
 1944TIP3    H227248   6.646   2.824   4.101  0.3705  0.3665  1.5805
 1945TIP3   OH227249   2.183   4.920  13.235 -0.0033 -0.6139  0.7344
 1945TIP3    H127250   2.246   4.877  13.178 -0.5889 -0.5825  0.0613
 1945TIP3    H227251   2.139   4.848  13.281  0.1956 -0.6542  0.8661
 1946TIP3   OH227252   3.106   4.644  14.435  0.6380 -0.0530  0.6161
 1946TIP3    H127253   3.071   4.728  14.405 -0.5447 -0.1115  1.7912
 1946TIP3    H227254   3.083   4.583  14.365  0.7731  0.4291  0.1409
 1947TIP3   OH227255   4.019   0.573  14.984 -0.0031  0.1202  0.2179
 1947TIP3    H127256   3.985   0.491  15.020  0.3631 -0.0127  0.2614
 1947TIP3    H227257   3.955   0.599  14.918  1.8044 -2.2275 -2.5882
 1948TIP3   OH227258   5.212   5.069   2.927 -0.0648 -0.5007 -0.0704
 1948TIP3    H127259   5.157   5.038   2.855 -0.7695 -1.4749  0.8657
 1948TIP3    H227260   5.276   4.999   2.939  1.2082  0.5023 -0.9682
 1949TIP3   OH227261   1.759   4.097   5.287 -0.2448 -0.4500 -0.1990
 1949TIP3    H127262   1.826   4.059   5.231 -0.1100 -0.8367  0.2292
 1949TIP3    H227263   1.785   4.189   5.296 -1.6558  0.2679 -2.8750
 1950TIP3   OH227264   1.059   1.254  15.554  0.2626 -0.3058 -0.0383
 1950TIP3    H127265   1.076   1.298  15.471  0.4832  0.4631  0.4071
 1950TIP3    H227266   0.975   1.290  15.583  0.4380 -0.1885  0.3207
 1951TIP3   OH227267   6.007   0.739  15.072 -0.0724 -0.0096  0.1233
 1951TIP3    H127268   5.974   0.686  15.144 -1.3320  0.0697 -0.3868
 1951TIP3    H227269   5.937   0.801  15.053  1.1035  1.3953  0.2513
 1952TIP3   OH227270   2.492   6.654   3.024 -0.0958  0.3128 -0.4963
 1952TIP3    H127271   2.407   6.691   3.047 -0.6592 -0.3661 -1.4494
 1952TIP3    H227272   2.471   6.581   2.965  0.9537 -1.8140  1.6455
 1953TIP3   OH227273   3.922   1.607   1.009  0.4604  0.0845 -0.5245
 1953TIP3    H127274   3.831   1.580   1.027  1.6662 -2.6356  2.0121
 1953TIP3    H227275   3.935   1.683   1.065  0.2736 -0.6234  0.4995
 1954TIP3   OH227276   4.394   4.076  14.891 -0.2912 -0.2555  0.5261
 1954TIP3    H127277   4.376   4.087  14.798  1.4824  0.8221  0.2687
 1954TIP3    H227278   4.398   3.981  14.904 -0.8036 -0.4146 -0.4405
 1955TIP3   OH227279   0.144   4.782  13.448 -0.0947  0.9402  0.4010
 1955TIP3    H127280   0.203   4.726  13.498  1.0692  1.4113 -0.4185
 1955TIP3    H227281   0.057   4.751  13.471  0.5403 -1.8429 -0.7375
 1956TIP3   OH227282   5.025   2.223  12.715 -0.2225  0.7977 -0.3582
 1956TIP3    H127283   5.027   2.222  12.811  2.1121 -2.7273 -0.3503
 1956TIP3    H227284   4.960   2.156  12.692  0.5118  0.3484 -1.1896
 1957TIP3   OH227285   4.570   1.919  13.132 -0.3144  0.2178 -0.1350
 1957TIP3    H127286   4.641   1.872  13.175 -1.4780  0.6028  2.2385
 1957TIP3    H227287   4.605   2.007  13.116 -0.5542  0.6959  1.8840
 1958TIP3   OH227288   4.246   5.665   1.039 -0.1919  0.0616 -0.0195
 1958TIP3    H127289   4.277   5.756   1.040  0.0509 -0.0233  0.5156
 1958TIP3    H227290   4.326   5.613   1.044 -0.1190 -0.2471 -3.3532
 1959TIP3   OH227291   2.755   6.544  12.351 -0.6540  0.1565  0.5071
 1959TIP3    H127292   2.773   6.486  12.277  0.3056 -0.6937  1.3920
 1959TIP3    H227293   2.706   6.490  12.413 -2.1738  1.1059  0.1361
 1960TIP3   OH227294   3.369   5.497  12.664 -0.0130 -0.4959 -0.5782
 1960TIP3    H127295   3.331   5.581  12.690 -0.6498 -0.5649 -1.3052
 1960TIP3    H227296   3.417   5.516  12.584  0.8787 -0.5719 -0.0801
 1961TIP3   OH227297   1.950   6.029  11.918  0.2390  0.3402 -0.6501
 1961TIP3    H127298   1.903   6.058  11.840 -0.5568  0.7804 -0.0241
 1961TIP3    H227299   1.882   6.023  11.986  1.1137  1.1111  0.3129
 1962TIP3   OH227300   4.202   2.174  14.084 -0.3912  0.5540 -0.5930
 1962TIP3    H127301   4.285   2.208  14.117 -0.8482  0.9547  0.1650
 1962TIP3    H227302   4.136   2.216  14.139 -0.9560 -1.8302  0.5825
 1963TIP3   OH227303   0.890   1.821   3.149  0.2730  0.2036  0.3560
 1963TIP3    H127304   0.953   1.772   3.200 -0.8737  0.3252  1.9180
 1963TIP3    H227305   0.858   1.758   3.083  1.1188 -0.1999  0.3250
 1964TIP3   OH227306   2.595   5.782   4.667  0.0646 -0.1695 -0.1051
 1964TIP3    H127307   2.640   5.834   4.734 -0.3392  1.1802 -0.8573
 1964TIP3    H227308   2.504   5.779   4.695  0.1910 -0.9955  0.2427
 1965TIP3   OH227309   6.681   6.534   5.604 -0.0071 -0.0615 -0.0500
 1965TIP3    H127310   6.748   6.585   5.652  1.8923 -1.0465 -1.5864
 1965TIP3    H227311   6.704   6.443   5.622 -0.4941 -0.4106 -1.1938
 1966TIP3   OH227312   4.052   2.686  10.960  0.0262 -0.5517 -0.6264
 1966TIP3    H127313   4.098   2.617  11.008 -0.1974 -0.8376 -0.8168
 1966TIP3    H227314   4.091   2.684  10.873  1.7040  1.2020  0.0683
 1967TIP3   OH227315   2.897   3.106   5.242  0.0242 -0.3227  0.7382
 1967TIP3    H127316   2.815   3.072   5.278  0.8636 -1.2055  1.8495
 1967TIP3    H227317   2.935   3.031   5.196  0.0011  0.2092 -0.1649
 1968TIP3   OH227318   6.126   2.967  13.812  0.4365  0.5314  0.1661
 1968TIP3    H127319   6.065   2.899  13.842 -0.0040  1.7645  2.1688
 1968TIP3    H227320   6.145   2.944  13.721 -1.3322 -1.0879  0.1769
 1969TIP3   OH227321   1.617   0.594   2.569 -0.6500 -0.1709 -0.0765
 1969TIP3    H127322   1.708   0.610   2.596 -0.5903  0.3231 -0.5699
 1969TIP3    H227323   1.582   0.537   2.638 -0.1272  0.0702  0.3956
 1970TIP3   OH227324   6.041   4.737  13.699  0.0190 -0.2785 -0.0486
 1970TIP3    H127325   5.957   4.776  13.723  0.5551  0.1545  1.1848
 1970TIP3    H227326   6.103   4.810  13.702  0.3297 -0.4691 -1.5763
 1971TIP3   OH227327   4.471   2.474   0.604 -0.7689 -0.3613  0.0284
 1971TIP3    H127328   4.407   2.546   0.611 -0.8040 -0.1443 -2.2140
 1971TIP3    H227329   4.548   2.507   0.650 -1.4115  0.3747  0.6070
 1972TIP3   OH227330   2.438   0.290  12.800 -0.4899 -0.4354  0.2656
 1972TIP3    H127331   2.517   0.297  12.854 -0.4708  0.6341  0.1128
 1972TIP3    H227332   2.430   0.196  12.782  1.0395 -0.5057 -0.1525
 1973TIP3   OH227333   3.968   6.158   2.296  0.2762 -0.2158  0.1549
 1973TIP3    H127334   3.887   6.207   2.315 -1.2419 -2.5343 -0.2055
 1973TIP3    H227335   3.979   6.167   2.201 -0.3884 -1.1583 -0.0119
 1974TIP3   OH227336   3.798   5.041   0.472 -0.3930 -0.0447 -0.4289
 1974TIP3    H127337   3.831   5.083   0.551 -1.2698 -1.7564  0.9010
 1974TIP3    H227338   3.719   5.090   0.450  0.3582  1.0129 -0.7907
 1975TIP3   OH227339   3.176   3.910   2.660 -0.3319 -0.1911 -0.0529
 1975TIP3    H127340   3.271   3.922   2.654 -0.3887 -0.3154 -1.1339
 1975TIP3    H227341   3.162   3.882   2.751  0.9723 -3.0042 -0.6716
 1976TIP3   OH227342   5.613   0.399  11.247  0.5868  0.3875 -0.8180
 1976TIP3    H127343   5.602   0.493  11.235  0.5235  0.1966 -2.3030
 1976TIP3    H227344   5.542   0.360  11.196  1.2492 -0.4950 -1.0731
 1977TIP3   OH227345   1.041   5.524  13.285  0.0366  0.6213 -0.7687
 1977TIP3    H127346   0.948   5.537  13.306  0.1178 -1.3365  0.9474
 1977TIP3    H227347   1.086   5.530  13.369  1.3165  0.2895 -1.4146
 1978TIP3   OH227348   2.289   1.314  12.021 -0.1499 -0.5113 -0.0890
 1978TIP3    H127349   2.284   1.220  12.007 -0.3789 -0.3429 -1.1754
 1978TIP3    H227350   2.373   1.327  12.067 -0.4181 -1.2992  0.6300
 1979TIP3   OH227351   2.268   1.659  13.614 -0.5697 -0.9755 -0.5873
 1979TIP3    H127352   2.269   1.707  13.696  1.2440 -0.2429 -1.0107
 1979TIP3    H227353   2.178   1.666  13.582 -0.3926  1.9406 -0.5131
 1980TIP3   OH227354   5.473   5.734  13.396 -0.0119  0.5208  0.2678
 1980TIP3    H127355   5.401   5.701  13.450  0.3632 -0.9031 -0.0862
 1980TIP3    H227356   5.464   5.829  13.400 -1.4804  0.3753  0.8138
 1981TIP3   OH227357   0.949   6.583   2.471 -0.4338 -0.5597 -0.2778
 1981TIP3    H127358   1.001   6.583   2.551  0.2091  1.7286 -0.6543
 1981TIP3    H227359   1.013   6.564   2.401 -0.3346  0.7608 -0.5740
 1982TIP3   OH227360   2.487   1.748  16.598  0.0001  0.0661 -0.4023
 1982TIP3    H127361   2.507   1.779  16.510  2.1971  0.0624  0.0674
 1982TIP3    H227362   2.441   1.821  16.639 -1.9407 -0.3016 -1.8461
 1983TIP3   OH227363   6.336   4.465  16.862 -0.1360  0.2753  0.3095
 1983TIP3    H127364   6.424   4.483  16.829 -0.3538  1.2591  0.2600
 1983TIP3    H227365   6.278   4.483  16.788 -0.4239  0.1484  0.5018
 1984TIP3   OH227366   3.784   4.383  16.256 -0.0189 -0.0159 -0.8204
 1984TIP3    H127367   3.727   4.435  16.313  1.5514 -2.0754  2.7809
 1984TIP3    H227368   3.723   4.331  16.203 -1.5055  1.5133 -0.6684
 1985TIP3   OH227369   3.428   4.624   3.445 -0.2371  0.2396 -0.1502
 1985TIP3    H127370   3.460   4.548   3.494 -1.7998 -0.9071 -0.8649
 1985TIP3    H227371   3.481   4.626   3.366 -0.4803 -0.3971 -0.3363
 1986TIP3   OH227372   0.116   4.743  16.240 -0.5297  0.3220 -0.6536
 1986TIP3    H127373   0.067   4.674  16.194  0.4056  0.0900 -1.3021
 1986TIP3    H227374   0.061   4.764  16.316 -0.8850 -1.0639 -0.5077
 1987TIP3   OH227375   2.460   6.211  15.339 -0.8735 -0.5161  0.1398
 1987TIP3    H127376   2.389   6.275  15.349 -3.2053 -2.9106 -0.6252
 1987TIP3    H227377   2.433   6.157  15.265  2.3045 -0.8443 -0.8644
 1988TIP3   OH227378   4.647   3.671   2.820 -0.0790 -0.5180 -0.1362
 1988TIP3    H127379   4.701   3.705   2.748 -0.8478  0.3245 -0.3160
 1988TIP3    H227380   4.641   3.743   2.882 -0.3526 -0.8735  0.2570
 1989TIP3   OH227381   1.204   5.793   0.829  0.2873  0.3461 -0.0071
 1989TIP3    H127382   1.116   5.832   0.830  0.3724  0.5791 -0.7536
 1989TIP3    H227383   1.190   5.705   0.795 -0.0366 -0.6465  2.6075
 1990TIP3   OH227384   5.501   6.584  11.704  0.0370 -0.3358 -0.5639
 1990TIP3    H127385   5.419   6.630  11.682  0.6562 -0.6516 -3.8143
 1990TIP3    H227386   5.567   6.653  11.707 -0.1271 -0.2163  1.0840
 1991TIP3   OH227387   5.788   5.605   3.290 -0.1243  0.0992 -0.0984
 1991TIP3    H127388   5.768   5.692   3.325  1.4776  0.2042  0.6415
 1991TIP3    H227389   5.788   5.617   3.195 -1.9034  0.4322 -0.0710
 1992TIP3   OH227390   6.053   4.390  12.240 -0.0010  0.0805  0.0086
 1992TIP3    H127391   6.070   4.334  12.164  0.6114 -1.0692  0.9678
 1992TIP3    H227392   5.958   4.402  12.241  0.0732  0.8916 -1.4780
 1993TIP3   OH227393   6.554   4.732   4.709 -0.3224 -0.3156 -0.0249
 1993TIP3    H127394   6.524   4.818   4.679 -1.9522 -0.8693 -0.0345
 1993TIP3    H227395   6.629   4.712   4.652 -0.1440  0.9354 -0.2512
 1994TIP3   OH227396   5.021   1.829  13.614  0.4469  0.4091  0.0339
 1994TIP3    H127397   5.012   1.924  13.615 -0.9547  0.3572 -2.6128
 1994TIP3    H227398   5.050   1.809  13.525 -2.0099 -1.8227 -0.3423
 1995TIP3   OH227399   2.138   2.186  15.184  0.4374  0.4004  0.2989
 1995TIP3    H127400   2.095   2.177  15.099  0.1750 -0.2267  0.4931
 1995TIP3    H227401   2.092   2.258  15.227 -0.6676 -0.4930  0.6458
 1996TIP3   OH227402   4.162   4.189   4.668  0.6415  0.0350  0.1335
 1996TIP3    H127403   4.234   4.249   4.650  1.2213 -1.0683 -1.3646
 1996TIP3    H227404   4.196   4.132   4.737  0.9815 -0.0793 -0.1249
 1997TIP3   OH227405   4.731   3.623   1.906 -0.2228  0.6793  0.3863
 1997TIP3    H127406   4.818   3.625   1.945 -0.0699  0.1551  0.0742
 1997TIP3    H227407   4.673   3.653   1.976 -0.0214 -0.8139  1.2255
 1998TIP3   OH227408   0.736   3.359  16.044 -0.1881  0.1662  0.1060
 1998TIP3    H127409   0.804   3.344  16.110  0.6828  0.0633 -0.7933
 1998TIP3    H227410   0.715   3.452  16.052  1.2482  0.5805 -0.6998
 1999TIP3   OH227411   4.466   1.252  14.555 -0.5175 -0.9707 -0.3843
 1999TIP3    H127412   4.533   1.305  14.512 -1.1952  1.2341  1.1799
 1999TIP3    H227413   4.514   1.198  14.617 -0.1890  0.9336  1.0580
 2000TIP3   OH227414   5.630   0.383   4.752  0.3062  0.4045 -0.3178
 2000TIP3    H127415   5.680   0.301   4.750 -1.0940 -0.4723  0.3058
 2000TIP3    H227416   5.622   0.404   4.845 -0.9273  0.2683 -0.3895
 2001TIP3   OH227417   5.717   4.321  13.267 -1.2756  0.6590  0.0344
 2001TIP3    H127418   5.700   4.238  13.222 -0.4102 -0.2602  1.3598
 2001TIP3    H227419   5.801   4.308  13.311 -2.5589  1.1422  2.7459
 2002TIP3   OH227420   2.555   6.711  11.076 -0.0785  0.1121  0.6447
 2002TIP3    H127421   2.646   6.702  11.050 -0.0605 -0.3924  0.8896
 2002TIP3    H227422   2.509   6.734  10.995  0.3802  1.1718  0.6711
 2003TIP3   OH227423   0.869   6.604  13.593  0.8642 -0.1479 -0.2972
 2003TIP3    H127424   0.873   6.519  13.549 -0.1230 -0.3667  0.0286
 2003TIP3    H227425   0.960   6.623  13.616  0.8049 -2.6452  2.4745
 2004TIP3   OH227426   3.677   6.371  11.782 -0.0988  0.2468 -0.1666
 2004TIP3    H127427   3.769   6.397  11.773 -0.6101  2.2382  0.2010
 2004TIP3    H227428   3.681   6.282  11.819  1.6755  0.1273 -0.6099
 2005TIP3   OH227429   4.268   3.568  13.480  0.7318  0.4351 -0.2008
 2005TIP3    H127430   4.261   3.473  13.488 -0.6184  0.5890  0.5707
 2005TIP3    H227431   4.196   3.593  13.422  0.7511  1.0490  0.0338
 2006TIP3   OH227432   1.051   4.545   3.154  0.3393  0.1254 -0.0665
 2006TIP3    H127433   1.035   4.454   3.181  0.5696 -0.4763 -1.8789
 2006TIP3    H227434   1.146   4.553   3.152  0.3406  0.0000 -1.1261
 2007TIP3   OH227435   3.896   0.144  16.281 -0.0409 -0.3881 -0.0866
 2007TIP3    H127436   3.945   0.062  16.293  0.4466 -0.0473  0.2782
 2007TIP3    H227437   3.909   0.166  16.188 -1.1709 -1.3522 -0.4755
 2008TIP3   OH227438   6.713   5.901   1.523  0.6055 -0.2726  0.0244
 2008TIP3    H127439   6.788   5.847   1.498  0.8981  0.0977  0.1124
 2008TIP3    H227440   6.653   5.840   1.565  0.0983 -0.9262 -1.6009
 2009TIP3   OH227441   0.660   0.324  14.136  0.4824  0.1458 -0.2873
 2009TIP3    H127442   0.669   0.417  14.118  0.2519 -0.1755 -2.0995
 2009TIP3    H227443   0.608   0.289  14.064 -1.7028 -0.9270  1.7482
 2010TIP3   OH227444   6.387   0.265  17.161  0.1025 -0.4624  0.0320
 2010TIP3    H127445   6.336   0.193  17.199 -0.5471 -0.0459 -0.0375
 2010TIP3    H227446   6.466   0.224  17.127  0.3978 -0.9406  1.2629
 2011TIP3   OH227447   2.922   2.847   3.362  0.0293  0.0136 -0.3031
 2011TIP3    H127448   2.829   2.860   3.381  0.1116 -0.3069  0.3531
 2011TIP3    H227449   2.922   2.792   3.283 -0.3518 -0.8009  0.2538
 2012TIP3   OH227450   2.285   6.116   4.043 -0.4150 -0.3926  0.0036
 2012TIP3    H127451   2.312   6.087   3.956 -1.2323 -0.8141 -0.1203
 2012TIP3    H227452   2.289   6.036   4.096 -3.6850 -1.0152 -0.5820
 2013TIP3   OH227453   1.053   4.089  11.134  0.3368 -0.2815 -0.4414
 2013TIP3    H127454   1.062   4.083  11.038  1.3353 -0.7317 -0.3192
 2013TIP3    H227455   1.134   4.052  11.168  0.3835  0.7595  0.5746
 2014TIP3   OH227456   3.427   6.221  15.199  0.5795 -0.1313 -0.6376
 2014TIP3    H127457   3.464   6.172  15.125  2.1771  2.1469 -1.4031
 2014TIP3    H227458   3.503   6.257  15.244 -0.5202  0.9147  0.4071
 2015TIP3   OH227459   6.300   0.222   3.125 -0.1433  0.2888 -0.0910
 2015TIP3    H127460   6.342   0.236   3.041  1.0964  1.0195  0.6325
 2015TIP3    H227461   6.207   0.211   3.104  0.0363  1.2685 -1.4780
 2016TIP3   OH227462   5.074   1.773   0.178 -0.1068 -0.0487  0.0070
 2016TIP3    H127463   5.002   1.780   0.116  0.4472 -0.2300 -0.6634
 2016TIP3    H227464   5.145   1.733   0.128  0.2110 -0.5930  0.8701
 2017TIP3   OH227465   0.411   0.994  10.813 -0.2131  0.1300  0.0284
 2017TIP3    H127466   0.334   0.988  10.869 -0.3484  0.9313 -0.0717
 2017TIP3    H227467   0.391   0.938  10.738 -0.5678  0.0917  0.1508
 2018TIP3   OH227468   1.741   3.292  10.518  0.0062 -0.0671 -0.6537
 2018TIP3    H127469   1.797   3.345  10.575  1.9286  0.9105 -3.3010
 2018TIP3    H227470   1.796   3.218  10.493 -1.4112 -1.4030  0.1446
 2019TIP3   OH227471   6.745   5.885  13.570 -0.0686 -0.8650 -0.1421
 2019TIP3    H127472   6.737   5.980  13.575 -1.1870 -0.9794  0.5440
 2019TIP3    H227473   6.707   5.861  13.486  0.0794 -0.7186 -0.2492
 2020TIP3   OH227474   1.729   0.519  14.618  0.1302  0.0873  0.0731
 2020TIP3    H127475   1.647   0.494  14.660 -0.5642  0.7461 -0.8703
 2020TIP3    H227476   1.786   0.443  14.630 -0.2239  0.0683  1.7374
 2021TIP3   OH227477   1.777   4.729   5.824  0.1267  0.0558  0.1039
 2021TIP3    H127478   1.841   4.659   5.808 -0.4010 -0.3486 -0.2605
 2021TIP3    H227479   1.753   4.719   5.916  0.7098  0.3115  0.2857
 2022TIP3   OH227480   3.039   1.848  12.445 -0.1858  0.2573  0.4649
 2022TIP3    H127481   3.034   1.756  12.472 -0.7968 -0.1180 -0.8629
 2022TIP3    H227482   3.004   1.897  12.520 -1.3414 -0.7089  0.5741
 2023TIP3   OH227483   6.312   0.127   0.464  0.4591 -0.4142  0.2251
 2023TIP3    H127484   6.345   0.213   0.492 -0.2108 -0.3537  0.8472
 2023TIP3    H227485   6.368   0.103   0.390  1.8915 -0.3262  1.2616
 2024TIP3   OH227486   0.757   3.685  17.165 -0.4536 -0.0485  0.4399
 2024TIP3    H127487   0.732   3.695  17.073  1.9921  1.6623 -0.0804
 2024TIP3    H227488   0.698   3.744  17.212  1.9352  3.4292 -0.6973
 2025TIP3   OH227489   1.973   2.866   4.306  0.2333  0.0385  0.6863
 2025TIP3    H127490   1.911   2.911   4.248 -0.3818  0.1041  1.3792
 2025TIP3    H227491   1.990   2.928   4.377  0.6786 -0.1825  0.7751
 2026TIP3   OH227492   0.813   2.742   4.432  0.5397 -0.1950 -0.2594
 2026TIP3    H127493   0.871   2.700   4.496 -1.0708 -2.1904 -0.0968
 2026TIP3    H227494   0.869   2.759   4.357  1.2636 -2.4201 -0.2323
 2027TIP3   OH227495   5.989   6.214   1.190 -0.2938 -0.0221 -0.4477
 2027TIP3    H127496   5.997   6.246   1.280  0.1036 -1.4215  0.0171
 2027TIP3    H227497   5.929   6.277   1.148 -1.1991  0.1305  1.0273
 2028TIP3   OH227498   6.068   5.009  15.772 -0.5100 -0.2632  0.0824
 2028TIP3    H127499   6.072   5.088  15.827 -0.1146 -0.7861  0.8070
 2028TIP3    H227500   6.147   5.014  15.718 -0.4774 -0.1650  0.1378
 2029TIP3   OH227501   5.431   6.727  10.543 -0.4233 -0.3618 -0.0735
 2029TIP3    H127502   5.472   6.758  10.624 -0.6514  1.4011 -0.6161
 2029TIP3    H227503   5.360   6.789  10.526 -0.2363 -0.5780 -1.7435
 2030TIP3   OH227504   5.792   5.977  15.716 -0.4650 -0.2103 -0.0595
 2030TIP3    H127505   5.776   5.971  15.622  0.1671 -0.5075 -0.1520
 2030TIP3    H227506   5.706   5.993  15.755 -0.4028  2.4004 -0.9167
 2031TIP3   OH227507   1.899   5.504  16.561 -0.3014  0.6362 -0.4578
 2031TIP3    H127508   1.849   5.480  16.639  2.2303  0.8464  1.3178
 2031TIP3    H227509   1.842   5.563  16.512 -1.8216  0.7414  1.3847
 2032TIP3   OH227510   3.623   1.309   3.991  0.5345 -0.5425 -0.0176
 2032TIP3    H127511   3.703   1.267   4.022  0.4590  0.1752  1.1881
 2032TIP3    H227512   3.601   1.372   4.060 -0.6072 -0.1502 -0.7298
 2033TIP3   OH227513   6.647   1.506  16.745  0.0545  0.0905  0.0023
 2033TIP3    H127514   6.645   1.577  16.809  1.6007  0.7599 -0.6507
 2033TIP3    H227515   6.737   1.473  16.749  0.4359  0.7334 -2.4194
 2034TIP3   OH227516   4.031   4.754   0.988 -0.4569 -0.2194 -0.2519
 2034TIP3    H127517   4.029   4.799   1.072 -0.4357  0.2755 -0.5133
 2034TIP3    H227518   3.942   4.720   0.976  0.1204 -2.2926  1.0338
 2035TIP3   OH227519   4.268   1.342  14.770  0.3448 -0.1719  0.2480
 2035TIP3    H127520   4.324   1.332  14.847  0.7243 -1.5685 -0.1847
 2035TIP3    H227521   4.328   1.334  14.695 -0.2690 -0.5822 -0.2066
 2036TIP3   OH227522   3.704   3.402  15.290  0.6195 -0.1031 -0.0350
 2036TIP3    H127523   3.678   3.437  15.204 -0.2324  0.4096  0.4183
 2036TIP3    H227524   3.724   3.310  15.274 -1.0404 -0.3951 -0.5041
 2037TIP3   OH227525   0.663   2.890  12.375  0.1797  0.2635  0.4778
 2037TIP3    H127526   0.647   2.839  12.454 -2.0147  0.8107  0.4110
 2037TIP3    H227527   0.578   2.897  12.332  1.5577 -1.1800 -2.6742
 2038TIP3   OH227528   1.493   3.377  11.368 -0.6467  0.5864 -0.1549
 2038TIP3    H127529   1.539   3.360  11.285 -2.3342  0.4923 -1.0996
 2038TIP3    H227530   1.415   3.323  11.363 -1.9085  2.3150  0.4774
 2039TIP3   OH227531   0.353   0.355   0.665 -0.1075  0.1058 -0.1461
 2039TIP3    H127532   0.281   0.340   0.727 -2.2401  1.9520 -2.0787
 2039TIP3    H227533   0.350   0.449   0.647  2.7906  0.2096 -0.3234
 2040TIP3   OH227534   6.175   0.254  12.444  0.1906 -0.2365  0.0268
 2040TIP3    H127535   6.169   0.330  12.386  1.5408 -0.1464 -0.0225
 2040TIP3    H227536   6.140   0.182  12.392 -0.6095  0.2400 -0.1179
 2041TIP3   OH227537   2.772   4.671   6.657 -0.0276 -0.1350  0.1897
 2041TIP3    H127538   2.824   4.718   6.721 -2.1375  0.2545  1.6849
 2041TIP3    H227539   2.787   4.578   6.677  0.9578 -0.0521 -0.1364
 2042TIP3   OH227540   1.244   2.559   3.148 -0.2737 -0.1799  0.0309
 2042TIP3    H127541   1.247   2.646   3.188  1.9230 -0.0382 -0.3901
 2042TIP3    H227542   1.254   2.498   3.221 -0.4846 -0.0367  0.1795
 2043TIP3   OH227543   3.119   5.016  16.969 -0.1388 -0.4429  0.1094
 2043TIP3    H127544   3.046   5.054  17.018  0.3854  1.4229 -0.5447
 2043TIP3    H227545   3.085   5.005  16.880  0.5810  1.1088 -0.3782
 2044TIP3   OH227546   6.562   2.591   5.408  0.1055 -0.5309 -0.2666
 2044TIP3    H127547   6.487   2.553   5.454  0.1886 -0.8168 -0.3612
 2044TIP3    H227548   6.638   2.554   5.452  0.2023  0.5081  0.4449
 2045TIP3   OH227549   5.406   5.149  16.771  0.0244  0.4403 -0.1309
 2045TIP3    H127550   5.428   5.242  16.766  1.9007 -0.0640 -1.8382
 2045TIP3    H227551   5.345   5.134  16.698  0.3186  0.1690 -0.3209
 2046TIP3   OH227552   3.978   4.838   0.738 -0.6236  0.2525  0.2818
 2046TIP3    H127553   3.949   4.925   0.767 -1.3080  0.1787 -0.1597
 2046TIP3    H227554   4.013   4.797   0.817 -1.5210  0.4330  0.7860
 2047TIP3   OH227555   1.025   1.153  16.282  0.4007 -0.4760  0.1800
 2047TIP3    H127556   1.035   1.069  16.327  0.7945  0.5268  2.0284
 2047TIP3    H227557   1.101   1.204  16.310  0.6243  0.2068 -1.6125
 2048TIP3   OH227558   3.292   0.048   4.264 -0.5725  0.4357 -0.3627
 2048TIP3    H127559   3.220   0.077   4.321 -0.5060  0.9601 -0.5455
 2048TIP3    H227560   3.252  -0.019   4.208 -1.6716  2.7476 -2.4202
 2049TIP3   OH227561   4.394   5.922  16.414  0.2282 -0.7368 -0.0983
 2049TIP3    H127562   4.394   5.828  16.394 -2.7365 -0.6757 -0.5982
 2049TIP3    H227563   4.327   5.932  16.481 -0.3379  1.1905 -0.9360
 2050TIP3   OH227564   2.293   0.860   2.447  0.5389 -0.5057  0.0312
 2050TIP3    H127565   2.309   0.804   2.371 -1.3695 -0.0488 -0.7426
 2050TIP3    H227566   2.372   0.914   2.454 -0.2252  1.1514 -3.1738
 2051TIP3   OH227567   2.481   5.232  15.874 -0.4910  0.6277 -0.5018
 2051TIP3    H127568   2.516   5.256  15.788  1.1117 -0.2629 -0.1380
 2051TIP3    H227569   2.387   5.250  15.868 -0.1993  1.7836 -2.0008
 2052TIP3   OH227570   2.002   1.228  16.150 -0.6670  0.0277 -0.3912
 2052TIP3    H127571   2.004   1.201  16.058  0.3754  0.9981 -0.6650
 2052TIP3    H227572   1.968   1.318  16.147  1.9328  1.0563 -0.0938
 2053TIP3   OH227573   3.516   1.737  14.287 -0.6254 -0.0991 -0.4910
 2053TIP3    H127574   3.592   1.792  14.270 -0.5974  0.0208  0.0136
 2053TIP3    H227575   3.441   1.790  14.257 -0.6081  0.2651  0.0988
 2054TIP3   OH227576   5.689   4.443   1.787 -0.4651 -0.2335 -0.1320
 2054TIP3    H127577   5.660   4.462   1.876  0.8367 -1.8384  0.6544
 2054TIP3    H227578   5.770   4.494   1.778 -1.0473  0.6049 -0.7149
 2055TIP3   OH227579   5.723   1.291  11.439 -0.0155 -0.6396 -0.6049
 2055TIP3    H127580   5.800   1.325  11.485  0.2382 -0.3948 -1.2015
 2055TIP3    H227581   5.654   1.354  11.458 -0.0968 -0.9159  0.0178
 2056TIP3   OH227582   0.495   6.458  15.360 -0.5859 -0.1800  0.0879
 2056TIP3    H127583   0.501   6.364  15.379  0.0349 -0.1815 -0.1209
 2056TIP3    H227584   0.548   6.470  15.281 -0.6632  0.3496  0.1176
 2057TIP3   OH227585   2.228   1.049  12.027  0.3568 -0.4549  0.2567
 2057TIP3    H127586   2.215   0.955  12.038  0.5911 -0.6763 -1.2401
 2057TIP3    H227587   2.140   1.086  12.027  0.3253 -0.4907  2.2946
 2058TIP3   OH227588   0.795   3.433  12.089 -0.1002 -0.6806  0.1939
 2058TIP3    H127589   0.832   3.412  12.175  2.4726 -0.0528 -0.7092
 2058TIP3    H227590   0.863   3.405  12.027 -1.2148  0.4014 -1.5419
 2059TIP3   OH227591   4.844   0.218   1.562  0.2085  0.0119 -0.1641
 2059TIP3    H127592   4.902   0.150   1.527 -0.8052 -2.2136  2.3567
 2059TIP3    H227593   4.757   0.179   1.559 -0.6278  1.8382 -0.1886
 2060TIP3   OH227594   3.121   5.063  15.301 -0.0066  0.4885  0.1768
 2060TIP3    H127595   3.116   5.138  15.243  2.7415  1.2024  0.8012
 2060TIP3    H227596   3.043   5.012  15.281 -1.7076  3.2878 -0.5252
 2061TIP3   OH227597   1.420   5.358   5.474  0.2090 -0.0874 -0.3106
 2061TIP3    H127598   1.494   5.320   5.428  0.2383  0.0153 -0.3491
 2061TIP3    H227599   1.343   5.328   5.426  0.2573  0.3155 -0.6440
 2062TIP3   OH227600   6.151   4.237   4.339  0.0404  0.0798  0.2189
 2062TIP3    H127601   6.117   4.274   4.420 -1.4899 -0.4901 -0.1372
 2062TIP3    H227602   6.245   4.256   4.341  0.0642 -0.1190  2.2235
 2063TIP3   OH227603   1.660   2.181   5.406 -0.1024 -0.0733  0.1080
 2063TIP3    H127604   1.742   2.204   5.450 -0.1595 -0.3284  0.3490
 2063TIP3    H227605   1.592   2.219   5.462 -0.0698  2.1592 -1.3069
 2064TIP3   OH227606   3.343   0.513   3.524  0.1439 -0.3895 -0.0044
 2064TIP3    H127607   3.253   0.546   3.531  0.7930  1.8504 -1.5941
 2064TIP3    H227608   3.394   0.589   3.497  2.3914 -1.8360  0.0743
 2065TIP3   OH227609   5.145   4.539  16.388  0.6147 -0.2612 -0.1549
 2065TIP3    H127610   5.127   4.488  16.467 -0.3587  0.0426 -0.1698
 2065TIP3    H227611   5.207   4.486  16.338  0.8550 -0.6835  0.5829
 2066TIP3   OH227612   5.706   3.310   1.832  0.4866  0.2676 -0.2099
 2066TIP3    H127613   5.787   3.358   1.845  0.8553 -0.4274  0.0926
 2066TIP3    H227614   5.731   3.218   1.837 -0.3070  0.0435 -0.1694
 2067TIP3   OH227615   4.171   0.729  11.587 -0.2243  0.5469 -0.2062
 2067TIP3    H127616   4.094   0.733  11.530  0.2764 -0.6643 -0.9809
 2067TIP3    H227617   4.230   0.668  11.543  0.6808  0.5414  1.0046
 2068TIP3   OH227618   1.428   0.543  16.285  0.0172  0.1330  0.8193
 2068TIP3    H127619   1.469   0.614  16.235 -0.3338  0.9297  1.6391
 2068TIP3    H227620   1.374   0.589  16.350 -1.4254 -0.8805  0.3576
 2069TIP3   OH227621   4.902   5.229   4.078  0.2710 -0.4248  0.6270
 2069TIP3    H127622   4.912   5.324   4.067  1.1400 -0.6412 -0.5762
 2069TIP3    H227623   4.984   5.201   4.119  0.8478 -0.9314 -0.8520
 2070TIP3   OH227624   4.621   5.791   1.848  0.9144 -0.4984 -0.1608
 2070TIP3    H127625   4.613   5.809   1.942 -0.3464 -1.7332 -0.0111
 2070TIP3    H227626   4.600   5.698   1.840  1.0737 -0.4104 -1.6652
 2071TIP3   OH227627   2.939   1.443  13.617  0.0230  0.3514 -0.5640
 2071TIP3    H127628   2.929   1.373  13.682 -0.3557 -1.9042 -2.9715
 2071TIP3    H227629   2.864   1.501  13.633 -0.6368 -0.7404  0.3455
 2072TIP3   OH227630   0.211   3.651  13.640 -1.1670 -0.6748 -0.0650
 2072TIP3    H127631   0.267   3.593  13.588  0.7498  0.7008  0.3797
 2072TIP3    H227632   0.168   3.707  13.576  1.5210  1.3124 -0.2353
 2073TIP3   OH227633   3.408   0.069  11.002 -0.4357 -0.3567  0.2066
 2073TIP3    H127634   3.385   0.005  10.935  0.1528  0.9090 -1.2241
 2073TIP3    H227635   3.338   0.134  10.998  0.0350  0.1584  0.2280
 2074TIP3   OH227636   5.139   4.711   1.156 -0.4584  0.3339 -0.1963
 2074TIP3    H127637   5.193   4.770   1.209  0.9903 -0.9548 -0.1777
 2074TIP3    H227638   5.113   4.763   1.080  1.2056  0.8612 -0.4294
 2075TIP3   OH227639   2.113   2.671  16.455  0.4022 -0.0715  0.1948
 2075TIP3    H127640   2.107   2.755  16.409 -0.0418  0.3953  1.1107
 2075TIP3    H227641   2.040   2.620  16.421  1.6480 -0.7193 -1.6176
 2076TIP3   OH227642   6.044   0.707  14.762  0.8119 -0.0170  0.0880
 2076TIP3    H127643   5.962   0.754  14.772  1.3078  0.7401  0.6704
 2076TIP3    H227644   6.082   0.742  14.681  0.4009 -0.6095 -0.3590
 2077TIP3   OH227645   0.792   1.656  11.111  1.1012  0.4723  0.2821
 2077TIP3    H127646   0.825   1.617  11.192  0.8552 -0.3869 -0.0278
 2077TIP3    H227647   0.837   1.741  11.106  0.5644  0.8561  1.6879
 2078TIP3   OH227648   0.887   1.222   4.336  0.1921  0.1685  0.2781
 2078TIP3    H127649   0.860   1.288   4.273 -0.5010 -1.3471 -1.0375
 2078TIP3    H227650   0.820   1.226   4.405 -0.6888 -0.2182 -0.5526
 2079TIP3   OH227651   2.375   0.002   6.011 -0.1733  0.0383 -0.2074
 2079TIP3    H127652   2.296   0.016   5.958  0.3256  2.3203 -0.4025
 2079TIP3    H227653   2.429  -0.058   5.958 -1.2700 -0.6433 -0.5762
 2080TIP3   OH227654   4.755   2.687  14.084  0.0155  0.0734 -0.2030
 2080TIP3    H127655   4.824   2.680  14.150  1.1553 -0.1367 -1.4039
 2080TIP3    H227656   4.786   2.754  14.023 -0.0930 -1.1203 -1.6129
 2081TIP3   OH227657   1.487   0.752  14.312 -0.6502 -0.3274  0.1705
 2081TIP3    H127658   1.427   0.824  14.292  0.6041  1.0349  1.1057
 2081TIP3    H227659   1.511   0.766  14.404  2.3463  0.1526 -0.6338
 2082TIP3   OH227660   4.200   4.080   1.000 -0.2732  0.1097  0.2751
 2082TIP3    H127661   4.245   4.162   1.024  1.9372 -0.7563 -0.7314
 2082TIP3    H227662   4.131   4.107   0.940  0.3650  1.2515  0.0458
 2083TIP3   OH227663   5.596   5.002   1.228  0.1634 -0.3018  0.3296
 2083TIP3    H127664   5.621   5.093   1.214  0.5236 -0.4695 -0.1776
 2083TIP3    H227665   5.648   4.974   1.303  0.0411 -0.0801  0.4937
 2084TIP3   OH227666   0.502   6.005   1.020 -0.2131  0.6532  0.7282
 2084TIP3    H127667   0.469   6.058   0.947  1.2851  0.1141 -0.3588
 2084TIP3    H227668   0.557   5.939   0.979  1.5711  1.0188  2.4289
 2085TIP3   OH227669   2.214   1.246   1.097  0.0593 -0.0028  0.2903
 2085TIP3    H127670   2.252   1.183   1.035  0.1252  0.0886  0.2376
 2085TIP3    H227671   2.148   1.292   1.046  1.2056  1.1748 -0.1653
 2086TIP3   OH227672   1.362   0.383  15.036  0.4414  0.2295  0.3459
 2086TIP3    H127673   1.340   0.398  15.128  0.2808  0.4215  0.2774
 2086TIP3    H227674   1.282   0.405  14.988  0.6718  0.5993  0.1229
 2087TIP3   OH227675   4.692   0.334  17.000 -0.8013  0.0582  0.0089
 2087TIP3    H127676   4.628   0.302  17.064  0.9063 -2.0382  0.7202
 2087TIP3    H227677   4.639   0.367  16.928 -2.7447  1.5161  2.0635
 2088TIP3   OH227678   4.157   0.003  15.787  0.1695  0.0886  0.0522
 2088TIP3    H127679   4.236  -0.040  15.754  0.2618  0.0064  0.3785
 2088TIP3    H227680   4.085  -0.038  15.738  0.3533  0.4082 -0.4972
 2089TIP3   OH227681   4.584   0.257   4.615 -0.5304  0.3477 -0.1412
 2089TIP3    H127682   4.628   0.251   4.530  0.0518  0.1189  0.1739
 2089TIP3    H227683   4.514   0.320   4.601  0.0217  0.8708 -0.6000
 2090TIP3   OH227684   1.790   5.326  13.672 -0.2358  0.3995 -0.1144
 2090TIP3    H127685   1.793   5.409  13.625 -0.1962  0.3825 -0.1426
 2090TIP3    H227686   1.711   5.332  13.726  1.5229  1.8376  2.4187
 2091TIP3   OH227687   1.294   1.305   5.101  1.1343 -0.1065 -0.6504
 2091TIP3    H127688   1.313   1.273   5.013  1.3811 -1.8763  0.0275
 2091TIP3    H227689   1.378   1.339   5.133  1.1765  0.0057 -0.8789
 2092TIP3   OH227690   3.916   2.002  12.449  0.5210  0.1375  0.1808
 2092TIP3    H127691   3.888   2.063  12.380 -1.7992 -0.7979  0.2414
 2092TIP3    H227692   3.915   2.055  12.529 -0.1978  0.3473  0.0354
 2093TIP3   OH227693   0.336   4.321   6.316 -0.4954  0.0932 -0.0696
 2093TIP3    H127694   0.390   4.363   6.249 -0.2251  1.4521  0.9875
 2093TIP3    H227695   0.298   4.393   6.366 -2.7414 -0.8421 -0.3471
 2094TIP3   OH227696   5.277   4.729  16.575  0.2635  0.4201 -0.2964
 2094TIP3    H127697   5.371   4.748  16.580  0.2445  0.5206 -0.3420
 2094TIP3    H227698   5.273   4.641  16.537  0.2987  0.9065 -1.4613
 2095TIP3   OH227699   4.953   0.288   3.122  0.1757  0.1150  0.6068
 2095TIP3    H127700   5.020   0.296   3.189  1.1428 -0.5525 -0.2634
 2095TIP3    H227701   4.927   0.378   3.103 -0.1657  0.2974  1.9358
 2096TIP3   OH227702   0.368   1.043  13.008  0.1025  0.2160  0.4232
 2096TIP3    H127703   0.336   0.957  12.980  0.0852 -0.1705  1.6322
 2096TIP3    H227704   0.436   1.024  13.072  1.6106  1.0732 -0.8938
 2097TIP3   OH227705   3.608   5.348   4.701 -0.4722 -0.2982 -0.3152
 2097TIP3    H127706   3.583   5.415   4.637  0.6481  0.4970  0.0506
 2097TIP3    H227707   3.537   5.348   4.765 -1.9174 -1.5538 -1.8857
 2098TIP3   OH227708   0.294   6.451  11.499 -0.4783  0.8869 -0.3485
 2098TIP3    H127709   0.211   6.497  11.505 -2.4565 -2.3828 -1.3747
 2098TIP3    H227710   0.280   6.369  11.547  1.5486 -0.4699 -1.9724
 2099TIP3   OH227711   1.173   0.807   1.568 -0.0539 -0.2284  0.1815
 2099TIP3    H127712   1.161   0.720   1.606 -0.9841 -0.7259 -1.1939
 2099TIP3    H227713   1.085   0.832   1.539  0.4625  0.5630 -0.7039
 2100TIP3   OH227714   5.946   4.148  14.290 -0.3184  0.7096 -0.9249
 2100TIP3    H127715   5.929   4.229  14.338  0.3085  0.3400 -0.0831
 2100TIP3    H227716   6.041   4.139  14.290 -0.3752  0.0656 -1.1749
 2101TIP3   OH227717   1.641   0.033   3.662  0.3304  0.6350 -0.0952
 2101TIP3    H127718   1.609   0.044   3.572 -1.9955 -0.1460  0.5863
 2101TIP3    H227719   1.576   0.077   3.717  0.8225 -0.3257  1.3058
 2102TIP3   OH227720   3.652   0.680   2.011 -0.0785 -0.4362  0.3980
 2102TIP3    H127721   3.734   0.723   2.033 -0.8796  1.7853 -0.8202
 2102TIP3    H227722   3.675   0.620   1.940  0.2587  1.2568 -0.9668
 2103TIP3   OH227723   5.764   2.399   2.769 -0.3421  0.3006  0.5939
 2103TIP3    H127724   5.817   2.337   2.718 -1.0648 -0.8868  1.2626
 2103TIP3    H227725   5.738   2.466   2.705  0.2782 -0.1990 -0.1944
 2104TIP3   OH227726   4.755   1.634  16.446 -0.0856  0.3122 -0.4523
 2104TIP3    H127727   4.676   1.632  16.501 -0.7656  0.9932 -1.3828
 2104TIP3    H227728   4.765   1.726  16.422  0.3225  0.0568 -1.2948
 2105TIP3   OH227729   4.919   6.684  12.625  0.1177 -0.5231  0.0459
 2105TIP3    H127730   4.829   6.696  12.595  0.6892  0.6975 -1.2695
 2105TIP3    H227731   4.957   6.624  12.562  0.7225  0.3797 -0.4654
 2106TIP3   OH227732   6.443   3.415  12.047 -0.1771  0.2466 -0.2525
 2106TIP3    H127733   6.357   3.437  12.011 -1.8263 -0.5739  2.9505
 2106TIP3    H227734   6.472   3.495  12.090 -0.4642 -0.1590  0.7183
 2107TIP3   OH227735   1.266   0.695  15.051  0.0423  0.2749 -0.1042
 2107TIP3    H127736   1.182   0.650  15.065  1.3241 -2.2880 -0.4717
 2107TIP3    H227737   1.252   0.747  14.972 -1.5551  0.7705  0.4780
 2108TIP3   OH227738   2.938   2.539   2.147  0.8095 -0.3929 -0.2896
 2108TIP3    H127739   3.018   2.522   2.197 -0.0475 -2.0308  0.5498
 2108TIP3    H227740   2.909   2.453   2.117 -0.9029  0.1325 -0.1894
 2109TIP3   OH227741   0.795   2.047   4.127  0.3901  0.4641  0.5918
 2109TIP3    H127742   0.715   2.041   4.179 -1.5383 -1.1650 -2.4155
 2109TIP3    H227743   0.845   1.969   4.151 -1.0228 -0.9014 -0.7598
 2110TIP3   OH227744   2.662   3.882  12.515  0.7313 -0.4096 -0.2191
 2110TIP3    H127745   2.626   3.794  12.522 -0.8690  0.3104  1.0012
 2110TIP3    H227746   2.680   3.908  12.605  1.8414  0.2616 -0.6236
 2111TIP3   OH227747   4.547   0.734   0.998  0.3016  0.4186 -0.0163
 2111TIP3    H127748   4.452   0.744   1.007  0.3931  0.2349  1.2887
 2111TIP3    H227749   4.578   0.724   1.088  1.7742  2.2722 -0.3130
 2112TIP3   OH227750   2.431   0.605  14.540 -0.6086  0.2066 -0.2173
 2112TIP3    H127751   2.397   0.519  14.563 -0.8369  0.7055  1.3222
 2112TIP3    H227752   2.455   0.597  14.447 -0.9239 -1.4072 -0.1693
 2113TIP3   OH227753   5.222   4.474  14.506 -0.1315 -0.4438  0.2863
 2113TIP3    H127754   5.262   4.398  14.464 -0.0017 -0.2642  0.0834
 2113TIP3    H227755   5.270   4.485  14.588  0.5175  0.0254 -0.1543
 2114TIP3   OH227756   3.833   1.097   1.241  0.3425 -0.3006  0.0995
 2114TIP3    H127757   3.886   1.021   1.216 -0.5879 -1.3278  1.2079
 2114TIP3    H227758   3.849   1.108   1.335  1.1990  1.4743 -0.2255
 2115TIP3   OH227759   1.962   3.348  16.096  0.0428  0.0859  0.0576
 2115TIP3    H127760   2.015   3.311  16.026 -0.0370 -1.2793  0.6880
 2115TIP3    H227761   1.907   3.414  16.054  1.4854  0.7478 -0.7790
 2116TIP3   OH227762   5.826   4.101   4.552 -0.1273 -0.0639 -0.0766
 2116TIP3    H127763   5.749   4.143   4.512 -0.9554 -0.1406  1.3864
 2116TIP3    H227764   5.892   4.170   4.554 -0.9608  0.7372  0.8554
 2117TIP3   OH227765   1.014   0.111   6.478  0.3672  0.8187  0.2249
 2117TIP3    H127766   0.931   0.084   6.437 -0.1323  0.8808  1.1785
 2117TIP3    H227767   1.066   0.145   6.406  1.1336 -2.9391 -1.0732
 2118TIP3   OH227768   4.123   6.541  12.990  0.0795 -0.5185  0.2543
 2118TIP3    H127769   4.131   6.624  13.038  0.8743 -0.5422  0.1762
 2118TIP3    H227770   4.127   6.567  12.898  0.6246 -0.6733  0.2346
 2119TIP3   OH227771   0.214   2.918  15.671 -0.1112  0.1812  0.2603
 2119TIP3    H127772   0.226   3.013  15.681  2.6048  0.0418 -1.0854
 2119TIP3    H227773   0.287   2.879  15.718 -1.3042 -1.2722  0.9494
 2120TIP3   OH227774   3.982   2.170   2.345 -0.3626  0.6039  1.0010
 2120TIP3    H127775   4.077   2.175   2.355 -0.2742  1.1709 -0.0360
 2120TIP3    H227776   3.957   2.090   2.391  0.5134  0.8839  1.9779
 2121TIP3   OH227777   2.695   0.088  12.829 -0.4946 -0.2418 -0.5544
 2121TIP3    H127778   2.759   0.096  12.758 -0.3687 -2.3808 -0.7234
 2121TIP3    H227779   2.746   0.055  12.904 -1.1003 -0.4229 -0.2177
 2122TIP3   OH227780   3.780   2.536   5.253 -0.0359  0.5628 -0.0955
 2122TIP3    H127781   3.692   2.560   5.223 -0.2097  0.7731  0.5750
 2122TIP3    H227782   3.773   2.443   5.277  0.1202  0.3769 -0.7657
 2123TIP3   OH227783   0.734   0.423   5.787 -0.1825 -0.1995  0.1914
 2123TIP3    H127784   0.794   0.464   5.726 -0.0991 -0.1654  0.2964
 2123TIP3    H227785   0.654   0.476   5.783 -0.1524 -0.1570  0.1642
 2124TIP3   OH227786   6.497   0.077   3.299 -0.5958 -0.1294 -0.0415
 2124TIP3    H127787   6.416   0.123   3.319  0.0983  0.8756  0.4985
 2124TIP3    H227788   6.525   0.040   3.383 -0.5200 -0.5151 -0.2342
 2125TIP3   OH227789   3.315   6.448  15.397  0.4621  0.1994  0.1833
 2125TIP3    H127790   3.290   6.461  15.488  1.4303  0.0633  0.4705
 2125TIP3    H227791   3.281   6.361  15.375  3.1976 -1.2463  1.4582
 2126TIP3   OH227792   1.855   1.529   5.480 -0.5723 -0.4037 -0.5732
 2126TIP3    H127793   1.918   1.601   5.477  0.8360 -1.6088 -0.6216
 2126TIP3    H227794   1.852   1.496   5.390  0.9324 -2.1873  0.0081
 2127TIP3   OH227795   2.423   0.174   1.835 -0.2356  0.1417  0.1849
 2127TIP3    H127796   2.512   0.139   1.836 -0.4613 -0.4502 -0.2156
 2127TIP3    H227797   2.405   0.197   1.927  0.9944  1.9846 -0.0043
 2128TIP3   OH227798   0.415   5.449   2.316  0.0927 -0.6475 -0.1487
 2128TIP3    H127799   0.392   5.380   2.254  0.0304 -0.3647 -0.4370
 2128TIP3    H227800   0.511   5.447   2.319  0.0821 -0.9107  0.0291
 2129TIP3   OH227801   0.070   2.496   4.858  0.5404  0.3088 -0.5629
 2129TIP3    H127802  -0.018   2.460   4.863 -0.0704  1.7707 -0.8484
 2129TIP3    H227803   0.127   2.421   4.880 -0.8259 -0.2313  1.2866
 2130TIP3   OH227804   3.596   0.643  12.617  0.1882  0.1472 -0.3284
 2130TIP3    H127805   3.567   0.726  12.581 -1.4343  0.0614  0.7173
 2130TIP3    H227806   3.592   0.655  12.712  1.8333 -0.4879 -0.1544
 2131TIP3   OH227807   3.416   5.730   4.247 -0.9555  0.6116 -0.2288
 2131TIP3    H127808   3.478   5.740   4.175 -1.4222 -1.8168 -1.0173
 2131TIP3    H227809   3.447   5.791   4.314  1.6715  0.1843 -1.0033
 2132TIP3   OH227810   6.556   2.806   0.170  0.0083 -0.4483 -0.1666
 2132TIP3    H127811   6.618   2.758   0.225  0.1239 -1.5815 -1.2817
 2132TIP3    H227812   6.471   2.791   0.212  0.3481  0.4100  0.8755
 2133TIP3   OH227813   3.876   3.672   0.571  0.6928  0.2111  0.0605
 2133TIP3    H127814   3.875   3.679   0.475  1.8618  0.2298  0.0531
 2133TIP3    H227815   3.784   3.683   0.596  0.3967  0.3266 -1.0502
 2134TIP3   OH227816   2.539   0.128   1.142  0.6693  0.0103 -0.2089
 2134TIP3    H127817   2.502   0.216   1.150  0.1568 -0.2866  0.6658
 2134TIP3    H227818   2.468   0.076   1.104  1.4116  0.2614 -2.0397
 2135TIP3   OH227819   6.246   3.548   3.137 -0.0316 -0.1139  0.0055
 2135TIP3    H127820   6.276   3.458   3.149 -0.0675 -0.0891  0.2842
 2135TIP3    H227821   6.316   3.590   3.088  0.3910 -0.0527  0.6578
 2136TIP3   OH227822   4.335   6.630   1.309 -0.6038  0.1317  0.0173
 2136TIP3    H127823   4.241   6.624   1.290 -0.5978  2.0124 -0.7032
 2136TIP3    H227824   4.359   6.719   1.283  1.6272 -0.6943 -0.8467
 2137TIP3   OH227825   5.869   2.436   2.353 -0.3584 -0.2729  0.3132
 2137TIP3    H127826   5.844   2.344   2.350 -0.0072 -0.3610 -0.0034
 2137TIP3    H227827   5.832   2.473   2.272 -1.7171  0.1821  1.1218
 2138TIP3   OH227828   2.548   2.211   1.543 -0.2703  0.1554 -0.0839
 2138TIP3    H127829   2.487   2.137   1.536 -0.0216  0.0854 -1.6016
 2138TIP3    H227830   2.509   2.279   1.488 -0.2346  0.9752  0.8982
 2139TIP3   OH227831   5.295   3.529  14.079 -0.1025 -0.0373  0.3880
 2139TIP3    H127832   5.260   3.585  14.148  1.7018  1.4028  0.1552
 2139TIP3    H227833   5.385   3.558  14.068  0.0746 -1.2713 -1.5430
 2140TIP3   OH227834   2.393   3.229   3.612 -0.0795  0.2435 -0.4670
 2140TIP3    H127835   2.334   3.163   3.649 -0.5360  0.3485 -0.9918
 2140TIP3    H227836   2.396   3.208   3.519  3.5754 -1.9879  0.0910
 2141TIP3   OH227837   0.558   0.103   1.236 -0.7712 -0.3554 -0.1130
 2141TIP3    H127838   0.630   0.042   1.221 -1.8797 -1.3912 -1.3151
 2141TIP3    H227839   0.560   0.119   1.330 -0.6493 -2.5031  0.2774
 2142TIP3   OH227840   0.925   1.931   4.807 -0.1458 -0.2252 -0.1873
 2142TIP3    H127841   0.971   1.869   4.750  0.2144 -0.3962  0.2888
 2142TIP3    H227842   0.855   1.879   4.848 -1.7565  0.3841 -2.0743
 2143TIP3   OH227843   0.480   1.957   0.558 -0.4123 -0.2012 -0.4248
 2143TIP3    H127844   0.418   1.914   0.618  0.9115 -2.2089 -0.4488
 2143TIP3    H227845   0.438   1.950   0.472 -0.2116 -1.5206 -0.4333
 2144TIP3   OH227846   1.822   5.864  13.015 -0.3701 -0.5561 -0.2879
 2144TIP3    H127847   1.890   5.929  13.034 -1.7556  1.1673 -1.0805
 2144TIP3    H227848   1.740   5.914  13.016 -1.5142 -2.3857 -0.4513
 2145TIP3   OH227849   5.689   3.416  13.839  0.7189  0.3333 -0.4640
 2145TIP3    H127850   5.731   3.415  13.753  0.9516 -1.6591 -0.3498
 2145TIP3    H227851   5.745   3.360  13.894 -0.7997 -0.4838  0.2994
 2146TIP3   OH227852   3.679   6.207  14.306 -0.2829 -0.5602 -0.1239
 2146TIP3    H127853   3.728   6.279  14.345 -1.4489  0.4935 -0.5626
 2146TIP3    H227854   3.669   6.144  14.378  0.8854 -0.3726  0.2194
 2147TIP3   OH227855   5.676   5.582   5.217 -0.4536 -0.3676 -0.2949
 2147TIP3    H127856   5.702   5.620   5.301  0.6776  1.9476 -1.6584
 2147TIP3    H227857   5.755   5.539   5.184 -0.4294  0.1667 -0.9416
 2148TIP3   OH227858   5.614   4.026  15.663 -0.2528 -0.0443  0.1407
 2148TIP3    H127859   5.670   3.952  15.687  0.6609  0.8236  0.7414
 2148TIP3    H227860   5.647   4.054  15.578 -0.2207  0.0447  0.1837
 2149TIP3   OH227861   5.559   0.937  17.066 -0.2844 -0.3617 -0.1804
 2149TIP3    H127862   5.520   0.986  16.994 -2.0693  0.0131  1.0149
 2149TIP3    H227863   5.644   0.909  17.032 -0.9259  0.1356 -2.2836
 2150TIP3   OH227864   3.471   0.184  11.503 -0.3987 -0.0337 -0.0781
 2150TIP3    H127865   3.566   0.172  11.504 -0.4799 -0.8291 -0.9028
 2150TIP3    H227866   3.439   0.129  11.575 -0.3550 -1.0242 -0.7951
 2151TIP3   OH227867   6.377   5.259   5.102 -0.0837 -0.0523  0.4356
 2151TIP3    H127868   6.418   5.246   5.187 -1.7647 -0.8241  1.1517
 2151TIP3    H227869   6.341   5.348   5.105  0.2633  0.0909  0.3539
 2152TIP3   OH227870   5.217   5.701   4.301 -0.2692 -0.0283  0.5815
 2152TIP3    H127871   5.222   5.730   4.210  1.1237 -2.8102 -0.3051
 2152TIP3    H227872   5.298   5.731   4.341 -0.1825 -0.1129  0.4698
 2153TIP3   OH227873   3.409   0.959   3.238 -1.0216  0.0153 -0.2105
 2153TIP3    H127874   3.412   0.939   3.145  0.0235  0.2518 -0.2413
 2153TIP3    H227875   3.318   0.947   3.263 -0.6416 -3.7923 -0.4388
 2154TIP3   OH227876   2.210   4.212   2.297 -0.4480 -0.0553  0.6707
 2154TIP3    H127877   2.133   4.205   2.241  0.1226 -0.0795 -0.1244
 2154TIP3    H227878   2.249   4.125   2.296  1.0959  0.6104 -1.1548
 2155TIP3   OH227879   6.622   3.994   6.848  0.7232 -0.1818  0.0845
 2155TIP3    H127880   6.713   4.022   6.843 -0.1979  2.9950 -0.0703
 2155TIP3    H227881   6.590   4.000   6.757  0.0151  0.0159  0.3421
 2156TIP3   OH227882   3.502   2.243   5.468  0.2390 -0.2572 -1.2465
 2156TIP3    H127883   3.543   2.326   5.494 -0.6724 -0.1231 -0.2210
 2156TIP3    H227884   3.432   2.269   5.408 -0.5682 -0.2103 -0.2968
 2157TIP3   OH227885   2.892   0.345   0.026 -0.6497 -0.0492 -0.3214
 2157TIP3    H127886   2.988   0.351   0.032 -0.6617  1.0687 -1.0140
 2157TIP3    H227887   2.876   0.287  -0.049 -0.4992  1.2955 -1.4177
 2158TIP3   OH227888   0.631   3.345   1.284  0.1788 -0.1769  0.1700
 2158TIP3    H127889   0.639   3.350   1.380 -1.8064  1.2966  0.2909
 2158TIP3    H227890   0.559   3.404   1.263  0.2395 -0.9027 -2.2065
 2159TIP3   OH227891   6.246   5.328   0.066 -0.5523  0.1140  0.3164
 2159TIP3    H127892   6.338   5.305   0.052 -0.1138  1.6816  0.4509
 2159TIP3    H227893   6.218   5.366  -0.017 -0.0895  2.6547  1.2501
 2160TIP3   OH227894   2.764   2.934   0.476  0.0419 -0.0182  0.1021
 2160TIP3    H127895   2.771   2.840   0.460  1.2095  0.2296 -1.0149
 2160TIP3    H227896   2.689   2.944   0.533 -0.6346 -1.5571 -0.4991
 2161TIP3   OH227897   3.789   0.734   4.396  0.1022 -0.1730 -0.1675
 2161TIP3    H127898   3.707   0.703   4.436 -0.4347  0.6070 -0.6502
 2161TIP3    H227899   3.828   0.655   4.358  0.6316 -0.9345  1.8887
 2162TIP3   OH227900   1.529   5.004   4.237 -0.0143  0.3592  0.2868
 2162TIP3    H127901   1.572   4.919   4.224 -0.4435  0.0125  1.0392
 2162TIP3    H227902   1.450   5.000   4.184  1.2748  1.3167 -1.7509
 2163TIP3   OH227903   6.158   2.223  16.776  0.0628  0.6456  0.1518
 2163TIP3    H127904   6.077   2.173  16.789  1.0405 -0.9289  0.3654
 2163TIP3    H227905   6.129   2.312  16.760 -1.6544  0.5498  2.4505
 2164TIP3   OH227906   2.154   2.752   1.491  0.3048  0.6106 -0.2374
 2164TIP3    H127907   2.119   2.663   1.502 -2.1461  1.6456  0.8573
 2164TIP3    H227908   2.217   2.762   1.562 -1.4465  0.6541  1.3603
 2165TIP3   OH227909   2.646   5.549  15.220 -0.1339  0.0944 -0.5606
 2165TIP3    H127910   2.711   5.619  15.213 -0.4644  0.5943  1.2892
 2165TIP3    H227911   2.587   5.577  15.290 -0.4697 -1.8809 -0.0248
 2166TIP3   OH227912   4.008   3.605   3.348 -0.1397  0.0824 -0.8227
 2166TIP3    H127913   3.954   3.537   3.308 -0.4962  1.4235 -2.6679
 2166TIP3    H227914   3.987   3.600   3.441 -1.1627 -1.4300 -1.1143
 2167TIP3   OH227915   1.793   6.182   3.334 -0.2493  0.0228  0.2894
 2167TIP3    H127916   1.717   6.241   3.339 -1.2586 -1.4193  2.6705
 2167TIP3    H227917   1.860   6.224   3.387 -0.0872  0.2847 -0.1221
 2168TIP3   OH227918   2.069   2.215   3.767  0.3452  0.0693  0.4738
 2168TIP3    H127919   2.110   2.222   3.681 -0.6558 -0.6217 -0.0693
 2168TIP3    H227920   2.083   2.301   3.808  1.1152  0.2857 -0.2404
 2169TIP3   OH227921   2.473   2.361   1.866 -0.3599  0.8457  0.2275
 2169TIP3    H127922   2.558   2.345   1.825 -0.8442  1.0802 -0.9041
 2169TIP3    H227923   2.479   2.320   1.952  1.2185  1.6771  0.5257
 2170TIP3   OH227924   4.177   2.399   1.730 -0.2363 -0.0425  0.6089
 2170TIP3    H127925   4.124   2.468   1.689 -0.9534 -0.6688  0.4559
 2170TIP3    H227926   4.126   2.372   1.806 -0.8381 -1.6072 -0.3057
 2171TIP3   OH227927   2.944   1.757  13.750 -0.3395 -0.0509 -0.1569
 2171TIP3    H127928   3.036   1.733  13.751  0.4432  2.8248  0.8162
 2171TIP3    H227929   2.932   1.802  13.666 -0.2680  1.6642  0.7351
 2172TIP3   OH227930   3.882   2.902   2.523  0.6465  0.2644  0.1727
 2172TIP3    H127931   3.960   2.946   2.489  0.6929 -0.4725 -0.7071
 2172TIP3    H227932   3.912   2.815   2.547  0.4359  0.5150  1.3970
 2173TIP3   OH227933   5.017   2.473  11.170 -0.2936  0.0933  0.3112
 2173TIP3    H127934   4.988   2.383  11.154  2.1795 -1.1680  2.5307
 2173TIP3    H227935   5.047   2.503  11.084 -1.7068 -0.9746 -0.5840
 2174TIP3   OH227936   2.440   6.248  12.889  0.2443 -0.4139  0.2771
 2174TIP3    H127937   2.396   6.163  12.881 -0.1833 -0.1580 -0.1110
 2174TIP3    H227938   2.533   6.228  12.878  0.1804 -0.8920  0.6100
 2175TIP3   OH227939   0.354   4.623  13.520 -0.1201 -0.3162 -0.4468
 2175TIP3    H127940   0.323   4.558  13.456  0.2120  0.6326 -1.5889
 2175TIP3    H227941   0.360   4.574  13.602  0.0122 -1.7121 -1.2603
 2176TIP3   OH227942   0.710   6.549  12.305  0.4255 -0.0142 -0.0815
 2176TIP3    H127943   0.651   6.511  12.239 -1.4833  1.1501  0.9082
 2176TIP3    H227944   0.689   6.501  12.386 -2.5276  3.4917  1.3665
 2177TIP3   OH227945   5.071   0.067  13.107 -0.3365 -0.1083  0.0096
 2177TIP3    H127946   5.041   0.150  13.070  1.4042  1.3360  1.6927
 2177TIP3    H227947   5.151   0.047  13.058 -0.3734 -0.4278  0.0822
 2178TIP3   OH227948   6.027   1.481   1.948  0.1584  0.3021 -0.1745
 2178TIP3    H127949   6.097   1.543   1.968  0.9846 -1.2860  2.0475
 2178TIP3    H227950   5.950   1.516   1.993 -0.3148  1.5773 -1.8945
 2179TIP3   OH227951   6.178   2.409   1.098  0.3804 -0.0637 -0.2046
 2179TIP3    H127952   6.142   2.386   1.013  1.1250  0.7194 -0.7387
 2179TIP3    H227953   6.102   2.432   1.151  0.1182  2.0841 -1.4731
 2180TIP3   OH227954   6.017   3.197  12.742 -1.0682 -0.9210 -0.0397
 2180TIP3    H127955   5.977   3.141  12.675  0.2058 -0.0708 -1.5501
 2180TIP3    H227956   5.952   3.266  12.756 -0.1124  0.6321 -2.7226
 2181TIP3   OH227957   6.087   5.141   5.267 -0.7049 -0.6789  0.0322
 2181TIP3    H127958   6.149   5.200   5.309 -2.0869  0.4010  0.5795
 2181TIP3    H227959   6.142   5.080   5.218  0.7750  0.4065  0.3021
 2182TIP3   OH227960   0.376   6.402  16.200  0.0106  0.0572 -1.0922
 2182TIP3    H127961   0.410   6.479  16.246  0.9465 -1.3661  0.6746
 2182TIP3    H227962   0.290   6.430  16.167  0.5622  2.0096 -0.9465
 2183TIP3   OH227963   4.585   3.509   3.899 -0.0741 -0.2075  0.4479
 2183TIP3    H127964   4.604   3.588   3.849  0.6581  0.8586  2.3395
 2183TIP3    H227965   4.622   3.526   3.986 -1.1825 -2.0490  1.3221
 2184TIP3   OH227966   4.254   4.604  17.166  0.6935 -0.6851 -0.2016
 2184TIP3    H127967   4.240   4.539  17.097 -1.8113  0.5352 -0.9000
 2184TIP3    H227968   4.260   4.688  17.119 -0.3745  0.0742  0.9998
 2185TIP3   OH227969   5.319   0.803  16.831 -0.1717  0.4400  0.1963
 2185TIP3    H127970   5.356   0.890  16.846 -1.0355  0.8883 -0.2593
 2185TIP3    H227971   5.334   0.756  16.913  1.0640  0.7384  0.1534
 2186TIP3   OH227972   4.380   2.582   2.840 -0.4441 -0.4599  0.1259
 2186TIP3    H127973   4.439   2.509   2.821  1.9074  1.3878  0.0889
 2186TIP3    H227974   4.354   2.614   2.754 -1.9793 -1.6352  0.1453
 2187TIP3   OH227975   6.461   5.612   3.844 -0.4177 -0.3567  0.2018
 2187TIP3    H127976   6.475   5.578   3.932  4.2726  0.9588  0.1323
 2187TIP3    H227977   6.493   5.543   3.786  1.1824  0.7255 -0.2393
 2188TIP3   OH227978   1.506   3.127   5.997 -0.7118 -0.6600 -0.6923
 2188TIP3    H127979   1.484   3.170   6.080  0.8998 -1.6449  0.2517
 2188TIP3    H227980   1.422   3.121   5.951 -1.4427  0.8992  0.3745
 2189TIP3   OH227981   6.125   5.133   0.998 -0.2252  0.1934  0.5440
 2189TIP3    H127982   6.058   5.163   1.059 -0.3229 -1.9879  1.5546
 2189TIP3    H227983   6.099   5.172   0.914 -0.8788  2.0586  1.5705
 2190TIP3   OH227984   2.498   3.981  13.725 -0.3855 -0.1584 -0.1692
 2190TIP3    H127985   2.504   4.026  13.809 -0.2661  0.4261 -0.4893
 2190TIP3    H227986   2.410   4.000  13.693 -0.2944 -0.0495 -0.3583
 2191TIP3   OH227987   2.066   4.139   6.764  0.5650 -0.2343 -0.1925
 2191TIP3    H127988   1.973   4.117   6.771  0.4460  0.7916  1.8364
 2191TIP3    H227989   2.080   4.155   6.670 -1.5306  0.5930 -0.3992
 2192TIP3   OH227990   3.501   4.157  12.854 -0.7934  0.0267 -0.3572
 2192TIP3    H127991   3.492   4.062  12.849  0.1708 -0.3580  3.6077
 2192TIP3    H227992   3.591   4.174  12.827 -1.8089  0.1450 -3.8210
 2193TIP3   OH227993   1.452   5.799   2.275  1.3472  0.0567  0.3117
 2193TIP3    H127994   1.449   5.860   2.349  2.5437 -0.1703  0.5684
 2193TIP3    H227995   1.365   5.804   2.235  1.1966  1.3408  0.7978
 2194TIP3   OH227996   4.726   5.379   1.907 -0.4661  0.2435  0.2180
 2194TIP3    H127997   4.667   5.303   1.905 -0.5564  0.3083  0.4652
 2194TIP3    H227998   4.677   5.449   1.866  0.2220 -0.2622 -1.5434
 2195TIP3   OH227999   6.429   0.633  17.184  0.4973 -0.6365  0.2551
 2195TIP3    H128000   6.398   0.548  17.215  0.7831 -0.3789  1.2516
 2195TIP3    H228001   6.468   0.675  17.261 -1.0855  1.0691  0.1775
 2196TIP3   OH228002   1.800   2.348  14.358 -0.5822 -0.4352 -0.4808
 2196TIP3    H128003   1.796   2.301  14.442 -1.1232 -0.2479 -0.3997
 2196TIP3    H228004   1.764   2.434  14.378  0.9430  0.2153 -0.4851
 2197TIP3   OH228005   0.643   5.167  15.104  1.0074  0.2349 -0.0489
 2197TIP3    H128006   0.717   5.110  15.085  1.4095  0.7372  0.0071
 2197TIP3    H228007   0.576   5.107  15.139  1.3768 -0.2213 -0.1079
 2198TIP3   OH228008   2.121   3.205  14.186 -0.2125  0.7279  0.9411
 2198TIP3    H128009   2.084   3.118  14.202  0.7067  0.0799 -0.3464
 2198TIP3    H228010   2.054   3.250  14.135  0.2834 -0.0734 -0.4615
 2199TIP3   OH228011   6.183   1.510   4.529  0.0346 -0.7536  0.3650
 2199TIP3    H128012   6.122   1.465   4.472 -0.4447 -1.7742  1.6572
 2199TIP3    H228013   6.203   1.593   4.484 -1.8481 -0.6639 -0.3115
 2200TIP3   OH228014   4.589   4.351   0.118  0.6772 -0.3466  0.0868
 2200TIP3    H128015   4.550   4.423   0.068 -0.1075 -0.1025  1.0472
 2200TIP3    H228016   4.647   4.308   0.055  1.4721  1.3610 -0.3861
 2201TIP3   OH228017   5.509   4.419   5.899  0.0097 -0.4446  0.6894
 2201TIP3    H128018   5.477   4.438   5.810 -1.4026 -1.2432  0.9954
 2201TIP3    H228019   5.571   4.347   5.887 -1.2435 -1.5183  0.4757
 2202TIP3   OH228020   6.070   5.115  14.532  0.6143  0.1246 -0.3469
 2202TIP3    H128021   5.977   5.138  14.535  0.4778 -0.4747  0.0971
 2202TIP3    H228022   6.115   5.200  14.527  0.0755  0.4648  0.3740
 2203TIP3   OH228023   4.605   6.233   5.227 -0.2760  0.3453  0.2767
 2203TIP3    H128024   4.700   6.227   5.220 -0.1442  2.1133  0.3106
 2203TIP3    H228025   4.588   6.226   5.321 -0.4988 -3.5924  0.0203
 2204TIP3   OH228026   2.263   6.638   2.426 -0.2560 -0.6134  0.2497
 2204TIP3    H128027   2.218   6.557   2.450 -0.1555 -0.3910  1.2147
 2204TIP3    H228028   2.337   6.643   2.487  0.2555 -0.2594 -0.4008
 2205TIP3   OH228029   5.466   0.115   6.038  0.2977  0.2327 -0.6714
 2205TIP3    H128030   5.414   0.139   6.115 -1.1640  0.1207 -1.6274
 2205TIP3    H228031   5.484   0.199   5.995 -0.2936  0.1339 -1.1111
 2206TIP3   OH228032   1.601   0.975  11.532  0.3220  0.3264  0.0457
 2206TIP3    H128033   1.654   1.026  11.471 -0.1400  1.5510  0.6376
 2206TIP3    H228034   1.609   1.022  11.615 -0.7312 -0.1498  0.4208
 2207TIP3   OH228035   5.595   0.225  12.009  0.0476 -0.2964  0.1279
 2207TIP3    H128036   5.513   0.258  11.973 -0.1086  0.8218  1.4567
 2207TIP3    H228037   5.661   0.252  11.945 -0.7404 -2.4195 -1.6587
 2208TIP3   OH228038   5.845   0.017   2.143  0.3264  0.3778  0.6539
 2208TIP3    H128039   5.815   0.059   2.223 -0.5575  0.1700  0.4321
 2208TIP3    H228040   5.868  -0.072   2.169 -1.8013 -0.2934  0.3130
 2209TIP3   OH228041   3.799   1.591  13.299 -0.2519  0.1351  0.0718
 2209TIP3    H128042   3.771   1.663  13.356  3.9037  1.5952  0.5031
 2209TIP3    H228043   3.778   1.621  13.211  1.8318  2.1603  0.2167
 2210TIP3   OH228044   0.764   2.349  16.296  0.2017 -0.1635  0.1929
 2210TIP3    H128045   0.820   2.302  16.234  0.1342 -0.3498  0.2707
 2210TIP3    H228046   0.731   2.424  16.247  0.6361  0.0269  0.1860
 2211TIP3   OH228047   2.600   3.695   3.856 -0.0949 -0.2554 -0.4286
 2211TIP3    H128048   2.573   3.609   3.888  2.1110 -0.8388 -0.0138
 2211TIP3    H228049   2.690   3.705   3.888  0.3614  1.3690 -2.1259
 2212TIP3   OH228050   1.758   6.115   3.650  0.2328 -0.9079 -0.8071
 2212TIP3    H128051   1.786   6.119   3.741 -1.7787 -1.6502 -0.1160
 2212TIP3    H228052   1.778   6.201   3.614 -0.1752 -0.1595  0.7233
 2213TIP3   OH228053   4.714   3.872  15.988 -0.1317 -0.1640  0.1375
 2213TIP3    H128054   4.735   3.949  16.040  0.9431 -0.5622  0.3052
 2213TIP3    H228055   4.735   3.798  16.045  0.8862 -0.5964 -0.7917
 2214TIP3   OH228056   5.849   3.536   4.946 -0.0160  0.3241 -0.4313
 2214TIP3    H128057   5.903   3.550   4.868 -0.0969  0.4536 -0.4658
 2214TIP3    H228058   5.911   3.528   5.018  0.1178 -1.0904 -0.6901
 2215TIP3   OH228059   6.039   3.933  13.631 -0.1100  0.9348 -0.1661
 2215TIP3    H128060   5.970   3.999  13.638 -1.6819 -0.7102  0.5023
 2215TIP3    H228061   6.047   3.897  13.720  3.0426  2.4573  0.2205
 2216TIP3   OH228062   5.321   5.396   2.686  0.5873 -0.1186 -0.2493
 2216TIP3    H128063   5.290   5.444   2.609  0.0029 -0.5884 -0.3072
 2216TIP3    H228064   5.314   5.304   2.662  1.5169 -0.2475 -0.0571
 2217TIP3   OH228065   0.751   0.017  16.392 -0.1854 -0.7453  0.0879
 2217TIP3    H128066   0.679   0.078  16.377 -0.3996 -1.3811 -1.5734
 2217TIP3    H228067   0.763   0.018  16.487 -1.5936  0.2691  0.2826
 2218TIP3   OH228068   3.415   6.547  15.160 -0.4812 -0.3774 -0.6161
 2218TIP3    H128069   3.404   6.510  15.247  1.4855  0.0807 -0.1589
 2218TIP3    H228070   3.340   6.605  15.149  0.1652  0.8872  1.4687
 2219TIP3   OH228071   3.747   2.300   3.331 -0.4059 -0.2306 -0.6387
 2219TIP3    H128072   3.793   2.256   3.260  0.3686  0.8587 -0.8200
 2219TIP3    H228073   3.786   2.387   3.335 -2.7918  0.9060 -1.1488
 2220TIP3   OH228074   0.150   2.180  16.733  0.4287  0.1409 -0.5891
 2220TIP3    H128075   0.217   2.170  16.666  0.1422  1.6743 -1.1358
 2220TIP3    H228076   0.081   2.232  16.690 -0.5553 -0.3646  0.3383
 2221TIP3   OH228077   4.122   6.598   4.818 -0.1134 -0.1408  0.4246
 2221TIP3    H128078   4.181   6.667   4.789 -0.1198 -0.4996 -0.4551
 2221TIP3    H228079   4.056   6.643   4.871 -0.6802  0.6848 -0.9520
 2222TIP3   OH228080   1.671   0.333   5.798  0.2295  0.7058 -0.1616
 2222TIP3    H128081   1.731   0.397   5.760  0.0604  2.2845  2.1381
 2222TIP3    H228082   1.588   0.379   5.804 -0.1717 -0.0993  0.5050
 2223TIP3   OH228083   0.190   0.480  13.050 -0.2098  0.6900 -0.2334
 2223TIP3    H128084   0.118   0.450  13.107 -0.4177 -0.3951 -1.0459
 2223TIP3    H228085   0.145   0.526  12.979 -0.0577  0.5132 -0.4403
 2224TIP3   OH228086   0.001   1.967   3.744  0.0489  0.1612 -0.1235
 2224TIP3    H128087   0.006   2.010   3.658 -0.9864  3.3872  1.3433
 2224TIP3    H228088   0.064   2.015   3.798 -1.7700  0.4667  1.8160
 2225TIP3   OH228089   6.747   0.407  15.853  0.1314 -0.2112  0.5877
 2225TIP3    H128090   6.789   0.477  15.803 -0.1827 -0.3888  0.0650
 2225TIP3    H228091   6.819   0.350  15.879  0.1804 -0.6783 -0.5678
 2226TIP3   OH228092   0.273   2.318  12.508  0.3440 -0.6287  0.0937
 2226TIP3    H128093   0.283   2.413  12.500 -2.2471 -0.2164  1.2434
 2226TIP3    H228094   0.329   2.282  12.439  0.1909  1.7919 -1.3549
 2227TIP3   OH228095   3.652   2.205  15.295  0.7461  0.4377 -0.3555
 2227TIP3    H128096   3.586   2.216  15.364  0.3795 -0.6007 -0.5289
 2227TIP3    H228097   3.727   2.256  15.325 -0.8285  3.3581 -1.1040
 2228TIP3   OH228098   2.354   5.100   1.066 -0.4617 -0.7676  1.3021
 2228TIP3    H128099   2.353   5.090   1.161 -0.5171 -2.0840  1.1716
 2228TIP3    H228100   2.395   5.020   1.034  0.7720  0.2612  0.2753
 2229TIP3   OH228101   0.289   4.012   0.858 -0.0009 -0.1469 -0.3596
 2229TIP3    H128102   0.225   4.016   0.787 -1.6165  2.6158  1.1358
 2229TIP3    H228103   0.374   4.004   0.814 -1.1984 -1.6116 -2.4636
 2230TIP3   OH228104   0.029   4.175   5.104 -0.7190  0.1369 -0.2782
 2230TIP3    H128105  -0.003   4.168   5.014 -0.0217 -0.8361 -0.4611
 2230TIP3    H228106   0.090   4.249   5.102 -1.2437  0.5647 -0.4437
 2231TIP3   OH228107   4.796   1.819   3.865 -0.0647 -0.3480 -0.2361
 2231TIP3    H128108   4.823   1.734   3.898 -1.4738  0.1465  2.3630
 2231TIP3    H228109   4.839   1.883   3.922 -0.4640  0.6258 -0.9960
 2232TIP3   OH228110   1.183   0.606  16.471 -0.2022 -0.2058  0.1388
 2232TIP3    H128111   1.244   0.553  16.521 -1.4389 -1.1469  0.6846
 2232TIP3    H228112   1.193   0.694  16.506  1.1790 -0.2544 -0.1129
 2233TIP3   OH228113   4.912   5.402  12.084 -0.7544 -0.1907 -0.1509
 2233TIP3    H128114   4.933   5.388  11.992 -1.1629  0.5800 -0.3668
 2233TIP3    H228115   4.889   5.495  12.089 -2.1478 -0.5601  0.4571
 2234TIP3   OH228116   0.753   1.136   1.719  0.2124  0.8228  0.4754
 2234TIP3    H128117   0.778   1.213   1.669 -0.0220  1.1299  0.8305
 2234TIP3    H228118   0.678   1.164   1.771 -0.8783 -0.0818 -0.5669
 2235TIP3   OH228119   2.653   0.767  12.360  1.0864 -0.0865  1.0807
 2235TIP3    H128120   2.703   0.837  12.317 -0.5322  0.3817 -0.0790
 2235TIP3    H228121   2.629   0.708  12.289 -1.2732  0.4850  1.3780
 2236TIP3   OH228122   1.913   6.396  16.461 -0.0658  0.9904  0.5841
 2236TIP3    H128123   1.964   6.384  16.541  2.0212  0.9843 -0.6956
 2236TIP3    H228124   1.876   6.484  16.469 -1.8770  0.0950  2.6017
 2237TIP3   OH228125   2.003   2.572  12.117 -0.3330  0.2493  0.0586
 2237TIP3    H128126   2.015   2.502  12.182 -0.2310 -0.0306 -0.2659
 2237TIP3    H228127   1.919   2.613  12.142 -0.6082 -0.2683 -0.0179
 2238TIP3   OH228128   5.247   1.772  15.444  0.2141 -0.0725 -0.4664
 2238TIP3    H128129   5.247   1.862  15.410  0.6134 -0.0801 -0.4872
 2238TIP3    H228130   5.166   1.734  15.410  0.7079 -0.1464 -1.5763
 2239TIP3   OH228131   4.500   0.339   5.419  0.2380  0.5615 -0.0178
 2239TIP3    H128132   4.541   0.285   5.487  0.1059  0.1108 -0.2968
 2239TIP3    H228133   4.522   0.429   5.444 -0.1935  0.4269  0.8761
 2240TIP3   OH228134   2.415   2.717  13.716 -0.0553  0.3138 -0.6052
 2240TIP3    H128135   2.491   2.774  13.718  0.6428 -0.4564 -3.1327
 2240TIP3    H228136   2.440   2.646  13.657 -2.9261  0.3462 -1.9439
 2241TIP3   OH228137   2.553   3.075  12.584  0.1305  0.6610  0.2142
 2241TIP3    H128138   2.638   3.039  12.557 -1.2130 -1.5419 -1.2417
 2241TIP3    H228139   2.515   3.007  12.639 -1.8829  0.3986 -1.4481
 2242TIP3   OH228140   4.159   0.946   2.775  0.7374  0.3818 -0.0079
 2242TIP3    H128141   4.099   0.934   2.848  1.4407  2.7818  1.0018
 2242TIP3    H228142   4.133   1.029   2.735  1.3625 -0.1262 -1.5062
 2243TIP3   OH228143   4.179   2.953  13.497 -0.0735  0.6214  0.4885
 2243TIP3    H128144   4.247   2.890  13.473 -0.2359  0.8179 -0.5078
 2243TIP3    H228145   4.226   3.022  13.545  0.4168  0.6876 -0.0773
 2244TIP3   OH228146   5.225   2.966   1.414  0.1428 -0.5722 -0.2209
 2244TIP3    H128147   5.154   3.006   1.364  0.8116  0.9356  0.0340
 2244TIP3    H228148   5.236   2.879   1.374 -0.0803  0.1708 -1.9387
 2245TIP3   OH228149   1.012   3.637   2.569  0.1092  0.0448  0.3506
 2245TIP3    H128150   1.085   3.683   2.527  0.2441 -0.0331  0.4966
 2245TIP3    H228151   1.054   3.583   2.637 -0.2486  1.3863  1.6614
 2246TIP3   OH228152   2.171   2.609  11.811  0.1565 -0.1111 -0.1532
 2246TIP3    H128153   2.080   2.610  11.781  0.4164 -0.4919 -0.9668
 2246TIP3    H228154   2.192   2.702  11.826 -0.4315 -0.0389  0.2725
 2247TIP3   OH228155   3.761   4.312  12.871 -0.1629 -0.1868 -0.3973
 2247TIP3    H128156   3.767   4.397  12.915 -0.4573  0.1406 -0.9846
 2247TIP3    H228157   3.850   4.292  12.844  0.3369 -1.2504  1.9441
 2248TIP3   OH228158   1.153   0.039   1.740 -0.3617  0.1841  0.6463
 2248TIP3    H128159   1.237   0.053   1.783 -0.5386  0.2535  0.9721
 2248TIP3    H228160   1.163   0.078   1.653  0.6300 -1.6450 -0.0800
 2249TIP3   OH228161   2.496   1.558   2.645  0.6814 -0.5913 -0.0768
 2249TIP3    H128162   2.533   1.545   2.558 -1.4484  1.2846 -1.3216
 2249TIP3    H228163   2.494   1.653   2.656 -2.2519 -0.6926  0.5693
 2250TIP3   OH228164   3.480   1.764  13.618  0.0966 -0.0260  0.2097
 2250TIP3    H128165   3.456   1.767  13.525 -0.6056 -0.5529  0.3774
 2250TIP3    H228166   3.511   1.675  13.632 -0.0210 -0.0154  0.5341
 2251TIP3   OH228167   2.388   4.866  15.183  0.3329 -0.2311 -0.1560
 2251TIP3    H128168   2.391   4.782  15.138  1.9088  0.5135 -1.4874
 2251TIP3    H228169   2.474   4.875  15.223 -0.4631 -0.0966  1.5765
 2252TIP3   OH228170   1.852   3.401   5.381  0.2668 -0.2540  0.5323
 2252TIP3    H128171   1.791   3.344   5.427 -1.5130  1.3634  0.2567
 2252TIP3    H228172   1.809   3.419   5.297  2.3789 -1.2701 -0.8116
 2253TIP3   OH228173   1.981   3.762   3.618  0.2210 -0.2310 -0.0354
 2253TIP3    H128174   2.042   3.688   3.627  1.7141  0.9492 -0.1673
 2253TIP3    H228175   1.928   3.741   3.542  0.1254 -1.5117  0.3687
 2254TIP3   OH228176   5.390   5.038  15.572 -0.0592 -0.2367  0.0218
 2254TIP3    H128177   5.297   5.039  15.549 -0.0203 -1.1848 -0.2187
 2254TIP3    H228178   5.393   5.063  15.664 -0.6408 -1.0851  0.2835
 2255TIP3   OH228179   4.240   5.694   3.703 -0.0690  0.3552  0.0495
 2255TIP3    H128180   4.226   5.620   3.762  0.7268 -0.3604 -0.6438
 2255TIP3    H228181   4.171   5.687   3.638 -0.2329  0.4549  0.2127
 2256TIP3   OH228182   6.749   5.389   3.424 -0.0456  0.3159  0.0046
 2256TIP3    H128183   6.705   5.316   3.468 -0.1871  0.5904  0.3278
 2256TIP3    H228184   6.712   5.390   3.336 -0.7827  0.6256  0.3176
 2257TIP3   OH228185   5.424   1.001  14.843  0.3546  0.4148  0.2754
 2257TIP3    H128186   5.422   0.981  14.937 -1.3902  2.4526  0.7201
 2257TIP3    H228187   5.343   0.962  14.809  1.7390 -1.6870 -0.7275
 2258TIP3   OH228188   1.750   5.544  16.787 -0.1765 -0.4486 -0.1106
 2258TIP3    H128189   1.833   5.531  16.833  0.7697 -0.7293 -1.8697
 2258TIP3    H228190   1.741   5.639  16.781 -0.2418 -0.4106  0.5294
 2259TIP3   OH228191   2.783   4.507  14.051 -0.3396  0.4266 -0.0931
 2259TIP3    H128192   2.738   4.433  14.009  1.3403 -1.6907  1.7208
 2259TIP3    H228193   2.769   4.580  13.991 -0.5399 -1.7889 -2.8511
 2260TIP3   OH228194   5.218   4.771  14.804  0.8047  0.0482 -0.1465
 2260TIP3    H128195   5.287   4.717  14.842 -0.2246 -0.6174  0.8183
 2260TIP3    H228196   5.171   4.712  14.745 -0.9096 -0.4244  1.6201
 2261TIP3   OH228197   0.511   4.922  14.268 -0.1231  0.6364  0.2489
 2261TIP3    H128198   0.549   4.972  14.196 -0.0192  0.8493  0.4497
 2261TIP3    H228199   0.464   4.988  14.320  1.2601  0.7768  1.3418
 2262TIP3   OH228200   4.827   3.107   5.173  0.0496 -0.4764 -0.4258
 2262TIP3    H128201   4.785   3.051   5.238  1.1671 -0.4955  0.2966
 2262TIP3    H228202   4.823   3.195   5.210  0.0289 -0.3681 -0.6795
 2263TIP3   OH228203   6.745   3.320   0.349 -0.5425  0.3235  0.0407
 2263TIP3    H128204   6.757   3.396   0.292 -0.2672 -0.4025 -0.8856
 2263TIP3    H228205   6.831   3.279   0.353 -0.3253  0.9217  1.8001
 2264TIP3   OH228206   6.667   1.660  11.819 -0.3115 -0.1424  0.2319
 2264TIP3    H128207   6.723   1.593  11.858 -1.1602 -1.1697 -0.3219
 2264TIP3    H228208   6.707   1.679  11.734 -0.0576  0.0866  0.3989
 2265TIP3   OH228209   6.669   1.959   0.341  0.4892 -0.5560  0.1789
 2265TIP3    H128210   6.749   1.999   0.307 -0.4466  1.0854 -0.1272
 2265TIP3    H228211   6.641   1.897   0.273  1.6261 -1.3287  0.4034
 2266TIP3   OH228212   4.468   6.673  13.070  0.0896 -0.2652  0.3561
 2266TIP3    H128213   4.399   6.707  13.013 -0.5645 -1.9028  0.1550
 2266TIP3    H228214   4.488   6.746  13.129 -1.5934  0.3210  0.2291
 2267TIP3   OH228215   0.669   4.572   5.397 -0.4302 -0.3082 -0.2709
 2267TIP3    H128216   0.680   4.648   5.340 -1.0953  0.8716  1.1525
 2267TIP3    H228217   0.729   4.588   5.470 -1.2496 -0.6918  0.4904
 2268TIP3   OH228218   0.814   5.493  14.720  0.6191  0.7045  0.0081
 2268TIP3    H128219   0.832   5.586  14.707  1.6236  0.5054 -0.0530
 2268TIP3    H228220   0.894   5.449  14.693 -0.2581 -0.2626 -1.0636
 2269TIP3   OH228221   4.687   3.324   1.152 -0.3917 -0.4369  0.1400
 2269TIP3    H128222   4.637   3.257   1.106  0.3463 -1.0907  0.2789
 2269TIP3    H228223   4.662   3.314   1.244 -0.3924 -0.4281  0.1408
 2270TIP3   OH228224   0.241   0.433  11.830 -0.3414  0.0026 -0.0313
 2270TIP3    H128225   0.302   0.506  11.828 -1.1329  0.7328  1.2451
 2270TIP3    H228226   0.165   0.464  11.779  0.5781 -1.1326 -2.1368
 2271TIP3   OH228227   5.564   1.639   2.179 -0.3020  0.2695 -0.3713
 2271TIP3    H128228   5.522   1.576   2.238  0.3861 -0.6874 -0.8869
 2271TIP3    H228229   5.514   1.720   2.190 -0.8341 -0.2034  0.7316
 2272TIP3   OH228230   4.709   1.252  11.838  0.3459  0.2711  0.4889
 2272TIP3    H128231   4.681   1.184  11.777  1.9280 -1.1438  1.3058
 2272TIP3    H228232   4.695   1.334  11.790 -0.6172 -0.6830 -0.8894
 2273TIP3   OH228233   4.427   3.333   3.482 -0.3827 -0.1879 -0.0828
 2273TIP3    H128234   4.499   3.375   3.528 -1.2492  0.8268  0.3612
 2273TIP3    H228235   4.374   3.293   3.551 -1.0174  0.2855 -0.2961
 2274TIP3   OH228236   2.388   1.674   2.112  0.5687 -0.3006 -0.4274
 2274TIP3    H128237   2.433   1.721   2.042 -0.0130 -0.5311 -0.9563
 2274TIP3    H228238   2.409   1.724   2.191  1.4654 -0.2069 -0.7142
 2275TIP3   OH228239   0.395   3.516  14.712  0.0245 -0.1237  0.0886
 2275TIP3    H128240   0.356   3.579  14.773 -1.6135 -0.3976 -0.6529
 2275TIP3    H228241   0.488   3.539  14.711 -0.2667  1.1911  1.1208
 2276TIP3   OH228242   6.337   2.528  11.772 -0.1975 -0.0613  0.1528
 2276TIP3    H128243   6.394   2.452  11.757  0.0666  0.6468 -2.7721
 2276TIP3    H228244   6.250   2.498  11.746 -0.3643  0.1980  0.4071
 2277TIP3   OH228245   0.463   0.222  15.361 -0.3029 -0.3188 -0.0617
 2277TIP3    H128246   0.546   0.218  15.408 -1.0299  1.3733  1.4470
 2277TIP3    H228247   0.470   0.156  15.293  1.8264 -0.9868  0.7799
 2278TIP3   OH228248   2.988   0.114   4.055  0.5382  0.3431 -0.2652
 2278TIP3    H128249   3.020   0.029   4.024  0.3516  0.8627 -1.9453
 2278TIP3    H228250   3.046   0.178   4.014  0.9374  1.0287  1.3241
 2279TIP3   OH228251   6.066   1.859  11.134 -0.4599 -0.2936 -0.3897
 2279TIP3    H128252   6.088   1.820  11.218  3.5619  1.5630 -0.4867
 2279TIP3    H228253   6.063   1.953  11.150 -0.3487  0.0379 -2.1629
 2280TIP3   OH228254   6.739   0.444   4.035  0.4786 -0.4766 -0.0214
 2280TIP3    H128255   6.727   0.515   3.972  2.6349 -0.7869 -0.8277
 2280TIP3    H228256   6.731   0.485   4.121 -1.6600  0.1081 -0.4914
 2281TIP3   OH228257   0.922   2.206  17.090 -0.3246  0.2874 -0.0912
 2281TIP3    H128258   0.949   2.287  17.047 -2.1653 -0.7255 -3.2456
 2281TIP3    H228259   0.829   2.219  17.110 -0.0778 -0.1907  1.4445
 2282TIP3   OH228260   3.736   2.699  14.224  0.0572 -0.2663 -0.0396
 2282TIP3    H128261   3.748   2.788  14.193 -1.7623  0.1924  0.5054
 2282TIP3    H228262   3.674   2.660  14.162 -0.5625 -0.5738  0.7575
 2283TIP3   OH228263   5.798   0.872  15.001 -0.1766 -0.7975 -0.1701
 2283TIP3    H128264   5.723   0.867  15.060 -0.9588 -0.5821 -1.1342
 2283TIP3    H228265   5.800   0.964  14.972  1.2930 -0.4731  0.9243
 2284TIP3   OH228266   6.310   4.446  11.655 -0.0876 -0.3415 -0.8932
 2284TIP3    H128267   6.309   4.484  11.567 -1.9192 -0.5759 -0.9954
 2284TIP3    H228268   6.292   4.353  11.642  0.1696 -0.4770 -0.3078
 2285TIP3   OH228269   3.817   3.997  15.285  0.2845 -0.4265  0.0548
 2285TIP3    H128270   3.843   3.912  15.249  1.0719  0.2044 -0.8852
 2285TIP3    H228271   3.898   4.046  15.293 -0.2681  0.5523 -0.2195
 2286TIP3   OH228272   0.459   0.001  15.186 -0.1818 -0.1740 -0.1994
 2286TIP3    H128273   0.490  -0.061  15.120  0.9688  0.5549 -0.3630
 2286TIP3    H228274   0.374  -0.034  15.214  0.2690 -1.5955 -0.5743
 2287TIP3   OH228275   2.084   0.641   0.634  0.0003  0.1015 -0.6878
 2287TIP3    H128276   2.141   0.571   0.667  0.6972  0.2813 -1.4871
 2287TIP3    H228277   2.017   0.595   0.583 -2.9956 -0.4616  3.5526
 2288TIP3   OH228278   1.234   0.763  11.362  0.6782  0.2763 -0.3441
 2288TIP3    H128279   1.295   0.732  11.429 -1.0877 -0.4689  0.9769
 2288TIP3    H228280   1.276   0.841  11.325  1.9656  0.3522  1.2106
 2289TIP3   OH228281   2.907   5.120   3.181  0.2527 -0.5543 -0.5495
 2289TIP3    H128282   2.825   5.088   3.220  0.0675 -0.7437 -1.0979
 2289TIP3    H228283   2.912   5.211   3.209 -0.1200 -0.5567 -0.4637
 2290TIP3   OH228284   3.411   3.249  12.928  0.0476 -0.1322 -0.4340
 2290TIP3    H128285   3.432   3.211  13.014 -0.0504  0.7775  0.0045
 2290TIP3    H228286   3.468   3.203  12.867 -0.5097 -1.4149 -0.0113
 2291TIP3   OH228287   2.217   1.109  17.077  0.2008  0.4015 -0.1074
 2291TIP3    H128288   2.175   1.033  17.036  0.1392 -0.2235  1.0780
 2291TIP3    H228289   2.296   1.072  17.118  0.3413  1.0411  0.1909
 2292TIP3   OH228290   0.621   2.538   1.828  0.9698  0.2679 -0.0229
 2292TIP3    H128291   0.572   2.586   1.894  0.0255  1.1414 -1.3387
 2292TIP3    H228292   0.651   2.604   1.766  0.9324 -0.6449 -1.0431
 2293TIP3   OH228293   2.119   5.421  16.058  0.4507 -0.1729  0.0093
 2293TIP3    H128294   2.117   5.461  16.145  2.3870 -0.8146  0.3686
 2293TIP3    H228295   2.194   5.463  16.015  0.0251 -0.4885 -1.0573
 2294TIP3   OH228296   1.696   4.736   2.986 -0.0392  0.4451  0.1550
 2294TIP3    H128297   1.627   4.779   3.037  1.6284 -0.0014  2.8923
 2294TIP3    H228298   1.732   4.806   2.931 -0.7770  1.3254  0.7717
 2295TIP3   OH228299   1.651   0.877   3.985 -0.2017  0.8076 -0.5716
 2295TIP3    H128300   1.632   0.786   4.010  0.2217  1.2731  1.5479
 2295TIP3    H228301   1.719   0.869   3.917 -0.2048 -0.4578 -0.4519
 2296TIP3   OH228302   6.483   3.597   2.377 -0.0594 -0.3478 -0.1790
 2296TIP3    H128303   6.400   3.627   2.413 -0.0378  0.2078 -0.5995
 2296TIP3    H228304   6.460   3.524   2.320 -0.1894 -0.6045  0.1960
 2297TIP3   OH228305   4.433   2.779  15.971  0.2306  0.2253  0.3432
 2297TIP3    H128306   4.370   2.708  15.961 -0.1745  0.7118 -0.6698
 2297TIP3    H228307   4.415   2.815  16.057  0.3627 -0.8256  0.8195
 2298TIP3   OH228308   5.561   0.975  12.269  0.9234 -0.0263 -0.4910
 2298TIP3    H128309   5.537   0.882  12.264  0.5336  0.0305  0.2974
 2298TIP3    H228310   5.497   1.019  12.213 -0.1889  0.0013  0.7755
 2299TIP3   OH228311   3.374   5.134   4.164 -0.5173  0.4888  0.1729
 2299TIP3    H128312   3.413   5.108   4.247 -0.5984 -1.2586 -0.3138
 2299TIP3    H228313   3.356   5.227   4.174 -0.1847  0.3790  1.9766
 2300TIP3   OH228314   3.312   6.582  12.527  0.1315  0.3625 -0.0547
 2300TIP3    H128315   3.361   6.623  12.598 -1.0485 -0.6500  1.3899
 2300TIP3    H228316   3.368   6.512  12.496 -0.0062 -0.2435  1.0167
 2301TIP3   OH228317   1.780   5.133   4.175  0.2011  0.3361  0.6327
 2301TIP3    H128318   1.699   5.088   4.151 -0.6954  1.9088  0.6540
 2301TIP3    H228319   1.751   5.211   4.223  1.7359  0.8179  0.7997
 2302TIP3   OH228320   2.580   1.672   1.344 -0.7173  0.0930  0.1443
 2302TIP3    H128321   2.634   1.628   1.279 -1.0366 -0.1586  0.0480
 2302TIP3    H228322   2.618   1.647   1.428  0.9225  1.9985  0.0163
 2303TIP3   OH228323   0.670   2.475   2.654  0.3329 -0.0627 -0.0278
 2303TIP3    H128324   0.756   2.491   2.691 -0.4824  0.4817  1.6764
 2303TIP3    H228325   0.609   2.498   2.724 -1.3469  3.1045 -2.3918
 2304TIP3   OH228326   1.351   6.347   0.956 -0.1650  0.6279  0.2206
 2304TIP3    H128327   1.278   6.399   0.989  0.4505  0.6389  1.5862
 2304TIP3    H228328   1.311   6.287   0.892 -0.8303  2.9911 -1.6555
 2305TIP3   OH228329   2.427   1.837   5.644 -0.4544 -0.1352  0.7521
 2305TIP3    H128330   2.493   1.860   5.708 -0.9072  0.1931  1.1018
 2305TIP3    H228331   2.456   1.879   5.563 -0.0189 -0.3385  0.8037
 2306TIP3   OH228332   4.065   3.928   5.088 -0.3469 -0.4985  0.2104
 2306TIP3    H128333   4.022   3.860   5.036 -0.0672 -1.8155  1.6639
 2306TIP3    H228334   4.015   3.932   5.169  0.3667  0.2043  0.6204
 2307TIP3   OH228335   1.790   5.786   4.170  0.3591  0.1525 -0.1614
 2307TIP3    H128336   1.719   5.746   4.221 -0.6203  2.3026  0.2344
 2307TIP3    H228337   1.776   5.753   4.081 -0.5376 -0.2339  0.1127
 2308TIP3   OH228338   5.930   4.082   3.907 -1.1128 -0.2816 -0.0635
 2308TIP3    H128339   5.930   3.986   3.911 -0.2345 -0.2161  1.7675
 2308TIP3    H228340   5.942   4.110   3.997 -3.2232  1.6000 -0.3104
 2309TIP3   OH228341   0.824   0.199  14.363  0.2235  0.0507  0.3515
 2309TIP3    H128342   0.797   0.259  14.432 -0.4669  1.6842 -1.2903
 2309TIP3    H228343   0.770   0.224  14.287 -0.6934 -3.2042 -0.1401
 2310TIP3   OH228344   4.205   1.216  15.854 -0.1224 -0.0533 -0.1102
 2310TIP3    H128345   4.257   1.213  15.935 -0.2421  1.1145  0.0156
 2310TIP3    H228346   4.246   1.150  15.798  0.0067 -0.8278  0.8703
 2311TIP3   OH228347   5.067   2.897   6.185 -0.0459 -0.0771  0.2994
 2311TIP3    H128348   5.130   2.825   6.180  0.0077  0.0054 -0.3195
 2311TIP3    H228349   5.074   2.929   6.275  0.0288 -0.7569  0.5404
 2312TIP3   OH228350   3.130   0.141  12.859  0.3522 -0.1724 -0.0649
 2312TIP3    H128351   3.119   0.220  12.912  0.5992  0.4887 -0.9739
 2312TIP3    H228352   3.198   0.091  12.903  1.0903  0.7325 -0.1606
 2313TIP3   OH228353   5.489   5.417  15.493  0.2379 -0.4063 -0.4451
 2313TIP3    H128354   5.431   5.394  15.420 -1.5978  1.6066  0.3288
 2313TIP3    H228355   5.572   5.439  15.452 -0.3057 -0.8288 -1.7922
 2314TIP3   OH228356   4.916   1.642   3.040  0.1513  0.2425 -0.5013
 2314TIP3    H128357   4.901   1.696   3.118  0.9348 -0.2225 -0.0225
 2314TIP3    H228358   4.880   1.556   3.064 -0.2056  0.2788 -0.9016
 2315TIP3   OH228359   5.387   5.194  11.708  0.0836 -0.0059  0.1678
 2315TIP3    H128360   5.323   5.245  11.758  1.2464 -1.2311  2.9611
 2315TIP3    H228361   5.334   5.129  11.662 -0.9990  1.1088 -0.1904
 2316TIP3   OH228362   5.623   6.521   4.191  0.6581  0.5378  0.2785
 2316TIP3    H128363   5.612   6.616   4.191 -1.7885  0.3058 -1.8759
 2316TIP3    H228364   5.637   6.499   4.098  1.5854 -1.1880  0.8009
 2317TIP3   OH228365   0.763   4.220  15.341  0.6835  0.1149 -0.3439
 2317TIP3    H128366   0.830   4.251  15.402  0.0845 -1.0551  0.9615
 2317TIP3    H228367   0.811   4.176  15.271  1.3447  0.6101 -0.2002
 2318TIP3   OH228368   1.961   5.738  16.145 -0.0056 -0.5228 -0.5438
 2318TIP3    H128369   1.998   5.736  16.056  0.8671 -0.6554 -0.1915
 2318TIP3    H228370   2.031   5.702  16.200 -0.4582 -0.2338  0.2295
 2319TIP3   OH228371   5.691   2.318  11.856 -0.1022 -0.2525  0.0481
 2319TIP3    H128372   5.679   2.297  11.948 -0.8236 -0.3604 -0.0733
 2319TIP3    H228373   5.783   2.347  11.850 -0.4233  1.0225  1.0374
 2320TIP3   OH228374   0.842   4.039  11.302  0.0439  0.1487  0.3771
 2320TIP3    H128375   0.781   4.109  11.279  0.7307 -0.0560 -2.1300
 2320TIP3    H228376   0.919   4.056  11.248  1.1932 -1.1109  1.6000
 2321TIP3   OH228377   5.753   3.337   4.731 -0.9757  0.2125 -0.1841
 2321TIP3    H128378   5.777   3.320   4.639 -0.1866 -1.2827  0.2871
 2321TIP3    H228379   5.815   3.285   4.782 -3.8150 -2.0103  1.1523
 2322TIP3   OH228380   0.404   3.034  13.361  0.3756  0.1309  0.0710
 2322TIP3    H128381   0.375   2.966  13.423 -0.8745 -1.3673 -2.1081
 2322TIP3    H228382   0.498   3.018  13.351 -0.0408 -1.7953 -1.0005
 2323TIP3   OH228383   6.178   2.598   3.742  0.4476  0.6002  0.1183
 2323TIP3    H128384   6.197   2.524   3.799 -0.0623  0.2116 -0.2080
 2323TIP3    H228385   6.188   2.675   3.797 -1.5871  0.1521  1.1685
 2324TIP3   OH228386   5.081   5.469   0.545 -0.4020  0.3206  0.1537
 2324TIP3    H128387   5.100   5.496   0.455 -2.7934  0.0564 -0.4599
 2324TIP3    H228388   5.081   5.373   0.542  1.0506  0.2806  0.8030
 2325TIP3   OH228389   6.533   5.190   4.866 -0.4900  0.0543  0.2729
 2325TIP3    H128390   6.482   5.261   4.904  1.0348  1.4724 -0.2574
 2325TIP3    H228391   6.596   5.165   4.934 -0.3028 -0.0291  0.0712
 2326TIP3   OH228392   5.542   5.838   3.486 -0.1804  0.0604 -0.4682
 2326TIP3    H128393   5.531   5.878   3.572 -1.3591 -1.7475  0.2556
 2326TIP3    H228394   5.475   5.769   3.482  1.9897 -2.0956 -1.4955
 2327TIP3   OH228395   5.315   3.069   2.742 -0.3877 -0.0759 -0.0132
 2327TIP3    H128396   5.384   3.107   2.795 -1.6561  0.3676  1.3525
 2327TIP3    H228397   5.282   3.142   2.690 -0.6223 -0.0297  0.2011
 2328TIP3   OH228398   6.054   5.416   0.526  0.3739 -0.1275  0.5011
 2328TIP3    H128399   6.091   5.485   0.582 -1.8852  2.3663 -0.9742
 2328TIP3    H228400   6.082   5.440   0.437 -0.0395 -1.4055  0.0164
 2329TIP3   OH228401   3.212   1.467   1.935  0.3541 -0.4209 -0.1098
 2329TIP3    H128402   3.153   1.512   1.995  0.6927 -0.6322  0.3877
 2329TIP3    H228403   3.157   1.442   1.861  0.1005  0.5280 -0.2479
 2330TIP3   OH228404   3.921   3.177  16.254  0.0668  0.2969 -0.2488
 2330TIP3    H128405   4.000   3.161  16.306 -0.6653  0.6026  0.9903
 2330TIP3    H228406   3.952   3.183  16.164  1.3291 -0.5649  0.1137
 2331TIP3   OH228407   0.449   5.770   2.598  0.0583 -0.1195 -0.1737
 2331TIP3    H128408   0.513   5.723   2.651 -0.3651  0.2642  0.6833
 2331TIP3    H228409   0.494   5.851   2.572 -0.5868  0.8639  1.7002
 2332TIP3   OH228410   5.037   2.992  16.727 -0.3372 -0.1023 -0.0082
 2332TIP3    H128411   5.132   2.997  16.712 -0.2258 -0.0487  0.7171
 2332TIP3    H228412   5.028   2.977  16.821 -1.0645  0.3184 -0.0095
 2333TIP3   OH228413   5.432   5.776  16.786 -0.0838  0.0388  0.2128
 2333TIP3    H128414   5.513   5.750  16.830  0.3134 -2.9771 -2.1057
 2333TIP3    H228415   5.455   5.776  16.693 -2.5549 -0.1314 -0.4217
 2334TIP3   OH228416   0.827   5.401   2.663 -0.0393  0.2604 -0.1926
 2334TIP3    H128417   0.825   5.308   2.643  2.1748  0.0500  0.3771
 2334TIP3    H228418   0.834   5.404   2.758 -0.1090  1.0107 -0.2121
 2335TIP3   OH228419   1.527   2.860  12.233  0.0847 -0.1793 -0.6466
 2335TIP3    H128420   1.521   2.947  12.195 -0.1698  1.3652  2.7313
 2335TIP3    H228421   1.476   2.865  12.314  0.0348 -3.4797 -0.3898
 2336TIP3   OH228422   4.011   4.256   1.911 -0.0515  0.2040  0.0148
 2336TIP3    H128423   3.920   4.229   1.904 -0.3942  0.7269  2.0891
 2336TIP3    H228424   4.028   4.305   1.831 -2.2688  2.0738  0.6549
 2337TIP3   OH228425   3.756   5.606  11.166  0.2473  0.2022  0.1564
 2337TIP3    H128426   3.672   5.643  11.139  1.8859  2.2295 -2.3834
 2337TIP3    H228427   3.757   5.518  11.130  0.2475  1.0815 -2.0932
 2338TIP3   OH228428   2.285   3.367  17.184 -0.2459  0.0765 -0.0539
 2338TIP3    H128429   2.249   3.353  17.096 -0.0378  1.8861 -0.4371
 2338TIP3    H228430   2.256   3.455  17.208 -0.4437 -0.4767  1.7720
 2339TIP3   OH228431   3.940   0.176  17.076 -0.6132  0.0336 -0.3207
 2339TIP3    H128432   3.979   0.108  17.023  0.3681  0.1094  0.2928
 2339TIP3    H228433   3.906   0.131  17.153 -0.3532  0.1834 -0.1179
 2340TIP3   OH228434   3.127   6.399   1.109  0.2854  0.1303 -0.1276
 2340TIP3    H128435   3.152   6.327   1.166  2.1641  0.6013 -0.3402
 2340TIP3    H228436   3.032   6.408   1.122  0.1731 -1.7979  0.5433
 2341TIP3   OH228437   4.927   5.635   4.977 -0.9204 -0.2196  0.1338
 2341TIP3    H128438   5.015   5.601   4.997 -0.7636  0.9689  1.5887
 2341TIP3    H228439   4.870   5.589   5.039 -1.2162 -0.4435 -0.3070
 2342TIP3   OH228440   4.825   2.677   1.707 -0.3532  0.9265 -0.0003
 2342TIP3    H128441   4.750   2.734   1.728 -0.7062  0.7741 -0.8128
 2342TIP3    H228442   4.808   2.649   1.617  0.1544  0.0565  0.1760
 2343TIP3   OH228443   1.959   0.167  14.877  0.1860 -1.1110  0.2797
 2343TIP3    H128444   2.038   0.215  14.902 -0.3247  0.1672 -0.5029
 2343TIP3    H228445   1.892   0.199  14.937 -0.0854 -1.0443 -0.0551
 2344TIP3   OH228446   3.752   2.729   5.701 -0.0127 -0.5260 -0.0869
 2344TIP3    H128447   3.719   2.797   5.760  1.3371 -0.0945  0.1836
 2344TIP3    H228448   3.736   2.647   5.748  0.3688 -0.2368  0.5513
 2345TIP3   OH228449   6.653   1.565   3.661  0.7661  0.3165  0.3963
 2345TIP3    H128450   6.738   1.545   3.701  1.3849 -1.4707 -1.7639
 2345TIP3    H228451   6.674   1.625   3.589  0.4545 -1.5420 -1.2894
 2346TIP3   OH228452   2.399   4.564   5.105 -0.0300 -1.2184 -0.2749
 2346TIP3    H128453   2.331   4.584   5.169 -0.6752  0.5535 -1.4607
 2346TIP3    H228454   2.406   4.469   5.105 -2.1531 -1.3991  0.2510
 2347TIP3   OH228455   2.591   4.685   2.699 -0.2800  0.4355 -0.0146
 2347TIP3    H128456   2.643   4.764   2.716  0.8693  0.0917 -1.7546
 2347TIP3    H228457   2.654   4.614   2.698 -0.9812 -0.1961 -0.6523
 2348TIP3   OH228458   2.200   3.362  16.913  0.1072  0.1024 -0.2448
 2348TIP3    H128459   2.165   3.434  16.965  0.6455  1.1756 -1.3486
 2348TIP3    H228460   2.124   3.307  16.893 -0.1915 -0.0112  1.1764
 2349TIP3   OH228461   2.863   0.360  12.750 -0.0695  0.0088  0.0724
 2349TIP3    H128462   2.887   0.274  12.715  0.4120 -0.4474  1.4873
 2349TIP3    H228463   2.922   0.372  12.824 -1.9460  0.3710  1.5395
 2350TIP3   OH228464   6.638   5.964  16.152 -0.4719 -0.1702 -0.5481
 2350TIP3    H128465   6.673   6.043  16.111  1.2588 -0.0163  1.1412
 2350TIP3    H228466   6.552   5.990  16.184  0.5736  1.4342  1.0700
 2351TIP3   OH228467   4.053   4.534   0.351  0.2862  0.0948 -0.2761
 2351TIP3    H128468   4.013   4.544   0.437 -0.6090 -1.1065 -0.5419
 2351TIP3    H228469   4.053   4.623   0.315  0.9462  0.6594  1.0698
 2352TIP3   OH228470   3.064   2.650  13.462  0.6166  0.1533  0.4567
 2352TIP3    H128471   2.977   2.637  13.501 -0.1971  0.6795 -1.1688
 2352TIP3    H228472   3.116   2.576  13.494 -0.9747 -1.2333 -0.1113
 2353TIP3   OH228473   5.693   6.756  12.075  0.2288  0.0403  0.3252
 2353TIP3    H128474   5.638   6.833  12.057 -2.3440 -1.3181  2.0033
 2353TIP3    H228475   5.764   6.789  12.130  0.3535  1.5875 -0.7318
 2354TIP3   OH228476   5.206   0.307  16.775 -0.2772  0.0910 -0.4145
 2354TIP3    H128477   5.290   0.264  16.760  0.2587  0.5167  1.2196
 2354TIP3    H228478   5.219   0.358  16.856 -2.6164 -1.1745  0.8172
 2355TIP3   OH228479   5.978   0.304  12.055  0.2244 -0.5311 -0.3244
 2355TIP3    H128480   6.039   0.353  11.999  1.3979 -1.6038  0.0051
 2355TIP3    H228481   5.974   0.217  12.016  0.7548 -1.1688  1.0284
 2356TIP3   OH228482   4.896   1.563   2.103  0.7275  0.1348  0.2198
 2356TIP3    H128483   4.991   1.567   2.107  0.6683  1.2199  0.6391
 2356TIP3    H228484   4.866   1.622   2.172 -0.2462 -0.5953  0.4341
 2357TIP3   OH228485   0.004   1.727  11.578  0.0389 -0.0588  0.5541
 2357TIP3    H128486  -0.045   1.679  11.512  0.7012 -0.5162  0.3834
 2357TIP3    H228487   0.019   1.813  11.539  0.1290 -0.2129  0.2475
 2358TIP3   OH228488   2.306   3.810   5.873 -0.1588 -0.4822 -0.8631
 2358TIP3    H128489   2.394   3.773   5.867  0.0514  0.0232 -0.9374
 2358TIP3    H228490   2.312   3.873   5.945 -0.9202 -1.7047  0.3092
 2359TIP3   OH228491   6.065   4.888  12.683  0.4030  0.0516 -0.0901
 2359TIP3    H128492   6.159   4.891  12.700  0.8071  0.9290 -2.2803
 2359TIP3    H228493   6.046   4.796  12.665  0.3456 -0.5417  2.7652
 2360TIP3   OH228494   3.323   4.992   3.253 -0.4116 -0.8698  0.3839
 2360TIP3    H128495   3.312   5.023   3.343  0.2006  0.0431  0.1482
 2360TIP3    H228496   3.280   4.906   3.252 -3.2378  0.4601  0.7468
 2361TIP3   OH228497   5.835   0.731   5.036  0.4049  0.1992 -0.2491
 2361TIP3    H128498   5.878   0.695   4.958  0.2031  0.7447 -0.6079
 2361TIP3    H228499   5.907   0.752   5.096  0.8566  3.8614 -1.9911
 2362TIP3   OH228500   0.568   6.361   4.147 -0.6906 -0.0690 -0.3832
 2362TIP3    H128501   0.504   6.424   4.180  0.1155  0.1940  0.7320
 2362TIP3    H228502   0.535   6.276   4.177 -1.3970 -0.1121 -1.2653
 2363TIP3   OH228503   0.759   4.108   2.196 -0.7162  0.4790 -0.3944
 2363TIP3    H128504   0.808   4.190   2.193 -0.7050  0.5561  1.3359
 2363TIP3    H228505   0.690   4.119   2.130  1.0855  0.6588 -2.3271
 2364TIP3   OH228506   5.089   4.115  11.961 -0.2953  0.2879  0.6878
 2364TIP3    H128507   5.124   4.028  11.978 -2.1052 -0.3513  1.2966
 2364TIP3    H228508   5.067   4.149  12.047 -2.0447  0.2668  0.2711
 2365TIP3   OH228509   0.447   1.681  15.475 -0.0557 -0.4675 -0.3149
 2365TIP3    H128510   0.427   1.639  15.559 -0.5196 -1.8160 -1.0906
 2365TIP3    H228511   0.364   1.723  15.450  0.4909  1.2264  0.6110
 2366TIP3   OH228512   4.830   4.438  13.936 -1.1605 -0.0384  0.5372
 2366TIP3    H128513   4.853   4.495  13.863 -4.4008  0.6978 -0.0054
 2366TIP3    H228514   4.794   4.359  13.895  0.9509 -1.4592  1.3231
 2367TIP3   OH228515   6.008   5.808  11.840 -0.1362 -0.0416  0.9284
 2367TIP3    H128516   6.092   5.854  11.828  0.7623 -2.0285 -0.7746
 2367TIP3    H228517   5.958   5.829  11.762 -0.4158 -0.5177  0.9782
 2368TIP3   OH228518   3.251   2.565  11.020 -0.0033  0.2584  0.1940
 2368TIP3    H128519   3.321   2.531  10.965  2.7131 -0.4627  3.9095
 2368TIP3    H228520   3.276   2.656  11.037 -0.2485  0.1685  1.0544
 2369TIP3   OH228521   3.630   5.101  11.262  0.6245 -0.2793  0.0005
 2369TIP3    H128522   3.643   5.049  11.182 -0.8264 -0.4848 -0.1272
 2369TIP3    H228523   3.604   5.188  11.230  1.0785 -0.0601  0.2336
 2370TIP3   OH228524   2.855   5.640   3.457  0.4801  0.4742 -0.1381
 2370TIP3    H128525   2.806   5.614   3.536  1.2280 -0.1935  0.1096
 2370TIP3    H228526   2.805   5.603   3.385  1.0949 -0.9858  0.1642
 2371TIP3   OH228527   0.128   6.676   0.795  0.4685  0.6940  0.1779
 2371TIP3    H128528   0.054   6.620   0.817  0.2586  1.0672  0.4520
 2371TIP3    H228529   0.090   6.746   0.741  0.8972  0.0570 -0.9579
 2372TIP3   OH228530   4.029   3.187   2.701  0.4221 -0.2234 -0.2406
 2372TIP3    H128531   4.110   3.177   2.650  1.7896 -1.1415  2.0819
 2372TIP3    H228532   4.005   3.098   2.726  0.0703  0.2602  1.1675
 2373TIP3   OH228533   3.796   2.621  11.000  0.2729  0.6138  0.1507
 2373TIP3    H128534   3.785   2.543  10.946 -0.5878  0.8715 -0.0495
 2373TIP3    H228535   3.891   2.631  11.008  0.4038 -1.3341  1.4763
 2374TIP3   OH228536   5.147   1.440  12.965  0.1293  0.0471  0.1165
 2374TIP3    H128537   5.138   1.373  13.033  0.0600  0.9348  1.0010
 2374TIP3    H228538   5.073   1.499  12.981  0.5501  0.6764 -0.2544
 2375TIP3   OH228539   4.206   2.292  13.822 -0.0128 -0.0980 -0.3621
 2375TIP3    H128540   4.215   2.235  13.898 -0.5230 -0.1989 -0.3773
 2375TIP3    H228541   4.132   2.349  13.843  1.5967  1.7676  0.4285
 2376TIP3   OH228542   6.195   5.874   1.880 -0.3716  0.2634  0.0051
 2376TIP3    H128543   6.122   5.822   1.845 -0.1598  0.9641 -1.5120
 2376TIP3    H228544   6.253   5.887   1.805  0.1844  1.6761  0.6690
 2377TIP3   OH228545   4.945   1.293  10.500 -0.3607 -0.2559  0.1239
 2377TIP3    H128546   4.866   1.241  10.486 -0.6690 -0.0319  1.0242
 2377TIP3    H228547   4.921   1.355  10.568  1.0822 -1.2431  1.5649
 2378TIP3   OH228548   2.621   2.986   3.611 -0.6336 -0.7246  0.9299
 2378TIP3    H128549   2.545   2.936   3.639  1.1112 -3.4433  0.9669
 2378TIP3    H228550   2.636   2.957   3.521  0.4604 -0.3200  0.9820
 2379TIP3   OH228551   3.820   4.402  11.846 -0.3038  0.3187 -0.3811
 2379TIP3    H128552   3.860   4.463  11.908 -0.7574  0.6968 -0.4578
 2379TIP3    H228553   3.771   4.458  11.786 -0.7126 -0.1226 -0.4603
 2380TIP3   OH228554   2.081   2.235  12.833 -0.7945 -0.1986 -0.2908
 2380TIP3    H128555   2.006   2.192  12.874 -1.2510  0.4006 -0.4906
 2380TIP3    H228556   2.051   2.325  12.817  0.0809  0.1421 -0.0551
 2381TIP3   OH228557   4.388   1.303  15.421  0.9399  0.1341  0.1658
 2381TIP3    H128558   4.328   1.323  15.349  0.4363  1.0760  0.8455
 2381TIP3    H228559   4.407   1.387  15.461  1.1433 -0.3966  1.2033
 2382TIP3   OH228560   1.125   4.036   3.999  0.7407  0.1150 -0.4858
 2382TIP3    H128561   1.058   4.081   4.051  1.0966  0.8219 -0.6245
 2382TIP3    H228562   1.193   4.102   3.986  0.1380  0.3337 -2.8006
 2383TIP3   OH228563   5.763   0.121  15.511 -0.1824  0.1886  0.2634
 2383TIP3    H128564   5.802   0.201  15.545  1.2128  0.5737 -2.1434
 2383TIP3    H228565   5.715   0.148  15.433 -4.9583 -0.3852  2.8276
 2384TIP3   OH228566   5.019   1.760  12.091  0.4879  0.1177 -0.4423
 2384TIP3    H128567   5.071   1.834  12.123 -0.6293  0.5551  0.3935
 2384TIP3    H228568   4.953   1.800  12.035 -1.3969 -0.0024  1.6302
 2385TIP3   OH228569   1.728   4.478   3.032  0.0337  0.3686  0.4099
 2385TIP3    H128570   1.716   4.568   3.003  1.1218  0.3508 -0.1344
 2385TIP3    H228571   1.787   4.484   3.107  0.1776  0.1149  0.3211
 2386TIP3   OH228572   3.087   3.980   5.765  0.1948  0.0561 -0.7173
 2386TIP3    H128573   3.104   3.946   5.853  1.1013  0.1461 -0.8572
 2386TIP3    H228574   3.016   3.924   5.732 -1.9155  1.6346  1.0098
 2387TIP3   OH228575   2.466   1.715   6.103 -0.2622  0.5459 -0.3326
 2387TIP3    H128576   2.444   1.804   6.130 -0.9068  0.4326 -0.4809
 2387TIP3    H228577   2.412   1.658   6.158  0.5059  0.2251  0.1066
 2388TIP3   OH228578   0.482   2.220  11.862 -0.3303  0.1588 -0.3907
 2388TIP3    H128579   0.449   2.219  11.773  0.3764  0.7914 -0.6666
 2388TIP3    H228580   0.404   2.218  11.917 -0.8161  1.0806 -1.0270
 2389TIP3   OH228581   6.237   4.894  12.099 -0.0888 -0.1521 -0.3734
 2389TIP3    H128582   6.262   4.803  12.111 -1.4434 -0.3230  1.3738
 2389TIP3    H228583   6.169   4.909  12.164 -1.5775  1.4475 -2.2524
 2390TIP3   OH228584   1.152   1.550  16.240 -0.5200 -0.0684  0.2209
 2390TIP3    H128585   1.077   1.572  16.185  0.2714 -0.8304 -1.1862
 2390TIP3    H228586   1.141   1.605  16.318 -1.3579  1.4250 -0.9229
 2391TIP3   OH228587   3.869   0.083  11.976 -0.3339 -0.0128  0.3739
 2391TIP3    H128588   3.903   0.161  11.932 -0.6106 -0.3693 -0.4818
 2391TIP3    H228589   3.863   0.108  12.068  2.2836  0.0481  0.5602
 2392TIP3   OH228590   0.273   0.220  12.986  0.1085 -0.5548  0.2786
 2392TIP3    H128591   0.222   0.191  12.911  1.9189 -1.4021 -0.6579
 2392TIP3    H228592   0.230   0.301  13.014 -2.9453 -2.2694  0.8109
 2393TIP3   OH228593   2.463   2.214  12.534  0.0208 -0.1674 -0.0213
 2393TIP3    H128594   2.447   2.226  12.440  0.6685  0.3740 -0.0693
 2393TIP3    H228595   2.529   2.144  12.537 -0.3201 -0.4854  0.0479
 2394TIP3   OH228596   0.271   0.388  16.258  0.3415  0.5283 -0.3506
 2394TIP3    H128597   0.304   0.464  16.305 -0.8182  0.5851  0.4036
 2394TIP3    H228598   0.187   0.418  16.222 -1.4056 -1.1617  2.1649
 2395TIP3   OH228599   4.885   3.578   3.192  0.3439 -0.2821 -0.0048
 2395TIP3    H128600   4.828   3.516   3.146 -0.9351  0.1665  0.9666
 2395TIP3    H228601   4.912   3.532   3.271 -0.9271  0.5349  0.9165
 2396TIP3   OH228602   6.156   6.160  10.794 -0.3859 -0.1249 -0.0531
 2396TIP3    H128603   6.114   6.235  10.752 -0.8596 -0.6302 -0.4789
 2396TIP3    H228604   6.107   6.084  10.763 -0.2641 -0.5692  0.8147
 2397TIP3   OH228605   5.757   5.240   1.564 -0.1426 -0.6857  0.2077
 2397TIP3    H128606   5.821   5.207   1.627  0.2622 -0.5444 -0.1269
 2397TIP3    H228607   5.772   5.335   1.562 -0.5157 -0.6251  0.2967
 2398TIP3   OH228608   2.256   1.433  12.701  0.3349  0.2915 -0.0297
 2398TIP3    H128609   2.183   1.432  12.638  0.8046 -1.2079 -0.5840
 2398TIP3    H228610   2.309   1.507  12.674 -0.3091  0.6150 -0.4327
 2399TIP3   OH228611   5.840   0.183   0.465 -0.6581  0.0945 -0.0734
 2399TIP3    H128612   5.796   0.219   0.388 -0.8166 -0.9359 -0.4657
 2399TIP3    H228613   5.932   0.179   0.440 -0.7354 -0.4155 -0.2765
 2400TIP3   OH228614   1.701   3.381   6.562 -0.2610 -0.4480  0.1299
 2400TIP3    H128615   1.745   3.335   6.634 -3.3273 -0.1424  2.3061
 2400TIP3    H228616   1.752   3.461   6.550  0.9684 -1.0559  1.1975
 2401TIP3   OH228617   1.855   2.555   4.650  0.2459 -0.1224 -0.1267
 2401TIP3    H128618   1.860   2.492   4.579  0.1653 -0.7413  0.4123
 2401TIP3    H228619   1.834   2.638   4.607 -0.6161 -0.6482 -0.7419
 2402TIP3   OH228620   0.636   5.762  13.067 -0.2719  0.7234 -0.0150
 2402TIP3    H128621   0.610   5.673  13.091 -1.3595  1.6295  2.2567
 2402TIP3    H228622   0.721   5.774  13.110 -0.3179  0.9225  0.0212
 2403TIP3   OH228623   5.649   4.823   1.009 -0.6609  0.4417  0.1484
 2403TIP3    H128624   5.626   4.879   1.083 -1.3838 -0.4167  0.5889
 2403TIP3    H228625   5.588   4.849   0.940  0.8521  2.1288 -0.5914
 2404TIP3   OH228626   1.075   6.305  12.782  0.2481 -0.1906  0.7400
 2404TIP3    H128627   1.020   6.267  12.713 -1.8981  0.6820  1.9424
 2404TIP3    H228628   1.165   6.287  12.753 -0.6193 -0.2644 -2.0297
 2405TIP3   OH228629   2.707   1.968  12.832 -0.1185 -0.5085  0.3013
 2405TIP3    H128630   2.740   2.026  12.901  0.0520 -0.0854 -0.1380
 2405TIP3    H228631   2.620   1.944  12.862  0.7385 -1.9935  1.6926
 2406TIP3   OH228632   0.542   6.264  13.933 -0.1185 -0.2106 -0.0992
 2406TIP3    H128633   0.560   6.234  13.843 -0.1911 -0.8947  0.1149
 2406TIP3    H228634   0.547   6.185  13.986  2.8232  0.5815  0.9535
 2407TIP3   OH228635   2.304   4.314  15.551  0.3858 -0.1571 -1.0860
 2407TIP3    H128636   2.262   4.395  15.580 -0.8328 -1.8528  2.0709
 2407TIP3    H228637   2.249   4.284  15.479 -1.7947 -0.4697  0.6616
 2408TIP3   OH228638   6.462   0.680   5.006 -0.1247 -0.7816 -0.2598
 2408TIP3    H128639   6.477   0.688   4.912 -2.7918 -0.8302 -0.7447
 2408TIP3    H228640   6.508   0.755   5.044 -0.1228  0.0122 -1.7533
 2409TIP3   OH228641   2.600   4.673   4.384  0.1334  0.2035  0.6698
 2409TIP3    H128642   2.557   4.588   4.376  1.3503 -0.3376 -0.3496
 2409TIP3    H228643   2.543   4.723   4.441 -1.8831 -0.4665 -0.7021
 2410TIP3   OH228644   0.762   0.722  12.074  0.3490  0.2762 -0.0428
 2410TIP3    H128645   0.830   0.662  12.105  0.5807 -0.1196 -1.3167
 2410TIP3    H228646   0.802   0.768  12.000 -0.7525  0.0561 -0.7863
 2411TIP3   OH228647   0.819   3.659  14.901 -0.3793 -0.3222 -0.7925
 2411TIP3    H128648   0.736   3.612  14.910 -0.5741  0.0808 -0.4684
 2411TIP3    H228649   0.796   3.751  14.908 -0.1127 -0.1196 -2.3085
 2412TIP3   OH228650   0.997   3.544  17.082  0.7405  0.6124  0.2046
 2412TIP3    H128651   1.030   3.547  16.992 -1.6736 -1.3193 -0.7760
 2412TIP3    H228652   0.917   3.596  17.080  1.1129  1.2570  1.4630
 2413TIP3   OH228653   0.725   5.771   5.094  0.4004  0.4586  0.3912
 2413TIP3    H128654   0.809   5.806   5.123  0.5040  1.7079 -1.3320
 2413TIP3    H228655   0.739   5.749   5.002 -0.6982 -0.8890  0.5243
 2414TIP3   OH228656   1.282   2.179   2.643 -1.2313 -0.1402 -0.1836
 2414TIP3    H128657   1.353   2.115   2.654 -1.6609 -0.5175  0.3794
 2414TIP3    H228658   1.322   2.249   2.591 -0.1574  0.1093  0.9460
 2415TIP3   OH228659   5.982   2.872  12.847 -0.0820 -0.4008  0.0550
 2415TIP3    H128660   5.923   2.801  12.872  0.7683 -1.5338 -1.1321
 2415TIP3    H228661   5.930   2.927  12.788 -0.5138 -0.4164  0.4183
 2416TIP3   OH228662   3.581   2.522   4.540 -0.4208  0.0268 -0.8403
 2416TIP3    H128663   3.531   2.447   4.505 -1.6503  0.8615 -0.8825
 2416TIP3    H228664   3.580   2.509   4.635  1.9309 -1.6159 -0.9983
 2417TIP3   OH228665   4.572   2.352  15.510 -0.3859 -0.1051  0.3723
 2417TIP3    H128666   4.586   2.258  15.516 -0.1914 -0.1094 -0.1013
 2417TIP3    H228667   4.585   2.372  15.417 -0.4952  0.3752  0.4594
 2418TIP3   OH228668   0.920   1.593  10.852 -0.5952 -0.3132  0.0229
 2418TIP3    H128669   1.007   1.604  10.815 -0.8156 -2.0431 -1.0623
 2418TIP3    H228670   0.929   1.622  10.943  0.2946  2.6097 -0.9690
 2419TIP3   OH228671   6.295   3.325   3.934  0.1952 -0.2575  0.0259
 2419TIP3    H128672   6.265   3.244   3.975 -0.7063  0.2162  0.3116
 2419TIP3    H228673   6.389   3.311   3.919 -0.1698 -1.8170 -0.9990
 2420TIP3   OH228674   6.466   6.532   2.503 -0.2577 -0.0759  0.2350
 2420TIP3    H128675   6.436   6.609   2.551 -0.9476 -1.0535  1.4382
 2420TIP3    H228676   6.495   6.565   2.418 -1.1060  1.4125  0.5084
 2421TIP3   OH228677   6.167   2.742   1.162 -0.0110 -0.1212 -0.2880
 2421TIP3    H128678   6.156   2.694   1.080 -0.5745  0.3171 -0.4701
 2421TIP3    H228679   6.112   2.820   1.152  1.8853  1.2383 -0.5262
 2422TIP3   OH228680   5.370   1.955  13.180  0.3593  0.5770  0.2891
 2422TIP3    H128681   5.355   1.958  13.275  1.3144 -0.6114  0.5001
 2422TIP3    H228682   5.318   1.880  13.151 -1.1014  1.8279 -0.3713
 2423TIP3   OH228683   2.712   2.383  11.692 -0.5189  0.7309  0.1496
 2423TIP3    H128684   2.777   2.321  11.661 -0.4096  0.5259  0.7885
 2423TIP3    H228685   2.762   2.447  11.743 -0.6148  1.3997 -0.5782
 2424TIP3   OH228686   2.667   0.447  12.942  0.0552 -0.0534  0.4024
 2424TIP3    H128687   2.732   0.391  12.900  0.4593  0.8172 -0.1524
 2424TIP3    H228688   2.680   0.533  12.902  0.4322  0.8001  2.2890
 2425TIP3   OH228689   3.192   3.635   3.389  0.0384 -0.0197 -0.8757
 2425TIP3    H128690   3.280   3.647   3.425 -0.5269  1.4175  0.0888
 2425TIP3    H228691   3.149   3.577   3.451 -0.1035  0.3520 -0.6207
 2426TIP3   OH228692   5.700   2.649   3.204 -0.0959  0.2399  0.3139
 2426TIP3    H128693   5.768   2.620   3.143  1.7575  1.5477  1.7032
 2426TIP3    H228694   5.651   2.569   3.224 -0.0492 -0.4057 -2.0148
 2427TIP3   OH228695   5.200   2.265   4.367 -0.2077 -0.6451 -0.6230
 2427TIP3    H128696   5.193   2.188   4.423 -0.1908  0.1965  0.5487
 2427TIP3    H228697   5.247   2.329   4.420  1.1461 -0.3451 -2.1414
 2428TIP3   OH228698   4.055   2.410   0.473  0.4293 -0.8433 -0.1865
 2428TIP3    H128699   4.115   2.379   0.406 -0.4747 -2.1553 -0.3911
 2428TIP3    H228700   3.970   2.413   0.430  0.1185 -0.1989  0.4607
 2429TIP3   OH228701   2.011   3.928  13.839  0.4245 -0.1977  0.0037
 2429TIP3    H128702   1.990   4.020  13.827  1.2825 -0.0985 -0.7870
 2429TIP3    H228703   2.071   3.907  13.768  0.4295 -1.3063  0.3174
 2430TIP3   OH228704   0.057   4.623  14.335 -0.4813  0.2772  0.6939
 2430TIP3    H128705   0.017   4.705  14.306  0.6953  0.7764  0.4131
 2430TIP3    H228706   0.143   4.650  14.369 -0.4440 -0.7305  1.4231
 2431TIP3   OH228707   3.706   0.137  15.173  0.3422 -0.1111  0.5498
 2431TIP3    H128708   3.731   0.052  15.210 -0.9407  0.1536  2.0959
 2431TIP3    H228709   3.637   0.116  15.111 -0.0508 -0.1815  1.0116
 2432TIP3   OH228710   5.083   4.713   3.286  0.0099 -0.0597 -0.1783
 2432TIP3    H128711   5.068   4.683   3.196 -0.8950 -1.7792  0.5140
 2432TIP3    H228712   5.166   4.671   3.311 -0.6715 -1.0926  0.3991
 2433TIP3   OH228713   1.685   1.106   3.774 -0.7820  0.3056 -0.2584
 2433TIP3    H128714   1.759   1.093   3.833 -1.3136 -0.0504  0.3245
 2433TIP3    H228715   1.719   1.167   3.707 -0.3131  1.0446  0.6368
 2434TIP3   OH228716   1.476   5.256   2.299  0.1530 -0.0326 -1.4597
 2434TIP3    H128717   1.435   5.199   2.235 -0.7058  0.6241 -1.5174
 2434TIP3    H228718   1.427   5.339   2.292 -0.8605 -0.3688  0.9394
 2435TIP3   OH228719   4.582   0.624  15.397  0.2565  0.4339 -0.2305
 2435TIP3    H128720   4.587   0.661  15.308  0.9004  2.2095  0.5102
 2435TIP3    H228721   4.493   0.642  15.425 -0.3691 -1.3291 -0.9857
 2436TIP3   OH228722   5.736   5.342  10.573  0.4107 -0.5276 -0.0972
 2436TIP3    H128723   5.769   5.397  10.645  2.3550 -0.9476 -0.6331
 2436TIP3    H228724   5.733   5.401  10.498 -0.8752 -0.2818  0.1458
 2437TIP3   OH228725   0.210   5.609   1.155  0.0726  0.3920 -0.0832
 2437TIP3    H128726   0.305   5.609   1.142  0.3219  0.4258  1.6771
 2437TIP3    H228727   0.193   5.532   1.209 -1.0009 -0.0507 -1.0323
 2438TIP3   OH228728   1.833   3.277   3.385  0.1320 -0.3651 -0.3757
 2438TIP3    H128729   1.760   3.305   3.440  0.3274 -0.5603 -0.0183
 2438TIP3    H228730   1.911   3.299   3.435  0.2905 -1.7481  0.0236
 2439TIP3   OH228731   1.029   3.224   3.446  0.2281 -0.0947 -0.0013
 2439TIP3    H128732   0.993   3.213   3.358  1.4189 -2.1899 -0.2562
 2439TIP3    H228733   0.955   3.210   3.504 -0.1325 -0.8347 -0.6278
 2440TIP3   OH228734   3.141   6.063  15.761 -0.0004 -0.3929 -0.3312
 2440TIP3    H128735   3.179   5.976  15.771 -1.3824 -0.9096  0.4788
 2440TIP3    H228736   3.147   6.103  15.847  0.5797  0.3047 -0.6879
 2441TIP3   OH228737   3.086   1.624   2.113 -0.2694  0.3645 -0.2796
 2441TIP3    H128738   3.085   1.717   2.136 -0.2057  0.0616  1.0431
 2441TIP3    H228739   3.013   1.586   2.163 -0.0260 -0.3669 -0.4666
 2442TIP3   OH228740   2.177   4.714  16.887  0.0860 -0.2973  0.4597
 2442TIP3    H128741   2.196   4.667  16.806 -1.2841 -0.5083  0.2589
 2442TIP3    H228742   2.263   4.741  16.919  0.5648  1.3021 -1.9750
 2443TIP3   OH228743   4.539   5.489  15.344 -0.5319  0.5734  0.7856
 2443TIP3    H128744   4.482   5.476  15.269  0.3994  0.9144  0.0081
 2443TIP3    H228745   4.581   5.404  15.357  1.5776  1.2994 -0.9903
 2444TIP3   OH228746   4.154   0.332   1.127 -0.5948  0.1756 -0.0607
 2444TIP3    H128747   4.130   0.349   1.218 -0.6961 -1.0893  0.1472
 2444TIP3    H228748   4.086   0.274   1.094  0.6419 -1.1683 -0.2833
 2445TIP3   OH228749   4.245   4.461  15.413 -0.2876  0.4281 -0.1870
 2445TIP3    H128750   4.280   4.398  15.350 -1.1642  0.3740 -0.6374
 2445TIP3    H228751   4.153   4.471  15.387 -0.2416  1.6283  0.0855
 2446TIP3   OH228752   3.913   5.592  16.759 -0.1825 -0.2756 -0.0045
 2446TIP3    H128753   3.929   5.632  16.844  2.2937 -0.2946 -0.4202
 2446TIP3    H228754   3.877   5.506  16.779  0.5257 -0.3360  1.0402
 2447TIP3   OH228755   5.320   3.102  12.015  0.1745 -0.4776  0.1319
 2447TIP3    H128756   5.366   3.042  12.073 -0.2764 -1.9767 -1.0444
 2447TIP3    H228757   5.383   3.123  11.947  0.3656  0.4952  0.5866
 2448TIP3   OH228758   5.318   5.966  15.173  0.1531 -0.5096  0.3583
 2448TIP3    H128759   5.361   5.982  15.257 -0.2246 -0.5320  0.5610
 2448TIP3    H228760   5.386   5.980  15.108  0.6711 -1.3201  0.7163
 2449TIP3   OH228761   1.166   1.003  11.839  0.2468  0.3629 -0.1245
 2449TIP3    H128762   1.225   1.068  11.800  0.0953  0.6775  0.1713
 2449TIP3    H228763   1.224   0.941  11.882  0.4238 -0.0496 -0.9402
 2450TIP3   OH228764   3.516   1.706  16.678  1.0241 -0.3164  0.1637
 2450TIP3    H128765   3.495   1.653  16.754  1.7290  1.2020  1.4341
 2450TIP3    H228766   3.561   1.645  16.618 -0.7107 -1.8270  0.3689
 2451TIP3   OH228767   2.216   1.671   4.080 -0.2751 -0.0833 -0.4681
 2451TIP3    H128768   2.261   1.683   4.163 -0.1591  1.6854 -0.7638
 2451TIP3    H228769   2.192   1.578   4.079  0.1111 -0.2263  1.3293
 2452TIP3   OH228770   4.940   1.129   0.342 -0.0447 -0.1207 -0.0834
 2452TIP3    H128771   4.950   1.223   0.334 -0.4200 -0.1284 -0.6367
 2452TIP3    H228772   4.937   1.113   0.437 -2.2165  0.6653  0.0056
 2453TIP3   OH228773   0.139   1.871  15.096 -0.1722  0.4058 -0.2355
 2453TIP3    H128774   0.077   1.914  15.156  0.9144 -0.9129  1.9005
 2453TIP3    H228775   0.221   1.918  15.109  0.1359 -0.0565 -0.5119
 2454TIP3   OH228776   2.490   0.473  15.598  0.0207 -0.5371 -0.1655
 2454TIP3    H128777   2.551   0.458  15.525 -1.2726 -0.0800 -1.3738
 2454TIP3    H228778   2.540   0.523  15.662  0.7113  0.4313 -1.4476
 2455TIP3   OH228779   6.304   5.848   1.628  0.5357 -0.0188  0.2537
 2455TIP3    H128780   6.241   5.842   1.556  0.5083 -0.5311  0.3176
 2455TIP3    H228781   6.374   5.787   1.604  1.3530  1.0745 -0.1563
 2456TIP3   OH228782   2.197   0.030   1.253 -0.2909 -0.0921 -0.3331
 2456TIP3    H128783   2.186  -0.047   1.308 -0.6633  0.0173 -0.2564
 2456TIP3    H228784   2.266   0.005   1.191  0.3118 -0.1276  0.3386
 2457TIP3   OH228785   6.097   4.312  15.679 -0.3460  0.0485 -0.1981
 2457TIP3    H128786   6.164   4.276  15.620  0.2376  0.6513  0.0939
 2457TIP3    H228787   6.075   4.239  15.737 -0.7163 -0.4646 -0.9751
 2458TIP3   OH228788   4.946   1.227  11.998  0.1529  0.1053 -0.0405
 2458TIP3    H128789   4.932   1.211  12.091  0.8579  2.2541  0.4652
 2458TIP3    H228790   4.858   1.236  11.961 -0.1211 -0.6326  0.4346
 2459TIP3   OH228791   2.661   0.924  17.022  0.0063 -0.5276  0.5098
 2459TIP3    H128792   2.640   0.894  16.934 -1.4502 -0.6354  0.8777
 2459TIP3    H228793   2.620   0.859  17.080 -1.7813  1.2392  1.3066
 2460TIP3   OH228794   5.054   0.449   1.213  0.1257  0.5551  0.2973
 2460TIP3    H128795   5.115   0.379   1.187 -1.3804  0.2823 -2.6632
 2460TIP3    H228796   5.111   0.521   1.240  1.7309 -0.4384 -0.3525
 2461TIP3   OH228797   0.468   3.426   5.343  0.2990 -0.4116  0.1816
 2461TIP3    H128798   0.478   3.483   5.267 -1.7008  1.9600  1.6263
 2461TIP3    H228799   0.508   3.474   5.416 -1.9384 -0.5136  1.5385
 2462TIP3   OH228800   3.149   3.715  12.490  0.0009  0.3280  0.3666
 2462TIP3    H128801   3.153   3.645  12.556  0.3308  0.4451  0.4737
 2462TIP3    H228802   3.062   3.705  12.450 -0.3109  0.4315  1.0105
 2463TIP3   OH228803   2.110   5.136   6.246 -0.0363  0.5831  0.0550
 2463TIP3    H128804   2.034   5.116   6.191  0.1173  0.0445  0.0279
 2463TIP3    H228805   2.074   5.181   6.322 -0.3437  0.6384 -0.1231
 2464TIP3   OH228806   0.913   5.161   0.659  0.3299  0.3719  0.2898
 2464TIP3    H128807   0.966   5.093   0.701  1.3715  1.1017  0.1683
 2464TIP3    H228808   0.879   5.119   0.579 -1.7807 -1.0681  1.8697
 2465TIP3   OH228809   2.450   5.560   1.226 -0.0934 -0.4705  0.4450
 2465TIP3    H128810   2.398   5.506   1.286 -2.0061  1.9804  1.0733
 2465TIP3    H228811   2.508   5.498   1.182 -1.7309 -2.9199  1.6375
 2466TIP3   OH228812   2.311   5.441   2.109 -0.5391  0.2455  0.3916
 2466TIP3    H128813   2.390   5.466   2.158 -0.3994  0.0077  0.2863
 2466TIP3    H228814   2.239   5.460   2.168 -0.2955 -1.3081  1.2068
 2467TIP3   OH228815   1.482   0.597  13.256  0.5724 -0.0677  0.0193
 2467TIP3    H128816   1.570   0.623  13.282  0.3493  1.0347 -0.3137
 2467TIP3    H228817   1.488   0.583  13.162  0.3274  0.2602 -0.0446
 2468TIP3   OH228818   4.920   5.798  15.449 -0.1383  0.5986  0.0805
 2468TIP3    H128819   4.937   5.878  15.399 -0.7771  0.9508  0.4236
 2468TIP3    H228820   4.851   5.823  15.511 -0.4074 -0.2382  0.1184
 2469TIP3   OH228821   0.512   0.520  16.505  0.1051 -0.3002  0.5023
 2469TIP3    H128822   0.543   0.604  16.539  1.2999 -1.3187  1.9743
 2469TIP3    H228823   0.421   0.514  16.536 -0.6915  1.3756 -1.3809
 2470TIP3   OH228824   0.587   2.619   2.889  0.6498  0.5141  0.4484
 2470TIP3    H128825   0.607   2.684   2.956 -0.5547  0.5710  0.7498
 2470TIP3    H228826   0.589   2.535   2.935  2.2505  0.3169  0.0511
 2471TIP3   OH228827   1.389   5.082  16.117  0.4771 -0.1083  0.4942
 2471TIP3    H128828   1.311   5.036  16.086  0.1743 -0.3366  1.5837
 2471TIP3    H228829   1.363   5.174  16.122  0.5626 -0.0539 -0.0366
 2472TIP3   OH228830   5.547   5.260   0.577 -0.1687 -0.4895 -0.2551
 2472TIP3    H128831   5.618   5.314   0.612 -0.2846 -0.0396 -0.7068
 2472TIP3    H228832   5.527   5.299   0.492 -0.5974 -0.9387 -0.3623
 2473TIP3   OH228833   5.165   3.534   0.455  0.1557 -0.6328  0.6589
 2473TIP3    H128834   5.123   3.621   0.456  1.6385  0.0991  0.3164
 2473TIP3    H228835   5.094   3.474   0.478 -1.0900  0.5840  0.1323
 2474TIP3   OH228836   1.505   1.092  13.973  0.3485 -0.1379  0.4410
 2474TIP3    H128837   1.550   1.015  13.938 -0.5799 -0.4624 -0.0571
 2474TIP3    H228838   1.481   1.143  13.895 -0.5871 -0.2237  0.6651
 2475TIP3   OH228839   6.474   0.933   1.697  0.8408 -0.4012 -0.2287
 2475TIP3    H128840   6.519   1.014   1.720 -1.2393  1.0607 -1.1774
 2475TIP3    H228841   6.447   0.895   1.780  1.7220 -0.0901  0.2056
 2476TIP3   OH228842   2.475   4.603   1.190 -0.0586  0.1210  0.0066
 2476TIP3    H128843   2.415   4.534   1.218 -0.7495 -0.7559 -3.4480
 2476TIP3    H228844   2.546   4.600   1.255 -1.5061 -1.8665  1.5773
 2477TIP3   OH228845   4.681   4.065  11.330 -0.0622 -0.9142 -0.1749
 2477TIP3    H128846   4.595   4.084  11.292  1.2556  0.0693 -2.7846
 2477TIP3    H228847   4.672   4.086  11.423 -1.9377  1.5595 -0.8820
 2478TIP3   OH228848   2.982   4.398   3.511  0.7168  0.0902 -0.0709
 2478TIP3    H128849   2.978   4.440   3.597  0.0770  0.1370 -0.1213
 2478TIP3    H228850   2.892   4.398   3.481  0.7465 -1.1397 -0.1603
 2479TIP3   OH228851   2.422   6.130  15.688 -0.6755 -0.0338 -0.5085
 2479TIP3    H128852   2.439   6.224  15.676 -0.8309  0.2104  1.0966
 2479TIP3    H228853   2.364   6.107  15.615 -1.3061  1.3179 -0.4591
 2480TIP3   OH228854   5.056   2.924  12.711  0.1795 -0.2493  0.0453
 2480TIP3    H128855   5.066   2.845  12.658  0.4167  0.3737 -0.8526
 2480TIP3    H228856   5.126   2.919  12.776  1.8035  0.4568 -1.5988
 2481TIP3   OH228857   2.576   1.981  14.822 -0.1688 -0.2702 -0.2923
 2481TIP3    H128858   2.518   1.958  14.895  0.5667 -2.1138 -0.2665
 2481TIP3    H228859   2.652   1.924  14.832  0.5212  0.3520 -1.7743
 2482TIP3   OH228860   1.594   0.732  15.559 -0.1647 -0.0204  0.5142
 2482TIP3    H128861   1.653   0.754  15.631  0.0105 -1.5155  0.8488
 2482TIP3    H228862   1.547   0.813  15.541  1.9322  1.1810  0.2894
 2483TIP3   OH228863   3.713   5.883  16.082 -0.0868 -0.1592 -0.3100
 2483TIP3    H128864   3.625   5.845  16.089 -0.0527 -0.1323  0.3140
 2483TIP3    H228865   3.741   5.895  16.173  0.7889 -0.6845 -0.5047
 2484TIP3   OH228866   4.231   6.558   0.214  0.1592  0.1829  0.2751
 2484TIP3    H128867   4.208   6.616   0.286 -1.6695  0.4120 -0.4508
 2484TIP3    H228868   4.270   6.481   0.257 -2.0243 -0.2206  1.6197
 2485TIP3   OH228869   4.537   1.714  17.228  0.2158  0.0532 -0.5410
 2485TIP3    H128870   4.563   1.693  17.318 -2.9540  1.6007  0.8136
 2485TIP3    H228871   4.561   1.807  17.217 -2.7222  0.9273  0.0389
 2486TIP3   OH228872   2.420   4.573   4.828 -0.6639  1.0117 -0.1380
 2486TIP3    H128873   2.423   4.599   4.920 -0.9381 -0.7713  0.3913
 2486TIP3    H228874   2.494   4.513   4.818  0.4999  2.6157 -1.5551
 2487TIP3   OH228875   5.462   1.849   0.950  0.3594 -0.1013 -0.6028
 2487TIP3    H128876   5.487   1.784   1.015  3.0611  0.5399 -0.9409
 2487TIP3    H228877   5.452   1.799   0.869 -2.7888 -0.8641  0.2079
 2488TIP3   OH228878   4.057   1.500   4.113 -0.2208  0.0549  0.3282
 2488TIP3    H128879   4.072   1.412   4.078  0.6214 -0.8525  2.8553
 2488TIP3    H228880   4.058   1.489   4.208  0.5357  2.9076  0.7184
 2489TIP3   OH228881   6.266   1.566  13.938  0.7382  0.0454  0.2070
 2489TIP3    H128882   6.251   1.480  13.899 -1.5550 -0.1615  1.4743
 2489TIP3    H228883   6.266   1.626  13.863  0.9854 -0.8657 -0.5427
 2490TIP3   OH228884   0.653   1.144  14.803 -0.2568  0.1775 -0.0371
 2490TIP3    H128885   0.591   1.217  14.801 -1.2697 -0.6399  0.8818
 2490TIP3    H228886   0.689   1.145  14.891 -0.7546 -0.8092  0.1867
 2491TIP3   OH228887   6.460   6.240  15.080  0.1801  0.1930 -0.3609
 2491TIP3    H128888   6.501   6.229  14.994  1.4583 -0.7297  0.3459
 2491TIP3    H228889   6.517   6.303  15.125  1.6428 -2.1291  1.1254
 2492TIP3   OH228890   5.073   3.758   6.049  1.2322  0.0221  0.4835
 2492TIP3    H128891   5.061   3.755   6.143  2.8650 -0.3199  0.6895
 2492TIP3    H228892   5.101   3.848   6.031  0.3625  0.2485  0.2536
 2493TIP3   OH228893   1.016   4.384   5.734  0.1733  0.6602 -0.0031
 2493TIP3    H128894   1.092   4.344   5.777 -1.3365 -0.9788  1.2483
 2493TIP3    H228895   1.021   4.353   5.644  0.8968  0.4383  0.1059
 2494TIP3   OH228896   4.054   4.553  13.429 -0.0297 -0.0319 -0.2646
 2494TIP3    H128897   4.018   4.465  13.443 -0.3959  0.1542 -0.0652
 2494TIP3    H228898   4.149   4.541  13.438 -0.1239 -0.2795  0.4138
 2495TIP3   OH228899   3.858   2.950  12.847 -0.1378  0.0684 -0.1549
 2495TIP3    H128900   3.918   2.939  12.920  0.7721  0.5168 -0.8163
 2495TIP3    H228901   3.901   2.907  12.773 -0.2417  1.1112 -0.8392
 2496TIP3   OH228902   6.460   0.983  14.558 -0.1704  0.1075  0.0280
 2496TIP3    H128903   6.474   1.009  14.467  0.2610 -0.3504 -0.0352
 2496TIP3    H228904   6.365   0.989  14.569 -0.5972 -3.1648 -1.4745
 2497TIP3   OH228905   4.273   6.376   5.197 -0.2457 -0.4497  0.0638
 2497TIP3    H128906   4.302   6.422   5.119 -2.0604 -0.3002 -0.5402
 2497TIP3    H228907   4.224   6.441   5.247 -3.1794 -1.7561 -0.9953
 2498TIP3   OH228908   1.226   2.717   6.728 -0.3402 -0.2263  0.1998
 2498TIP3    H128909   1.322   2.717   6.725 -0.2932 -0.6204  1.3697
 2498TIP3    H228910   1.204   2.781   6.796 -0.9056 -0.2820  0.0719
 2499TIP3   OH228911   2.026   1.564  12.508  0.0596  0.0183  0.8514
 2499TIP3    H128912   1.973   1.514  12.446  1.3202 -1.0309  0.6135
 2499TIP3    H228913   2.108   1.580  12.462  0.1015  1.3217  1.3580
 2500TIP3   OH228914   6.619   4.136  13.668 -0.0765 -0.1694 -0.0719
 2500TIP3    H128915   6.604   4.218  13.622 -0.7912 -0.3537 -0.1764
 2500TIP3    H228916   6.546   4.129  13.730  1.3990  0.5472  1.7707
 2501TIP3   OH228917   0.873   5.807  14.468  0.2000  0.1674 -0.3751
 2501TIP3    H128918   0.915   5.854  14.540 -0.7850  0.7456 -0.1885
 2501TIP3    H228919   0.947   5.774  14.416  0.9596 -1.2050  1.4860
 2502TIP3   OH228920   0.261   3.405   2.275  0.3491  0.7918  0.2034
 2502TIP3    H128921   0.186   3.355   2.309 -2.4665  4.0754 -0.9013
 2502TIP3    H228922   0.253   3.490   2.317  2.4497  1.7791 -1.3648
 2503TIP3   OH228923   6.120   3.011   3.745  0.5300 -0.3088 -0.6698
 2503TIP3    H128924   6.114   2.962   3.663 -0.0342 -1.7976  0.2565
 2503TIP3    H228925   6.214   3.025   3.758  0.6154  0.0978 -1.6464
 2504TIP3   OH228926   6.229   0.733   5.196  0.0725 -0.3629 -0.3261
 2504TIP3    H128927   6.267   0.814   5.231  0.8184 -0.6673 -0.4317
 2504TIP3    H228928   6.190   0.759   5.113 -1.3198  0.2737  0.5199
 2505TIP3   OH228929   1.287   6.506  15.372 -0.2607  0.1451 -0.1443
 2505TIP3    H128930   1.241   6.565  15.432 -1.6802 -1.8719  0.8257
 2505TIP3    H228931   1.271   6.542  15.285 -1.4041  1.0058  0.4102
 2506TIP3   OH228932   2.387   2.997  15.362 -0.5732 -0.3427  0.1978
 2506TIP3    H128933   2.336   2.999  15.281 -2.2239 -0.3950  1.1986
 2506TIP3    H228934   2.460   2.938  15.344 -1.3541 -0.9540 -1.0013
 2507TIP3   OH228935   4.582   5.691  10.939  0.1345 -0.2895  0.0963
 2507TIP3    H128936   4.528   5.715  10.864 -0.1997  0.7073  0.6291
 2507TIP3    H228937   4.523   5.697  11.014  0.6953 -0.3304  0.5513
 2508TIP3   OH228938   1.753   5.090  13.903  0.0528  0.0134 -0.0498
 2508TIP3    H128939   1.710   5.069  13.985  0.9604 -3.0788 -0.2861
 2508TIP3    H228940   1.682   5.110  13.842 -0.7533  0.0633  0.9043
 2509TIP3   OH228941   3.770   3.282   2.163 -0.1490  0.2787 -0.4489
 2509TIP3    H128942   3.795   3.193   2.140 -0.8761  0.3866 -1.7075
 2509TIP3    H228943   3.713   3.272   2.239  0.7347 -0.2412  0.1425
 2510TIP3   OH228944   1.458   3.862  15.372 -0.5157  0.2515 -0.1869
 2510TIP3    H128945   1.502   3.808  15.438 -0.9722  1.0600  0.7934
 2510TIP3    H228946   1.377   3.815  15.352 -1.0217  0.6764  0.8333
 2511TIP3   OH228947   1.641   1.205   1.208 -0.2564 -0.9635 -0.0541
 2511TIP3    H128948   1.712   1.252   1.165 -0.9740  0.1403 -0.0526
 2511TIP3    H228949   1.561   1.246   1.176 -0.7894  0.6753  3.1504
 2512TIP3   OH228950   2.539   2.798  11.252 -0.0762 -0.1507  0.3580
 2512TIP3    H128951   2.604   2.738  11.289  0.4995  0.2273 -0.0149
 2512TIP3    H228952   2.574   2.885  11.271  0.1505  0.0523 -0.9075
 2513TIP3   OH228953   6.321   4.976  12.643  0.3328 -0.2353 -0.2969
 2513TIP3    H128954   6.391   5.024  12.688 -0.0192  0.0973 -0.1016
 2513TIP3    H228955   6.275   5.043  12.593 -0.2684 -0.3375  0.1094
 2514TIP3   OH228956   1.381   6.155  11.394 -0.1265 -0.3923  0.3004
 2514TIP3    H128957   1.310   6.111  11.442 -0.9807 -0.2701 -0.8355
 2514TIP3    H228958   1.425   6.085  11.346  0.6692 -0.4988  1.1567
 2515TIP3   OH228959   1.489   6.639  13.984 -0.2795  0.1216 -0.0201
 2515TIP3    H128960   1.537   6.719  13.962 -0.6119  0.8075  1.6659
 2515TIP3    H228961   1.554   6.569  13.976 -0.1096  0.4594 -2.0011
 2516TIP3   OH228962   4.036   6.061  13.604 -0.2342 -0.2850  0.6023
 2516TIP3    H128963   3.998   6.136  13.650 -3.4262 -0.8489 -0.9622
 2516TIP3    H228964   4.035   6.087  13.512 -1.4969 -2.2423  0.0256
 2517TIP3   OH228965   2.554   6.423   5.034 -0.7741  0.1337 -0.0068
 2517TIP3    H128966   2.520   6.512   5.028 -0.8420  0.1265  0.2932
 2517TIP3    H228967   2.645   6.433   5.062 -1.1628  0.0446  1.3075
 2518TIP3   OH228968   2.198   6.323  15.107 -0.3853 -0.2260 -0.3512
 2518TIP3    H128969   2.205   6.244  15.054 -0.8151  0.1762 -1.0195
 2518TIP3    H228970   2.105   6.329  15.130 -0.3808  0.1479 -0.4188
 2519TIP3   OH228971   1.359   6.721   3.809  0.2551  0.3601  0.3174
 2519TIP3    H128972   1.386   6.812   3.822  0.2073  0.2143  1.4905
 2519TIP3    H228973   1.266   6.720   3.833  0.3458 -0.0719  0.6650
 2520TIP3   OH228974   3.878   4.686  15.823  0.5589  0.1086  0.7512
 2520TIP3    H128975   3.972   4.665  15.821  0.3462 -0.9300  1.4512
 2520TIP3    H228976   3.840   4.627  15.758  0.0587 -1.1883  2.2051
 2521TIP3   OH228977   6.516   3.824  13.905 -0.0152  0.4192  0.5110
 2521TIP3    H128978   6.592   3.867  13.866  0.7804  0.4594  2.0991
 2521TIP3    H228979   6.533   3.730  13.896  0.7282  0.4184  1.8056
 2522TIP3   OH228980   4.366   3.809   2.935  0.3441  0.2024 -0.6961
 2522TIP3    H128981   4.451   3.820   2.977 -0.7218  3.9275  0.6789
 2522TIP3    H228982   4.364   3.875   2.866 -2.4553  2.0597  1.0558
 2523TIP3   OH228983   6.294   2.416   0.018 -0.0048  0.3106  0.1957
 2523TIP3    H128984   6.386   2.388   0.024 -0.5298 -1.1928  1.5710
 2523TIP3    H228985   6.267   2.388  -0.069  0.3200 -0.9475  0.4773
 2524TIP3   OH228986   1.898   3.713   0.040 -0.7669  0.0142  0.1709
 2524TIP3    H128987   1.900   3.791  -0.014 -0.5613  1.0322  1.6043
 2524TIP3    H228988   1.815   3.718   0.087 -1.4678 -1.4461 -0.8928
 2525TIP3   OH228989   0.043   1.462   0.526  0.3814  0.0993  0.2635
 2525TIP3    H128990   0.130   1.447   0.490  0.8693  0.3882  1.3041
 2525TIP3    H228991   0.029   1.556   0.518  0.1311  0.0467  0.0434
 2526TIP3   OH228992   5.737   3.060  11.836  0.4730 -0.0491 -0.0871
 2526TIP3    H128993   5.678   2.985  11.826 -0.8419  0.9616 -0.1887
 2526TIP3    H228994   5.723   3.088  11.927  1.1851 -0.1141  0.0416
 2527TIP3   OH228995   5.603   1.675  14.876  0.3255 -0.0038  1.0021
 2527TIP3    H128996   5.645   1.625  14.945 -0.4597 -1.1196  0.6889
 2527TIP3    H228997   5.580   1.609  14.810  1.0310  1.0318 -0.2989
 2528TIP3   OH228998   0.925   2.218   3.979  0.2212  0.0934  0.6477
 2528TIP3    H128999   0.893   2.142   4.028  0.3807 -1.1440 -1.1511
 2528TIP3    H229000   0.846   2.255   3.939  0.1174  1.0094  1.6595
 2529TIP3   OH229001   4.370   4.797  13.328  0.3447 -0.0434 -0.3055
 2529TIP3    H129002   4.449   4.847  13.307  0.6117 -1.3261 -2.5346
 2529TIP3    H229003   4.363   4.733  13.257 -1.4716 -1.4033  1.0584
 2530TIP3   OH229004   1.069   4.312   3.664  0.2803 -0.4608 -1.0704
 2530TIP3    H129005   1.049   4.401   3.636 -1.7457 -0.9093 -1.1191
 2530TIP3    H229006   1.001   4.291   3.729  1.6491 -1.4200  0.0769
 2531TIP3   OH229007   2.005   4.664   2.520 -0.0908 -0.1993  0.7000
 2531TIP3    H129008   2.037   4.609   2.592  1.5576 -0.8856 -0.5244
 2531TIP3    H229009   1.930   4.709   2.557  0.7557 -0.4857  2.8891
 2532TIP3   OH229010   2.114   6.109   5.291  0.2774 -0.3223  0.1764
 2532TIP3    H129011   2.189   6.110   5.350 -0.7592 -2.4335  1.5835
 2532TIP3    H229012   2.038   6.122   5.349 -0.6141 -0.5810 -0.9160
 2533TIP3   OH229013   6.392   3.806   2.945  0.1320  0.0341 -0.2962
 2533TIP3    H129014   6.436   3.792   2.860  0.3299 -1.7490  0.0702
 2533TIP3    H229015   6.462   3.832   3.004  0.2955 -0.4401 -0.2781
 2534TIP3   OH229016   5.130   0.650   5.636  0.2127 -0.1944  0.4689
 2534TIP3    H129017   5.115   0.566   5.678 -0.3605 -0.5973 -0.5121
 2534TIP3    H229018   5.136   0.629   5.543  1.4425  0.6779  0.3411
 2535TIP3   OH229019   2.540   4.212  13.261  0.0136 -0.1302  0.0854
 2535TIP3    H129020   2.553   4.275  13.331  1.3656  0.0750 -0.3298
 2535TIP3    H229021   2.564   4.127  13.299  3.4104  0.3325 -0.8651
 2536TIP3   OH229022   5.806   5.312  12.695 -1.0135 -0.3285 -0.1772
 2536TIP3    H129023   5.721   5.307  12.738 -0.0348 -0.7385  1.7686
 2536TIP3    H229024   5.793   5.269  12.610 -2.3904 -1.6267  0.6813
 2537TIP3   OH229025   5.294   2.718  15.983  0.5828  0.0648 -0.0932
 2537TIP3    H129026   5.341   2.691  15.903  0.1646  0.3405 -0.4360
 2537TIP3    H229027   5.224   2.775  15.951  0.2301 -0.0644  0.4516
 2538TIP3   OH229028   3.891   1.170   6.368 -0.0674  0.6512 -0.5657
 2538TIP3    H129029   3.913   1.093   6.420 -1.8206  1.8875  2.1261
 2538TIP3    H229030   3.972   1.221   6.365  0.3454  0.0368  0.0454
 2539TIP3   OH229031   0.330   2.927   3.465  0.2686 -0.0803 -0.1454
 2539TIP3    H129032   0.411   2.883   3.492  0.2094 -0.5432 -0.7012
 2539TIP3    H229033   0.270   2.915   3.538  1.0049  1.0692  0.6586
 2540TIP3   OH229034   4.061   3.373   4.903  0.2282 -0.0424  0.4212
 2540TIP3    H129035   4.012   3.348   4.981 -0.7333  0.4823 -0.0183
 2540TIP3    H229036   4.110   3.451   4.929  1.6193 -1.1294  1.1587
 2541TIP3   OH229037   6.163   6.375   0.876  0.0866  0.1663  0.1368
 2541TIP3    H129038   6.111   6.455   0.880  0.6115  0.4846  0.6880
 2541TIP3    H229039   6.253   6.405   0.882  0.4273 -0.2577 -2.3042
 2542TIP3   OH229040   1.561   6.023  11.638  0.3065  0.2246  0.3406
 2542TIP3    H129041   1.650   6.056  11.651 -0.2130  1.4807  0.7416
 2542TIP3    H229042   1.505   6.099  11.651 -0.8313 -0.5542  0.0449
 2543TIP3   OH229043   4.094   5.442  15.007  0.5260 -0.4010 -0.5482
 2543TIP3    H129044   4.021   5.480  15.056  0.1886 -1.3280 -0.3204
 2543TIP3    H229045   4.095   5.491  14.924 -0.1112 -0.1152 -0.3913
 2544TIP3   OH229046   5.331   6.614  12.377 -0.4592  0.3657  0.5928
 2544TIP3    H129047   5.336   6.578  12.465  0.3532  0.1056  0.4485
 2544TIP3    H229048   5.380   6.552  12.323  2.6372  2.6200  0.6470
 2545TIP3   OH229049   3.243   4.789  14.966 -0.0024 -0.3632  0.2809
 2545TIP3    H129050   3.254   4.884  14.956 -0.3558 -0.2536  0.9237
 2545TIP3    H229051   3.177   4.766  14.900  2.0756 -0.6061 -1.7697
 2546TIP3   OH229052   3.850   3.160   1.281  0.2976 -0.5454 -0.3664
 2546TIP3    H129053   3.764   3.192   1.253  0.9752  1.6498 -0.0267
 2546TIP3    H229054   3.859   3.075   1.237 -0.6546  0.6688 -3.0487
 2547TIP3   OH229055   4.982   6.357  16.308 -0.2122 -0.5580  0.2603
 2547TIP3    H129056   4.912   6.347  16.373 -1.3024  1.3724 -0.5550
 2547TIP3    H229057   4.995   6.452  16.302  2.2611 -0.8650  0.1355
 2548TIP3   OH229058   2.429   4.428  16.568 -0.3310  0.3949  0.5340
 2548TIP3    H129059   2.475   4.345  16.569  0.8379  1.0105  3.7745
 2548TIP3    H229060   2.472   4.479  16.499  0.9024 -0.6346  0.5316
 2549TIP3   OH229061   5.010   6.126  12.241  0.6803  0.5827 -0.1320
 2549TIP3    H129062   4.946   6.058  12.218 -0.8432  2.4237 -1.4195
 2549TIP3    H229063   5.046   6.097  12.325  0.0163 -1.7778 -0.6098
 2550TIP3   OH229064   0.276   2.722   3.112  0.0261  0.0646 -0.3992
 2550TIP3    H129065   0.325   2.655   3.159  0.8206  0.8259 -0.1430
 2550TIP3    H229066   0.204   2.673   3.070  0.7244 -0.9817 -0.4072
 2551TIP3   OH229067   4.050   4.897   5.455  0.4589  0.0230  0.7244
 2551TIP3    H129068   3.965   4.927   5.421 -0.4693  0.3296  3.2274
 2551TIP3    H229069   4.066   4.952   5.531  1.6270 -1.8485  1.8598
 2552TIP3   OH229070   4.698   4.195   3.658 -0.4308  0.3545 -0.3429
 2552TIP3    H129071   4.739   4.277   3.686  1.4759 -0.6926 -0.0166
 2552TIP3    H229072   4.615   4.192   3.706 -0.2329  1.7647  0.1155
 2553TIP3   OH229073   3.958   5.317  17.035  0.8928 -0.0954 -0.2356
 2553TIP3    H129074   3.936   5.372  17.110 -0.4750 -0.2817 -0.4830
 2553TIP3    H229075   4.053   5.303  17.042  0.7541 -0.2513  1.5267
 2554TIP3   OH229076   3.524   2.209  13.792  0.3131  0.0821 -0.3272
 2554TIP3    H129077   3.472   2.129  13.794 -2.9489  2.1126  0.3557
 2554TIP3    H229078   3.543   2.228  13.884  0.5320  0.4212 -0.4398
 2555TIP3   OH229079   3.920   3.755   6.230 -0.3055  0.3849 -0.1155
 2555TIP3    H129080   4.003   3.739   6.185 -0.4170  2.0127 -0.9385
 2555TIP3    H229081   3.945   3.772   6.321  0.4069  2.3319 -0.6650
 2556TIP3   OH229082   5.189   1.175   5.906  0.0869  0.2173 -0.3712
 2556TIP3    H129083   5.107   1.226   5.912  0.0924 -0.1199  4.7177
 2556TIP3    H229084   5.252   1.237   5.870 -1.2636  2.0476  0.2915
 2557TIP3   OH229085   0.557   6.512  14.047  0.9005  0.4506  0.5951
 2557TIP3    H129086   0.533   6.426  14.013  1.4343  0.3286  0.5257
 2557TIP3    H229087   0.615   6.494  14.121 -0.6360  0.6932  1.8975
 2558TIP3   OH229088   5.565   2.322   2.469  0.3080 -0.2222  0.3298
 2558TIP3    H129089   5.573   2.416   2.452 -0.0385 -0.6257 -2.2965
 2558TIP3    H229090   5.526   2.287   2.389 -0.7532 -2.4251  1.7868
 2559TIP3   OH229091   2.868   3.466   0.779 -0.3172  0.3933 -0.2468
 2559TIP3    H129092   2.833   3.431   0.697  1.8875  1.5714 -1.7410
 2559TIP3    H229093   2.916   3.545   0.753  2.9207 -0.8155  1.7615
 2560TIP3   OH229094   6.787   2.454   5.480  0.1421  0.2133 -0.3403
 2560TIP3    H129095   6.835   2.387   5.433  0.8695  0.6590 -0.2371
 2560TIP3    H229096   6.796   2.431   5.573 -1.6148 -0.8849 -0.4078
 2561TIP3   OH229097   1.729   2.220   3.508  0.1447  0.2985 -0.1110
 2561TIP3    H129098   1.820   2.225   3.540 -0.3306 -0.2718  1.3599
 2561TIP3    H229099   1.689   2.301   3.540  0.5540  1.3516 -2.1724
 2562TIP3   OH229100   0.990   0.585   5.142  0.0463 -0.0070 -0.0893
 2562TIP3    H129101   0.949   0.511   5.187  1.4806  0.3910  1.9208
 2562TIP3    H229102   0.959   0.662   5.191  0.7079  0.5110 -0.4874
 2563TIP3   OH229103   4.087   1.000  14.532  0.6100  0.3868 -0.6015
 2563TIP3    H129104   4.002   1.006  14.489  1.0521 -0.6490 -1.6519
 2563TIP3    H229105   4.148   1.044  14.473  0.8775  0.7569 -0.0535
 2564TIP3   OH229106   5.084   0.527  11.209 -0.1937 -0.2992 -0.3200
 2564TIP3    H129107   5.162   0.487  11.246  0.0165 -0.1934 -0.6409
 2564TIP3    H229108   5.118   0.592  11.146 -0.5324 -0.0085 -0.2067
 2565TIP3   OH229109   6.191   0.244   4.553 -0.1448 -0.1387 -0.3108
 2565TIP3    H129110   6.256   0.267   4.486 -0.9443 -0.2691 -1.1538
 2565TIP3    H229111   6.234   0.264   4.636  0.5175  0.9366 -0.8953
 2566TIP3   OH229112   6.675   6.174   4.676 -0.0108  0.5295  0.5392
 2566TIP3    H129113   6.698   6.192   4.767 -1.2211  1.4622  0.6696
 2566TIP3    H229114   6.614   6.243   4.652 -0.3689 -0.1990 -0.7288
 2567TIP3   OH229115   3.357   3.956   0.935  0.2223 -0.5893 -0.0540
 2567TIP3    H129116   3.269   3.992   0.946 -0.1282 -1.4416 -0.0344
 2567TIP3    H229117   3.344   3.862   0.926  0.9211 -0.5092 -2.4608
 2568TIP3   OH229118   3.020   0.409  13.645 -0.3451 -0.0522 -0.2216
 2568TIP3    H129119   3.083   0.397  13.574 -0.7192 -0.9073 -0.4127
 2568TIP3    H229120   2.935   0.399  13.603 -0.5655 -0.6071  0.3551
 2569TIP3   OH229121   4.284   5.433  13.718  0.5097 -0.2579 -0.0503
 2569TIP3    H129122   4.211   5.414  13.777 -0.2131 -1.3360 -1.2706
 2569TIP3    H229123   4.242   5.470  13.640  1.3543  0.0919 -0.3423
 2570TIP3   OH229124   5.461   5.525   4.561 -0.4818  0.1826  0.2939
 2570TIP3    H129125   5.553   5.548   4.573 -1.6088  4.2804  1.9261
 2570TIP3    H229126   5.443   5.546   4.469 -0.0991  0.3866  0.2650
 2571TIP3   OH229127   5.216   1.569   5.118 -0.4121 -0.1617 -0.5220
 2571TIP3    H129128   5.143   1.553   5.177 -0.1851 -0.7832 -0.4131
 2571TIP3    H229129   5.175   1.587   5.033 -0.7224  0.3957 -0.2565
 2572TIP3   OH229130   2.168   2.176   6.602  0.5494  0.2472  0.0523
 2572TIP3    H129131   2.221   2.209   6.673  0.7198  2.2230 -0.9553
 2572TIP3    H229132   2.222   2.108   6.560  1.1513  0.3217  0.7101
 2573TIP3   OH229133   3.176   2.907   5.432 -0.5009 -0.3020  0.1223
 2573TIP3    H129134   3.196   2.997   5.459 -0.1329 -0.0581 -0.9379
 2573TIP3    H229135   3.260   2.861   5.434 -0.6618 -0.5746  0.5089
 2574TIP3   OH229136   1.901   6.099  13.486 -0.1968 -0.2684  0.3239
 2574TIP3    H129137   1.882   6.177  13.434  0.0030  0.1015  0.7950
 2574TIP3    H229138   1.924   6.032  13.422 -1.2855 -0.2049 -0.1464
 2575TIP3   OH229139   4.217   6.689  12.394 -0.1798 -0.1947  0.2577
 2575TIP3    H129140   4.165   6.672  12.316  0.0373  0.2734  0.0119
 2575TIP3    H229141   4.300   6.644  12.378 -0.2647 -0.3966  0.3738
 2576TIP3   OH229142   5.276   2.528  12.789 -0.4160 -0.0499  0.3353
 2576TIP3    H129143   5.262   2.606  12.843 -1.7269  0.7741 -1.1316
 2576TIP3    H229144   5.239   2.456  12.840 -1.5499  0.7052  0.5947
 2577TIP3   OH229145   0.809   3.248  13.167 -0.0185 -0.2355 -0.3114
 2577TIP3    H129146   0.813   3.224  13.259  0.0031 -1.3773 -0.5930
 2577TIP3    H229147   0.870   3.187  13.124 -1.0334 -0.6056 -1.2458
 2578TIP3   OH229148   4.909   0.721   5.325  0.5019  0.0784 -0.9534
 2578TIP3    H129149   4.963   0.783   5.373  0.4857  0.2628 -1.1724
 2578TIP3    H229150   4.834   0.771   5.295 -0.4914 -0.4965  0.5234
 2579TIP3   OH229151   1.777   2.863   1.063  0.5129  0.3056 -0.0278
 2579TIP3    H129152   1.793   2.866   0.969 -1.1348  0.0398 -0.3381
 2579TIP3    H229153   1.859   2.833   1.101  1.2991  0.7524 -1.3506
 2580TIP3   OH229154   1.456   0.100  15.654  0.1368 -0.5288 -0.1789
 2580TIP3    H129155   1.454   0.020  15.708  0.6970 -0.0879  0.5045
 2580TIP3    H229156   1.380   0.150  15.684  0.1789 -0.4955 -0.1276
 2581TIP3   OH229157   0.477   2.646  14.719 -0.4158  0.2115 -0.3748
 2581TIP3    H129158   0.454   2.601  14.800 -1.1724  3.4354  1.3117
 2581TIP3    H229159   0.398   2.696  14.696  0.4834  0.9578 -1.9718
 2582TIP3   OH229160   4.172   2.874   5.536  0.3770  0.7942 -0.1181
 2582TIP3    H129161   4.207   2.956   5.500 -0.8112 -0.1074 -3.4815
 2582TIP3    H229162   4.244   2.811   5.528  0.6364  0.9806  0.6458
 2583TIP3   OH229163   6.593   6.724   0.490 -0.6524 -0.1004 -0.1906
 2583TIP3    H129164   6.649   6.649   0.474 -1.4937 -0.7112 -0.3492
 2583TIP3    H229165   6.584   6.728   0.585  1.1119  1.1009 -0.0530
 2584TIP3   OH229166   1.136   3.796   2.337 -0.1344  0.5124 -0.0324
 2584TIP3    H129167   1.136   3.705   2.306 -0.1690  0.5059 -0.0136
 2584TIP3    H229168   1.051   3.830   2.310  0.4861  1.0234 -1.4451
 2585TIP3   OH229169   5.152   1.546  14.923  0.1127  0.7121  0.1187
 2585TIP3    H129170   5.065   1.511  14.901 -0.5899  1.2874  1.8499
 2585TIP3    H229171   5.208   1.469  14.932 -0.5480  0.2519  0.3268
 2586TIP3   OH229172   6.396   3.693  13.017  0.6333 -0.2193  1.0040
 2586TIP3    H129173   6.343   3.770  13.000  0.5673 -0.5404 -0.2719
 2586TIP3    H229174   6.349   3.621  12.974  2.4970 -0.3770 -0.7932
 2587TIP3   OH229175   1.509   0.571   0.558  0.4453  0.4891  0.2412
 2587TIP3    H129176   1.441   0.638   0.566  0.2221  0.6748 -2.6469
 2587TIP3    H229177   1.466   0.490   0.585 -0.4477  0.8816  0.0209
 2588TIP3   OH229178   2.945   3.741   2.552 -0.1178 -0.0201  0.4519
 2588TIP3    H129179   2.897   3.731   2.634 -1.4519  0.5292 -0.2464
 2588TIP3    H229180   3.008   3.811   2.570  0.2973 -0.6022  1.3100
 2589TIP3   OH229181   4.325   3.852   0.472  0.7812 -1.4522  0.3399
 2589TIP3    H129182   4.278   3.772   0.495  0.7347 -1.1395  1.3992
 2589TIP3    H229183   4.352   3.888   0.557 -1.7078  1.1782  0.1137
 2590TIP3   OH229184   3.532   0.859  16.437  0.5753 -0.3801  0.2389
 2590TIP3    H129185   3.497   0.810  16.363 -0.9149  2.8622 -1.3227
 2590TIP3    H229186   3.468   0.845  16.507 -1.9165  2.3194 -1.3839
 2591TIP3   OH229187   3.623   5.778   4.069  0.6586 -0.1623 -0.4477
 2591TIP3    H129188   3.683   5.850   4.088 -0.5347  0.7452 -0.0336
 2591TIP3    H229189   3.672   5.699   4.092  2.5601  0.3972 -2.3935
 2592TIP3   OH229190   3.473   2.811  16.629  0.1239  0.2095 -0.4065
 2592TIP3    H129191   3.523   2.775  16.702  1.4350  0.9291 -0.9232
 2592TIP3    H229192   3.539   2.854  16.574 -1.3646  3.7716  0.4275
 2593TIP3   OH229193   3.988   1.010  12.957  0.4814 -0.0041  0.6491
 2593TIP3    H129194   3.993   0.915  12.953  4.7525  0.1063  0.7566
 2593TIP3    H229195   3.999   1.039  12.866  1.5465  0.3932  0.8890
 2594TIP3   OH229196   6.602   0.074  15.461  0.0786 -0.9460 -0.4295
 2594TIP3    H129197   6.672   0.114  15.513  0.3193 -0.9622 -0.7367
 2594TIP3    H229198   6.548   0.028  15.525 -1.3135  1.4949  0.1979
 2595TIP3   OH229199   3.911   3.652  12.981 -0.7580  0.1268 -0.6086
 2595TIP3    H129200   3.978   3.638  12.914 -0.0255 -0.9370  0.3425
 2595TIP3    H229201   3.899   3.747  12.983  0.9240  0.3529 -0.6059
 2596TIP3   OH229202   0.829   2.630   2.364 -0.3519 -0.0480 -0.3156
 2596TIP3    H129203   0.911   2.603   2.324 -0.3405  0.3239 -0.5427
 2596TIP3    H229204   0.846   2.629   2.458 -0.0868  0.0336 -0.3629
 2597TIP3   OH229205   0.028   4.456  15.800 -0.3588 -0.3527  0.1242
 2597TIP3    H129206  -0.056   4.501  15.808 -0.2368  0.6367 -3.2154
 2597TIP3    H229207   0.007   4.375  15.754  0.3348 -0.7734  0.5363
 2598TIP3   OH229208   5.002   1.816   1.273  0.3212  0.3344  0.1922
 2598TIP3    H129209   5.009   1.723   1.298 -0.0124  0.1638 -0.3529
 2598TIP3    H229210   5.017   1.863   1.355  0.3927 -0.2050  0.4949
 2599TIP3   OH229211   3.852   6.236   6.068  0.3715  0.1019  0.1906
 2599TIP3    H129212   3.853   6.331   6.058  0.2150 -0.1959 -3.2288
 2599TIP3    H229213   3.938   6.208   6.036 -0.1753 -1.0266 -0.3206
 2600TIP3   OH229214   0.414   3.638  12.869  0.6691  0.0256  0.2136
 2600TIP3    H129215   0.450   3.650  12.956  1.0800 -0.8085  0.1612
 2600TIP3    H229216   0.409   3.543  12.857 -1.7394  0.0976  0.2894
 2601TIP3   OH229217   2.682   0.079  13.298  0.5327 -0.2263 -0.7302
 2601TIP3    H129218   2.711   0.019  13.229  0.1198  0.6290 -1.6616
 2601TIP3    H229219   2.600   0.117  13.264 -0.0384 -0.3130  0.5262
 2602TIP3   OH229220   0.221   0.658   2.464 -0.3957  0.3232 -0.0124
 2602TIP3    H129221   0.151   0.596   2.443 -0.2641  0.6858 -1.5671
 2602TIP3    H229222   0.302   0.608   2.450 -0.3092  0.4805 -0.0727
 2603TIP3   OH229223   2.070   1.258  14.695 -0.1678  0.2039  0.3272
 2603TIP3    H129224   1.989   1.238  14.741 -0.1470  0.6947  0.5923
 2603TIP3    H229225   2.131   1.189  14.721 -0.3202  0.1762  0.6111
 2604TIP3   OH229226   0.694   1.260   0.960  0.9399  0.2849 -0.5419
 2604TIP3    H129227   0.670   1.206   1.035 -0.1992  0.0375 -1.0804
 2604TIP3    H229228   0.787   1.239   0.945  0.8613 -0.5406  0.0625
 2605TIP3   OH229229   4.696   4.902  16.089  0.1649 -0.0258 -0.5492
 2605TIP3    H129230   4.658   4.816  16.070 -0.4469  0.3451 -1.0483
 2605TIP3    H229231   4.620   4.957  16.108  0.5198  0.5160 -0.7027
 2606TIP3   OH229232   6.451   1.717  16.391 -0.5143 -0.1444  0.0126
 2606TIP3    H129233   6.513   1.709  16.463  1.7818 -0.8899 -1.9910
 2606TIP3    H229234   6.442   1.627  16.357 -1.2045  0.2713 -0.9267
 2607TIP3   OH229235   5.024   4.825  16.816 -0.7986 -0.3064 -0.4668
 2607TIP3    H129236   5.034   4.835  16.721  1.5022 -2.5922 -0.5426
 2607TIP3    H229237   5.019   4.730  16.829 -2.0240  0.0174  1.6415
 2608TIP3   OH229238   2.040   2.951  16.410 -0.0546 -0.3241 -0.9243
 2608TIP3    H129239   1.995   3.035  16.402  0.0424 -0.0323  1.3493
 2608TIP3    H229240   2.132   2.974  16.421  0.1862 -0.7952 -1.8764
 2609TIP3   OH229241   3.175   5.899   4.546 -0.5261  0.3305 -0.5177
 2609TIP3    H129242   3.223   5.974   4.582 -0.2730  0.4152 -1.0347
 2609TIP3    H229243   3.225   5.822   4.574  1.0330  0.5040 -2.7202
 2610TIP3   OH229244   2.419   4.310   1.003 -0.2461 -0.1239  1.0105
 2610TIP3    H129245   2.508   4.299   0.972 -0.1643  2.0430  0.3421
 2610TIP3    H229246   2.411   4.404   1.020 -1.9620 -0.4802  2.4376
 2611TIP3   OH229247   4.733   6.571   4.049 -0.1285  0.0942  0.1112
 2611TIP3    H129248   4.786   6.522   3.987 -2.0521 -0.9694 -0.7430
 2611TIP3    H229249   4.722   6.657   4.008  1.3562  0.5165  0.5547
 2612TIP3   OH229250   5.316   5.560  15.980  0.3485  0.1868 -0.1212
 2612TIP3    H129251   5.371   5.502  15.928  0.0494  0.3472 -0.6210
 2612TIP3    H229252   5.370   5.638  15.993  0.7445 -0.1918  0.5395
 2613TIP3   OH229253   2.745   1.189   2.926  0.8040 -0.0924  0.4467
 2613TIP3    H129254   2.810   1.205   2.857  0.8162  1.8767  0.8886
 2613TIP3    H229255   2.723   1.096   2.917  2.5698 -0.4312 -0.6750
 2614TIP3   OH229256   3.102   3.775   4.687  0.3858 -0.0449  0.3958
 2614TIP3    H129257   3.161   3.764   4.761  0.1323 -0.7512  0.5015
 2614TIP3    H229258   3.047   3.696   4.688 -1.2295  1.0533  0.9119
 2615TIP3   OH229259   5.916   0.213  16.565 -0.5412 -0.3917  0.1938
 2615TIP3    H129260   5.849   0.146  16.553 -0.5866 -0.5915  1.5019
 2615TIP3    H229261   5.997   0.164  16.581 -0.4830 -0.1451  0.6735
 2616TIP3   OH229262   2.319   4.720  13.068  0.1300  0.7586 -0.1701
 2616TIP3    H129263   2.308   4.641  13.121  1.9361  0.5178 -0.1289
 2616TIP3    H229264   2.257   4.709  12.996  1.5459 -1.4900 -1.0811
 2617TIP3   OH229265   1.354   6.568  16.157 -0.5983  0.3287 -0.0870
 2617TIP3    H129266   1.308   6.490  16.127 -2.1450  0.3654  2.1133
 2617TIP3    H229267   1.439   6.535  16.186  0.0831 -0.0090 -2.3257
 2618TIP3   OH229268   5.895   2.403   1.146 -0.0798  0.4198  0.1779
 2618TIP3    H129269   5.875   2.310   1.158  1.1647  0.1257 -0.0111
 2618TIP3    H229270   5.810   2.447   1.155 -0.6607 -0.7231  0.3442
 2619TIP3   OH229271   6.424   0.487  12.682  0.2362  0.3453  0.3079
 2619TIP3    H129272   6.490   0.435  12.637  1.8416  1.7921  0.9199
 2619TIP3    H229273   6.376   0.531  12.611  2.2594  2.0353 -0.0597
 2620TIP3   OH229274   6.699   0.768  15.383 -0.3500  0.2572  0.2400
 2620TIP3    H129275   6.784   0.743  15.418 -0.5022 -0.6339 -0.0159
 2620TIP3    H229276   6.699   0.863  15.387  1.2550  0.3317 -1.1770
 2621TIP3   OH229277   3.963   1.475  11.311 -0.0498 -0.0354  0.5622
 2621TIP3    H129278   3.877   1.516  11.303  0.7953  1.4784 -1.4083
 2621TIP3    H229279   3.957   1.395  11.258 -0.7059 -0.7267  1.6828
 2622TIP3   OH229280   4.537   3.575   2.328 -0.5279 -0.6309 -0.3821
 2622TIP3    H129281   4.608   3.625   2.288  1.1656 -1.6827  1.2515
 2622TIP3    H229282   4.488   3.639   2.380  1.0609 -0.4648  0.9409
 2623TIP3   OH229283   5.679   3.025   1.393  0.4300  0.3284  0.2403
 2623TIP3    H129284   5.661   3.086   1.464  0.2039 -1.1575  1.5075
 2623TIP3    H229285   5.751   2.970   1.426  1.7614  0.9592 -1.5287
 2624TIP3   OH229286   2.459   3.507   6.254 -0.5700 -0.0505 -0.1501
 2624TIP3    H129287   2.521   3.501   6.327 -0.8396  0.0771  0.0861
 2624TIP3    H229288   2.373   3.493   6.293 -0.8791  1.7499 -0.1740
 2625TIP3   OH229289   0.857   3.240   5.736  0.2056  0.4265 -0.1654
 2625TIP3    H129290   0.837   3.207   5.649 -0.0520 -0.5072  0.2462
 2625TIP3    H229291   0.842   3.166   5.795  0.6950  0.9483  0.6365
 2626TIP3   OH229292   4.633   6.361   4.357  0.6660 -0.1472  0.7514
 2626TIP3    H129293   4.649   6.275   4.397 -0.6443 -0.8411 -0.1692
 2626TIP3    H229294   4.547   6.387   4.390  1.0268  0.8059  0.9758
 2627TIP3   OH229295   3.531   3.763  15.675 -0.4140  0.1218  0.5598
 2627TIP3    H129296   3.487   3.704  15.736 -0.4051 -0.0337  0.4154
 2627TIP3    H229297   3.608   3.793  15.723 -0.7245  0.4717  0.8505
 2628TIP3   OH229298   5.678   1.292  13.104 -0.5130  0.0190 -0.1553
 2628TIP3    H129299   5.636   1.332  13.180 -1.2362 -0.7099 -0.1709
 2628TIP3    H229300   5.642   1.339  13.029 -0.5928  0.0322 -0.1086
 2629TIP3   OH229301   1.284   5.793   3.261  0.3297 -0.2846  0.0308
 2629TIP3    H129302   1.344   5.857   3.300  0.4184 -0.3688  0.0348
 2629TIP3    H229303   1.327   5.709   3.277  1.1228 -0.2103 -1.5981
 2630TIP3   OH229304   2.501   3.356   1.804 -0.1874  0.0922 -0.0395
 2630TIP3    H129305   2.423   3.405   1.778 -0.3009  0.7116  1.4536
 2630TIP3    H229306   2.497   3.276   1.751 -0.5114  1.2284 -1.7960
 2631TIP3   OH229307   0.509   2.021   5.788  0.1401 -0.0873  0.0471
 2631TIP3    H129308   0.536   1.990   5.874  0.5176  1.0442  0.3450
 2631TIP3    H229309   0.578   1.992   5.729  0.9490  0.9553  0.4675
 2632TIP3   OH229310   2.352   2.148  11.985  0.6335 -0.0506  0.1859
 2632TIP3    H129311   2.300   2.228  11.971 -0.1149 -0.7344 -1.0315
 2632TIP3    H229312   2.294   2.077  11.959  1.9885 -0.8676 -0.6327
 2633TIP3   OH229313   5.362   4.419  16.271 -0.3945  0.5115  0.3065
 2633TIP3    H129314   5.392   4.379  16.189 -0.1859  2.0112 -0.3694
 2633TIP3    H229315   5.424   4.387  16.337  0.5383  0.7320 -0.4443
 2634TIP3   OH229316   0.247   2.824  14.173 -0.2493  0.0726  0.0711
 2634TIP3    H129317   0.331   2.822  14.219  0.3573 -1.0672 -1.0463
 2634TIP3    H229318   0.237   2.735  14.138  0.5863  1.5411 -4.2477
 2635TIP3   OH229319   3.541   0.970   5.267 -0.3586  0.6801 -0.3298
 2635TIP3    H129320   3.470   1.008   5.318  0.4895  0.2201  1.2299
 2635TIP3    H229321   3.536   0.876   5.287  1.6108  0.8332  0.9851
 2636TIP3   OH229322   4.056   2.165   2.901  0.1673 -0.3546  0.1511
 2636TIP3    H129323   4.078   2.089   2.847 -0.0086  0.3500 -0.9129
 2636TIP3    H229324   4.128   2.226   2.887  0.8975 -0.7825  1.9094
 2637TIP3   OH229325   3.868   0.032   5.484  0.0057  0.2929 -0.0260
 2637TIP3    H129326   3.863   0.115   5.531  0.1971 -0.7097  1.8380
 2637TIP3    H229327   3.938   0.044   5.420  0.7737  1.2078  0.9733
 2638TIP3   OH229328   5.857   6.648   5.351  0.2164 -0.5963  0.3037
 2638TIP3    H129329   5.839   6.680   5.263  1.2522 -1.4544 -0.2181
 2638TIP3    H229330   5.825   6.558   5.351  0.5914 -0.7304  0.6806
 2639TIP3   OH229331   4.726   5.269  15.376  0.3459 -0.6578 -0.0359
 2639TIP3    H129332   4.704   5.294  15.286 -0.2391 -1.6156 -0.1770
 2639TIP3    H229333   4.803   5.213  15.367  1.5455  0.9282  0.2572
 2640TIP3   OH229334   1.300   0.714  12.845  0.2966  0.7515 -0.2911
 2640TIP3    H129335   1.217   0.749  12.877 -0.2617  0.5501 -1.4898
 2640TIP3    H229336   1.292   0.718  12.750  0.5837 -1.8356 -0.4465
 2641TIP3   OH229337   4.060   0.257  11.607  0.2009  0.6632 -0.4656
 2641TIP3    H129338   4.115   0.179  11.606 -1.7453 -0.7294 -1.0423
 2641TIP3    H229339   4.043   0.274  11.699  0.9656  0.6460 -0.3212
 2642TIP3   OH229340   0.979   2.611   4.594  0.3155 -0.5574  0.1774
 2642TIP3    H129341   0.944   2.529   4.559  1.1646 -1.5276  1.5325
 2642TIP3    H229342   1.015   2.587   4.680 -0.1253  1.3900  0.9338
 2643TIP3   OH229343   2.695   4.216  15.951  0.5946 -0.0350 -0.3151
 2643TIP3    H129344   2.622   4.200  15.891  0.4774  0.0011 -0.1801
 2643TIP3    H229345   2.710   4.311  15.945 -0.5330  0.2445  1.0012
 2644TIP3   OH229346   1.868   2.941  15.614 -0.5618 -0.9583 -0.4671
 2644TIP3    H129347   1.886   2.848  15.613 -0.0147 -0.8352 -2.3663
 2644TIP3    H229348   1.946   2.982  15.577 -1.0532  0.2117 -0.2420
 2645TIP3   OH229349   3.611   6.257  16.595 -0.1243  0.5794  0.8260
 2645TIP3    H129350   3.549   6.185  16.590  0.5812  0.0641 -0.8509
 2645TIP3    H229351   3.668   6.235  16.669  0.6923 -1.1060 -0.2684
 2646TIP3   OH229352   0.622   1.685   1.539 -0.2550 -0.0900  0.4509
 2646TIP3    H129353   0.548   1.704   1.596  0.1925 -0.2218  1.0894
 2646TIP3    H229354   0.591   1.616   1.481 -1.0135  0.6998 -0.0865
 2647TIP3   OH229355   6.043   1.694  15.261  0.2298 -0.0047 -0.3068
 2647TIP3    H129356   6.018   1.738  15.180  1.3220 -0.9666 -1.2004
 2647TIP3    H229357   6.029   1.601  15.243 -1.4947 -0.0752  1.3432
 2648TIP3   OH229358   5.442   0.016   2.198  0.1193 -0.3019  0.0697
 2648TIP3    H129359   5.425  -0.001   2.105  0.8156  0.3676 -0.1862
 2648TIP3    H229360   5.440   0.111   2.206 -1.2547 -0.3881  1.0090
 2649TIP3   OH229361   5.320   2.686  13.669  0.5024 -0.3924 -0.2919
 2649TIP3    H129362   5.333   2.770  13.625 -0.9910 -1.0611 -2.0988
 2649TIP3    H229363   5.245   2.700  13.727  0.8308 -0.2382  0.1020
 2650TIP3   OH229364   2.549   2.471  13.917  0.0442 -0.4178  0.1150
 2650TIP3    H129365   2.590   2.452  14.001 -0.4301 -2.0090  0.0032
 2650TIP3    H229366   2.466   2.514  13.939  0.3415 -0.0059  0.4273
 2651TIP3   OH229367   2.908   3.528  12.103  0.2094 -0.2726  0.7150
 2651TIP3    H129368   2.902   3.468  12.178  2.0980 -0.0848  1.0510
 2651TIP3    H229369   2.998   3.519  12.073 -0.0527  0.9385 -0.4759
 2652TIP3   OH229370   5.019   4.656   1.444  0.2620  0.5743 -0.4336
 2652TIP3    H129371   4.935   4.660   1.489  0.5375 -0.7558  0.2295
 2652TIP3    H229372   5.050   4.746   1.441 -1.0117  1.0238 -0.3610
 2653TIP3   OH229373   4.085   0.964   1.179  0.0172  0.2910  0.1841
 2653TIP3    H129374   4.125   0.892   1.130  0.1939  0.7824 -0.3941
 2653TIP3    H229375   4.111   0.949   1.270 -1.3861 -1.3636  0.3385
 2654TIP3   OH229376   0.134   5.319  17.126 -0.1276 -0.0249 -0.2683
 2654TIP3    H129377   0.206   5.331  17.188  0.1153 -2.4776 -0.0441
 2654TIP3    H229378   0.172   5.267  17.055 -1.2984 -0.0905 -0.8635
 2655TIP3   OH229379   4.696   3.373  13.109  0.5758  0.6356 -0.5769
 2655TIP3    H129380   4.718   3.340  13.196  0.1798 -0.7244 -0.9739
 2655TIP3    H229381   4.629   3.439  13.125 -0.9916 -1.0502  0.0251
 2656TIP3   OH229382   2.625   2.579   6.642 -0.3948 -0.2364  0.3037
 2656TIP3    H129383   2.643   2.662   6.596  0.2135 -1.5925 -1.9968
 2656TIP3    H229384   2.707   2.558   6.686 -0.4273  0.1994  0.5723
 2657TIP3   OH229385   3.652   4.413  11.593 -0.2314 -0.6589  0.0272
 2657TIP3    H129386   3.669   4.427  11.500 -0.3220  0.3902  0.1582
 2657TIP3    H229387   3.622   4.322  11.598  0.7447 -1.0440 -0.8257
 2658TIP3   OH229388   3.292   5.914   1.199  0.0780 -0.0990 -0.5348
 2658TIP3    H129389   3.292   5.935   1.106  1.8449  3.2865  0.1412
 2658TIP3    H229390   3.331   5.991   1.241  2.5218 -2.9133  2.6759
 2659TIP3   OH229391   5.856   4.532  15.664  0.0460 -0.2956 -0.1045
 2659TIP3    H129392   5.883   4.593  15.732  0.0987  2.7358 -2.7331
 2659TIP3    H229393   5.918   4.459  15.671  0.7274  0.4714  2.3129
 2660TIP3   OH229394   0.345   4.667   2.439 -0.3460 -0.3328 -0.7930
 2660TIP3    H129395   0.276   4.709   2.491 -0.1679  0.4167 -1.1610
 2660TIP3    H229396   0.418   4.655   2.500 -0.4637 -0.2770 -0.6421
 2661TIP3   OH229397   3.991   1.521  15.496 -0.6408  0.4320  0.2406
 2661TIP3    H129398   4.067   1.575  15.513 -1.8475  1.4306  2.7873
 2661TIP3    H229399   4.019   1.432  15.516  0.2587  0.5995 -0.2759
 2662TIP3   OH229400   2.766   2.398   4.346 -0.1374 -0.6978 -0.2598
 2662TIP3    H129401   2.839   2.360   4.299  0.4167  0.5480 -0.4332
 2662TIP3    H229402   2.798   2.410   4.436  0.8953  2.4976 -0.9958
 2663TIP3   OH229403   3.384   5.307  14.307 -0.3051  0.1681 -0.0272
 2663TIP3    H129404   3.438   5.292  14.384 -0.8415 -0.3781  0.2489
 2663TIP3    H229405   3.295   5.290  14.336 -0.4270 -0.9240 -0.9872
 2664TIP3   OH229406   4.236   5.288   3.393 -0.1361  0.0343  0.8920
 2664TIP3    H129407   4.189   5.264   3.313 -0.7822  0.2589  1.1979
 2664TIP3    H229408   4.225   5.383   3.400 -0.2422 -0.0091  1.3463
 2665TIP3   OH229409   3.822   0.729  14.697  0.3247 -0.2504  0.1877
 2665TIP3    H129410   3.776   0.688  14.771 -0.0456  2.4158  1.4756
 2665TIP3    H229411   3.859   0.809  14.733  3.5325 -0.8555 -1.5768
 2666TIP3   OH229412   0.739   0.458   3.920 -0.0747 -0.1442  0.3804
 2666TIP3    H129413   0.732   0.545   3.882 -2.4108 -0.1302  0.7643
 2666TIP3    H229414   0.729   0.398   3.846  2.0431 -0.1022  0.0424
 2667TIP3   OH229415   0.614   6.694   1.607  0.5217  0.3758  0.6058
 2667TIP3    H129416   0.669   6.732   1.676  1.4294  0.7616 -0.3213
 2667TIP3    H229417   0.673   6.682   1.533 -0.9189  2.0019 -0.8416
 2668TIP3   OH229418   2.587   2.887   0.676 -0.1631  0.3021  0.0093
 2668TIP3    H129419   2.504   2.932   0.687 -1.5061 -2.1331  0.2918
 2668TIP3    H229420   2.643   2.921   0.746 -1.5137  0.6815  0.9287
 2669TIP3   OH229421   3.328   5.307  15.984 -0.3539 -0.2781  0.3638
 2669TIP3    H129422   3.346   5.274  15.896 -0.9631  0.2630  0.0347
 2669TIP3    H229423   3.413   5.303  16.029 -0.2697 -1.6451  0.1181
 2670TIP3   OH229424   3.712   0.103   2.748  0.0127 -0.5401  0.5608
 2670TIP3    H129425   3.801   0.136   2.739  0.9899 -3.0247  0.7134
 2670TIP3    H229426   3.658   0.167   2.702  2.1499 -0.1906 -1.5533
 2671TIP3   OH229427   3.968   0.070   2.934 -0.4617 -0.5016  0.2018
 2671TIP3    H129428   3.896   0.009   2.952 -0.6677 -0.6072 -0.9812
 2671TIP3    H229429   3.987   0.058   2.841  1.6095 -1.0384  0.6649
 2672TIP3   OH229430   4.338   3.013  14.120 -0.2689 -0.2199 -0.1365
 2672TIP3    H129431   4.386   2.948  14.171 -0.8501 -0.2586  0.3632
 2672TIP3    H229432   4.246   2.988  14.129 -0.4169  0.1164 -0.7192
 2673TIP3   OH229433   0.131   5.083   0.575 -0.2808 -0.2153  0.0773
 2673TIP3    H129434   0.101   5.064   0.664 -0.9139 -0.2800 -0.1510
 2673TIP3    H229435   0.140   4.998   0.533  1.2317 -0.2608  0.4675
 2674TIP3   OH229436   0.561   2.426   1.399  0.2343 -0.2014  0.5853
 2674TIP3    H129437   0.505   2.395   1.328 -0.4257  0.5454  0.7708
 2674TIP3    H229438   0.650   2.404   1.371  0.0110  0.4116 -0.6446
 2675TIP3   OH229439   4.645   6.082   2.314 -0.4869  0.1465  0.0206
 2675TIP3    H129440   4.680   5.993   2.314 -0.8016 -0.0049  2.1866
 2675TIP3    H229441   4.552   6.071   2.294 -0.2980  0.1281 -0.9139
 2676TIP3   OH229442   0.810   0.064  15.245 -0.7250 -0.1465  0.1402
 2676TIP3    H129443   0.801  -0.029  15.266  1.6928 -0.7032 -1.1179
 2676TIP3    H229444   0.779   0.072  15.155 -0.7339  0.2274  0.1741
 2677TIP3   OH229445   5.711   5.973   5.468 -0.1163  0.4494 -0.0156
 2677TIP3    H129446   5.684   5.882   5.480  0.3092  0.0347 -1.9426
 2677TIP3    H229447   5.806   5.969   5.460 -0.2090  0.8596 -1.5439
 2678TIP3   OH229448   0.905   1.728  13.608  0.4743  0.2167  0.2336
 2678TIP3    H129449   0.927   1.776  13.689  2.0063  0.2278 -0.1613
 2678TIP3    H229450   0.983   1.676  13.590 -0.0236 -0.1054 -1.0191
 2679TIP3   OH229451   3.882   4.999  11.832  0.2294 -0.0879 -0.3201
 2679TIP3    H129452   3.898   5.077  11.886 -0.8592 -0.0744 -0.0013
 2679TIP3    H229453   3.921   4.927  11.882  1.6345  0.3045 -0.8273
 2680TIP3   OH229454   4.212   2.864   1.365  0.2058 -0.0136 -0.3357
 2680TIP3    H129455   4.276   2.932   1.344  0.3989  0.1388  0.7101
 2680TIP3    H229456   4.258   2.806   1.425 -0.5502 -0.0545  0.2130
 2681TIP3   OH229457   2.459   1.122  11.775  0.6209 -0.7702  0.4756
 2681TIP3    H129458   2.524   1.063  11.735  0.2388 -1.5146  0.9300
 2681TIP3    H229459   2.501   1.152  11.855  1.3335  0.6145 -0.4078
 2682TIP3   OH229460   3.855   4.034   3.173  0.0008  0.1567 -0.2015
 2682TIP3    H129461   3.921   4.048   3.105 -0.1284  0.3348 -0.2926
 2682TIP3    H229462   3.847   4.119   3.216  1.3927 -0.4100  1.2316
 2683TIP3   OH229463   1.006   5.673  16.681 -0.2524 -0.1775 -0.3874
 2683TIP3    H129464   1.094   5.710  16.691  1.0771 -3.1910 -0.5636
 2683TIP3    H229465   0.996   5.615  16.756 -2.2275  0.3162 -0.2340
 2684TIP3   OH229466   2.250   2.755   4.626 -0.0783 -0.9421 -0.3322
 2684TIP3    H129467   2.220   2.664   4.627 -0.9279 -0.6603  0.9323
 2684TIP3    H229468   2.251   2.781   4.718 -0.2863  0.4699 -0.7148
 2685TIP3   OH229469   3.545   1.841   1.077 -0.7816 -0.5266  0.0066
 2685TIP3    H129470   3.574   1.753   1.099 -1.6891 -0.9746 -0.5383
 2685TIP3    H229471   3.618   1.880   1.029  0.3642 -0.3021  1.8901
 2686TIP3   OH229472   1.963   1.482  16.092 -0.0560 -0.0777 -0.4485
 2686TIP3    H129473   1.939   1.539  16.165  0.0995 -0.9532  0.3034
 2686TIP3    H229474   1.929   1.526  16.014 -0.4524  0.7390  0.1826
 2687TIP3   OH229475   1.628   2.540   5.389 -0.2079 -0.0609  0.1075
 2687TIP3    H129476   1.633   2.563   5.482 -0.2086 -0.7443  0.2762
 2687TIP3    H229477   1.677   2.609   5.345  2.0435 -1.1450  0.8408
 2688TIP3   OH229478   1.762   1.499   5.744  0.4480 -0.0610 -0.1650
 2688TIP3    H129479   1.793   1.521   5.656  0.2350 -0.7376 -0.4124
 2688TIP3    H229480   1.771   1.580   5.794  2.5774 -0.2181 -0.2461
 2689TIP3   OH229481   1.597   2.904  15.549  0.1146 -0.0883 -0.2121
 2689TIP3    H129482   1.683   2.898  15.591  0.6499 -2.9072 -1.5571
 2689TIP3    H229483   1.616   2.937  15.461 -0.2004 -0.4326 -0.4096
 2690TIP3   OH229484   2.730   6.501   6.626  0.0490  0.6469  0.2038
 2690TIP3    H129485   2.679   6.421   6.610  0.4766  0.6708 -1.3552
 2690TIP3    H229486   2.716   6.553   6.547  1.1035  1.4036  0.5190
 2691TIP3   OH229487   6.281   6.469   4.838 -0.0272 -0.1141 -0.3647
 2691TIP3    H129488   6.305   6.531   4.769 -0.4539 -0.2653 -0.6506
 2691TIP3    H229489   6.185   6.465   4.834 -0.0330 -0.3322  0.0533
 2692TIP3   OH229490   6.351   3.030   0.551  0.3758 -0.3105 -0.4195
 2692TIP3    H129491   6.399   3.113   0.542 -0.4169  0.1247 -0.7266
 2692TIP3    H229492   6.415   2.963   0.529  1.3134  0.1544  0.8355
 2693TIP3   OH229493   1.272   2.609  14.230  0.4087 -0.0153  0.9329
 2693TIP3    H129494   1.216   2.574  14.298 -0.8517  1.2460  0.5749
 2693TIP3    H229495   1.239   2.698  14.215  0.0366 -0.5601 -1.9297
 2694TIP3   OH229496   0.860   3.191  14.957 -0.1279  0.1398  0.5668
 2694TIP3    H129497   0.779   3.221  14.916 -0.2759 -0.6599  0.2684
 2694TIP3    H229498   0.840   3.105  14.992  0.7789 -0.3456 -0.0856
 2695TIP3   OH229499   6.270   3.369   5.041 -0.1342  0.0974  0.4148
 2695TIP3    H129500   6.298   3.458   5.019  0.2373 -0.3228 -0.8541
 2695TIP3    H229501   6.301   3.315   4.967 -0.4340 -1.0649  1.1260
 2696TIP3   OH229502   5.372   1.545  13.116  0.3819 -0.5186 -0.0454
 2696TIP3    H129503   5.295   1.495  13.090  0.3189 -1.1229  1.2928
 2696TIP3    H229504   5.410   1.575  13.033 -0.8289 -0.8935 -0.7459
 2697TIP3   OH229505   6.201   0.480  14.978 -0.1869  0.7320 -0.7355
 2697TIP3    H129506   6.268   0.420  14.944 -0.0528 -0.4739  1.5709
 2697TIP3    H229507   6.118   0.439  14.956 -0.0888 -0.5907  1.3235
 2698TIP3   OH229508   0.996   3.317  15.180  0.1451  0.1987 -0.0034
 2698TIP3    H129509   0.974   3.270  15.100 -0.8991  1.9845 -0.8085
 2698TIP3    H229510   1.044   3.394  15.149 -0.6804  1.1433  1.0428
 2699TIP3   OH229511   1.332   1.485  14.419 -0.0663 -0.0535  0.6703
 2699TIP3    H129512   1.406   1.530  14.377  0.0399 -0.6929  0.1752
 2699TIP3    H229513   1.357   1.393  14.420 -1.2820 -0.4030 -0.3696
 2700TIP3   OH229514   4.396   2.578   4.522  0.3507  0.1598 -0.1008
 2700TIP3    H129515   4.351   2.595   4.604 -0.3945  0.2790 -0.5301
 2700TIP3    H229516   4.362   2.645   4.462  0.6913 -0.0917 -0.5748
 2701TIP3   OH229517   0.084   0.701   3.442  0.0628  0.0969  0.1889
 2701TIP3    H129518  -0.008   0.704   3.416  0.8075 -1.6763 -2.8388
 2701TIP3    H229519   0.129   0.754   3.377  1.3646 -0.1732  0.8564
 2702TIP3   OH229520   4.749   3.320   5.957  0.1525 -0.0990 -0.2944
 2702TIP3    H129521   4.808   3.373   5.904 -0.3620  1.5363  0.7071
 2702TIP3    H229522   4.782   3.231   5.949  1.5547  0.5005 -1.3407
 2703TIP3   OH229523   0.792   2.698   0.535  0.2016  0.7760 -0.1359
 2703TIP3    H129524   0.848   2.648   0.595  0.0748  1.6859  0.7542
 2703TIP3    H229525   0.852   2.760   0.493  0.3915 -0.2235 -1.3716
 2704TIP3   OH229526   2.178   6.307   1.891  0.3807  0.8105  0.0753
 2704TIP3    H129527   2.242   6.236   1.895 -1.9795 -1.3508  3.5588
 2704TIP3    H229528   2.133   6.295   1.807  1.8384 -0.1547 -0.5775
 2705TIP3   OH229529   0.179   1.981  11.509  0.4194 -0.6433  0.0353
 2705TIP3    H129530   0.130   2.063  11.500 -1.7945 -1.8023  1.3879
 2705TIP3    H229531   0.197   1.954  11.419 -1.8638 -0.4501 -0.4916
 2706TIP3   OH229532   0.635   5.219   0.391  0.5805  0.2212 -0.0406
 2706TIP3    H129533   0.592   5.218   0.306  0.0749 -1.0467  0.2240
 2706TIP3    H229534   0.635   5.312   0.416 -2.1157  0.2692 -0.0087
 2707TIP3   OH229535   3.975   2.773  15.993 -0.0200  0.3459 -0.2884
 2707TIP3    H129536   3.909   2.832  15.958  0.8399  1.4850 -0.0150
 2707TIP3    H229537   3.933   2.687  15.993 -1.9435  1.2446  1.0360
 2708TIP3   OH229538   3.436   3.484  13.499 -0.3977 -0.0822 -0.3016
 2708TIP3    H129539   3.530   3.503  13.500 -0.7063  1.4917  1.2379
 2708TIP3    H229540   3.420   3.436  13.580 -1.2139  1.2094  0.3150
 2709TIP3   OH229541   0.969   3.018   3.951 -0.4304 -0.2638 -0.2920
 2709TIP3    H129542   0.981   3.107   3.917  0.2794 -0.7013 -1.2106
 2709TIP3    H229543   1.031   3.012   4.024  0.0242 -0.2336 -0.6715
 2710TIP3   OH229544   1.359   0.118   2.516 -0.8179 -0.0733 -0.1693
 2710TIP3    H129545   1.292   0.173   2.557 -0.9696 -0.2243 -0.2169
 2710TIP3    H229546   1.441   0.147   2.556 -0.7366  1.0924 -1.1406
 2711TIP3   OH229547   3.991   5.920  14.983  0.0485 -0.2372  0.0409
 2711TIP3    H129548   4.033   5.999  14.949 -0.2201  0.7463  1.9055
 2711TIP3    H229549   4.031   5.848  14.934 -0.3972  1.1075 -2.3461
 2712TIP3   OH229550   0.932   3.814   4.022 -0.1609 -0.8027  0.0956
 2712TIP3    H129551   0.936   3.904   3.990 -1.6455 -0.7117  0.1351
 2712TIP3    H229552   1.024   3.785   4.024  0.5064  1.3207  1.9064
 2713TIP3   OH229553   1.931   4.511   4.453 -0.2842  0.2915  0.0269
 2713TIP3    H129554   1.901   4.444   4.392 -0.6912 -1.0896  1.7000
 2713TIP3    H229555   2.023   4.490   4.468 -0.0252  0.9837 -0.5419
 2714TIP3   OH229556   3.902   6.755   5.029  0.2009  0.3009 -0.1338
 2714TIP3    H129557   3.831   6.725   5.085 -0.3475  0.7657 -0.5660
 2714TIP3    H229558   3.976   6.767   5.088 -0.0100 -0.4266  0.2786
 2715TIP3   OH229559   4.276   2.780   0.324  0.4032  0.8618  0.1034
 2715TIP3    H129560   4.226   2.726   0.385 -0.8633  0.2731 -1.3999
 2715TIP3    H229561   4.259   2.870   0.351 -0.2470  0.6061  0.5420
 2716TIP3   OH229562   5.653   2.365  14.469 -0.0563  0.1655 -0.0162
 2716TIP3    H129563   5.725   2.367  14.532 -0.0563 -0.2614 -0.0043
 2716TIP3    H229564   5.608   2.282  14.485  0.5288 -0.3996 -1.2299
 2717TIP3   OH229565   3.667   4.433   4.297 -0.0276  0.2889 -0.4166
 2717TIP3    H129566   3.645   4.522   4.326 -0.2317  0.0654  0.1212
 2717TIP3    H229567   3.583   4.392   4.278  0.1438  0.7066 -2.1699
 2718TIP3   OH229568   5.476   6.574  13.891  0.3481  0.3001  0.1136
 2718TIP3    H129569   5.406   6.599  13.952  0.1367  0.4816 -0.1945
 2718TIP3    H229570   5.543   6.641  13.903  0.2101  0.4634 -0.0054
 2719TIP3   OH229571   2.574   2.812  10.987 -0.3308  0.8588 -0.2314
 2719TIP3    H129572   2.602   2.782  11.074  1.5647 -0.7057 -1.3485
 2719TIP3    H229573   2.492   2.765  10.971  0.6103 -0.7820 -0.3227
 2720TIP3   OH229574   3.967   4.259  12.378 -0.0977  0.1067 -0.0820
 2720TIP3    H129575   3.999   4.346  12.403  1.3174 -0.6781  0.9626
 2720TIP3    H229576   3.896   4.241  12.439 -2.0381  1.5104 -1.8627
 2721TIP3   OH229577   5.619   5.431  12.410 -0.5259 -0.1295  0.4833
 2721TIP3    H129578   5.549   5.405  12.350  0.8685  0.4590 -1.4584
 2721TIP3    H229579   5.613   5.526  12.413  0.3885 -0.0644  0.0877
 2722TIP3   OH229580   6.705   1.566  12.851  0.1692  0.3254 -0.3462
 2722TIP3    H129581   6.797   1.576  12.824 -0.3059  0.8273 -1.8476
 2722TIP3    H229582   6.661   1.537  12.771 -0.3968 -3.2686  1.1833
 2723TIP3   OH229583   0.356   5.586  15.740 -0.3876  0.2962  0.4120
 2723TIP3    H129584   0.280   5.554  15.692  0.2740 -1.2806  0.3945
 2723TIP3    H229585   0.405   5.637  15.675 -1.0582  0.7180  0.2340
 2724TIP3   OH229586   6.249   1.649   2.006  0.1864  0.8397  0.0707
 2724TIP3    H129587   6.344   1.662   2.007  0.0725  1.8225 -1.1661
 2724TIP3    H229588   6.219   1.691   2.087  0.8276  0.2455  0.6301
 2725TIP3   OH229589   4.771   2.409  16.941 -0.5891  0.2883 -0.0687
 2725TIP3    H129590   4.837   2.353  16.901 -1.9341 -0.4639 -1.2923
 2725TIP3    H229591   4.732   2.457  16.867 -0.0521  2.2052  0.8603
 2726TIP3   OH229592   0.103   6.738   3.491 -0.3226  0.8608 -0.0674
 2726TIP3    H129593   0.173   6.694   3.539 -1.6060 -1.6472 -0.4297
 2726TIP3    H229594   0.086   6.682   3.416 -2.2085  1.8401 -0.3992
 2727TIP3   OH229595   6.667   5.198   6.133 -0.3448 -0.2453  0.4811
 2727TIP3    H129596   6.626   5.202   6.220 -1.3977 -0.6533  0.0095
 2727TIP3    H229597   6.594   5.198   6.072  0.3934  0.0795 -0.4214
 2728TIP3   OH229598   3.219   3.610  11.286 -0.5868 -0.3064 -0.3892
 2728TIP3    H129599   3.151   3.655  11.236  0.0861  1.3334  0.1299
 2728TIP3    H229600   3.299   3.659  11.267  0.0075 -0.7685  0.8792
 2729TIP3   OH229601   4.166   0.966   4.348  0.5517 -0.4752  0.6250
 2729TIP3    H129602   4.146   0.877   4.376  1.4485 -0.7133  0.5522
 2729TIP3    H229603   4.231   0.955   4.278  0.1806  0.2084  0.1680
 2730TIP3   OH229604   2.160   0.214  12.333  0.2229 -0.1114  0.2241
 2730TIP3    H129605   2.161   0.308  12.351 -1.6583  0.2236 -1.2836
 2730TIP3    H229606   2.170   0.173  12.419  1.7412  1.4376  0.8331
 2731TIP3   OH229607   0.989   0.056   6.092  0.4798  0.1400 -0.3489
 2731TIP3    H129608   0.927   0.115   6.049  2.3130  1.5558 -1.1471
 2731TIP3    H229609   1.010   0.100   6.175 -0.7281 -1.0948  0.6327
 2732TIP3   OH229610   3.277   6.097   4.238  0.0993 -0.0592  0.6202
 2732TIP3    H129611   3.195   6.137   4.210 -0.2558 -0.6325  0.8327
 2732TIP3    H229612   3.253   6.043   4.313  0.5176 -0.8635  0.1839
 2733TIP3   OH229613   0.554   0.039  11.756  0.0536  0.1082 -0.6307
 2733TIP3    H129614   0.481   0.095  11.783  0.6707  1.2492 -1.2650
 2733TIP3    H229615   0.531   0.013  11.667 -0.5494 -1.2028 -0.0986
 2734TIP3   OH229616   3.237   5.069   0.262  0.0037  0.5904 -0.0517
 2734TIP3    H129617   3.266   5.139   0.321 -1.8087 -0.2169  1.8473
 2734TIP3    H229618   3.246   4.989   0.314 -0.0693 -0.3301 -1.4429
 2735TIP3   OH229619   1.537   3.553   1.994 -0.5226 -0.2217 -0.1331
 2735TIP3    H129620   1.481   3.551   1.917  0.8876 -0.6469 -1.1576
 2735TIP3    H229621   1.552   3.461   2.015 -1.5931 -0.1148  1.1694
 2736TIP3   OH229622   1.189   5.266   4.843 -0.1037 -0.0273 -0.1831
 2736TIP3    H129623   1.096   5.247   4.831 -0.3658  1.5569 -0.7494
 2736TIP3    H229624   1.191   5.343   4.900  0.8924 -0.3924  0.3017
 2737TIP3   OH229625   2.625   5.052   2.448 -0.2257  0.0388 -0.0220
 2737TIP3    H129626   2.532   5.070   2.433  0.0266  0.1297 -1.4928
 2737TIP3    H229627   2.665   5.139   2.453  0.0881 -0.0136 -1.4124
 2738TIP3   OH229628   2.825   1.917   4.820 -0.2743 -0.3854  0.1304
 2738TIP3    H129629   2.744   1.952   4.783 -0.9586 -1.5768  0.4710
 2738TIP3    H229630   2.802   1.829   4.851  0.4158  0.3496  2.8767
 2739TIP3   OH229631   1.876   5.090   0.701 -0.5813 -0.0722  0.0001
 2739TIP3    H129632   1.878   5.019   0.637 -0.7961  0.5129 -0.6557
 2739TIP3    H229633   1.872   5.045   0.786 -0.1674 -0.8460 -0.3875
 2740TIP3   OH229634   4.439   3.330  16.981 -0.2101 -0.0304  0.4061
 2740TIP3    H129635   4.498   3.403  16.999 -0.0748 -0.4402  1.6695
 2740TIP3    H229636   4.351   3.364  17.001 -0.3324  0.3140 -0.6651
 2741TIP3   OH229637   2.293   4.072  14.321  0.1660  0.2504 -0.3669
 2741TIP3    H129638   2.377   4.067  14.369  0.1635 -1.4079 -0.5076
 2741TIP3    H229639   2.247   4.145  14.362  1.6554  1.1341 -0.2332
 2742TIP3   OH229640   3.658   2.850  11.064 -0.2866  0.3296 -0.2893
 2742TIP3    H129641   3.720   2.884  11.129  2.0990  1.3265 -2.9734
 2742TIP3    H229642   3.685   2.760  11.049 -2.6396 -0.8539  2.1207
 2743TIP3   OH229643   0.881   0.397  14.575  0.0226 -0.5019  0.1407
 2743TIP3    H129644   0.969   0.381  14.540  0.0445 -0.3644  0.1294
 2743TIP3    H229645   0.893   0.394  14.670  0.0783 -0.2839  0.1411
 2744TIP3   OH229646   5.073   5.802  16.719  0.2954 -0.0503 -0.0577
 2744TIP3    H129647   4.979   5.819  16.717 -0.1195 -1.9579  1.8146
 2744TIP3    H229648   5.092   5.780  16.810  2.2969 -1.0499 -0.6866
 2745TIP3   OH229649   5.226   2.305   2.287 -0.2195  0.2820 -0.1801
 2745TIP3    H129650   5.284   2.352   2.227 -0.7763 -0.3585 -1.2466
 2745TIP3    H229651   5.244   2.343   2.373  1.5024  0.3446 -0.5552
 2746TIP3   OH229652   4.155   2.827   4.626 -0.1184 -0.1062  0.2846
 2746TIP3    H129653   4.220   2.859   4.688 -0.6445 -0.0856  0.8389
 2746TIP3    H229654   4.201   2.822   4.543  0.9095 -1.2242  0.9103
 2747TIP3   OH229655   1.245   3.129   2.907 -0.2672  0.4609  0.5453
 2747TIP3    H129656   1.246   3.116   2.812  0.8177 -1.0444  0.7451
 2747TIP3    H229657   1.159   3.095   2.934 -0.0234 -0.4045  0.2643
 2748TIP3   OH229658   6.447   0.470  14.114  0.3548  0.1911 -0.0615
 2748TIP3    H129659   6.478   0.504  14.030  1.2331 -1.8132 -0.5863
 2748TIP3    H229660   6.489   0.385  14.122 -0.5600 -0.1032  1.9320
 2749TIP3   OH229661   3.296   2.245  17.090 -0.2302 -0.3031 -0.3071
 2749TIP3    H129662   3.261   2.332  17.112 -0.0962 -0.0621 -1.0562
 2749TIP3    H229663   3.382   2.263  17.054 -1.0491 -0.5935 -2.4412
 2750TIP3   OH229664   5.643   1.460   4.966  0.2867  0.1791 -0.0227
 2750TIP3    H129665   5.695   1.474   4.887 -0.5654  0.3715 -0.5482
 2750TIP3    H229666   5.643   1.546   5.009  1.8512 -0.2396  0.8723
 2751TIP3   OH229667   0.692   3.885   5.094  0.7838  0.4466 -0.2003
 2751TIP3    H129668   0.680   3.806   5.041  0.4181  0.6745 -0.4607
 2751TIP3    H229669   0.731   3.854   5.175  0.0610 -0.0830 -0.0473
 2752TIP3   OH229670   4.036   1.521  14.393 -0.6429  0.3638 -0.1018
 2752TIP3    H129671   3.945   1.491  14.384 -0.5341 -0.6633  1.8032
 2752TIP3    H229672   4.088   1.450  14.358 -0.5890  1.5901 -2.5930
 2753TIP3   OH229673   2.687   5.464  16.102 -0.0750  0.3483 -0.1394
 2753TIP3    H129674   2.675   5.370  16.117  1.5298  0.4103  1.7573
 2753TIP3    H229675   2.615   5.505  16.148  0.9712  0.1835  1.6726
 2754TIP3   OH229676   5.117   6.210   4.946 -0.3212  0.2325  0.2895
 2754TIP3    H129677   5.066   6.202   4.866 -1.2235 -0.3967  0.9160
 2754TIP3    H229678   5.115   6.303   4.966  0.5683  0.4992 -0.8414
 2755TIP3   OH229679   0.177   5.383  13.502  0.6948 -0.1797  0.2983
 2755TIP3    H129680   0.197   5.455  13.442  2.2277 -0.6383  0.2497
 2755TIP3    H229681   0.184   5.304  13.449 -1.1092 -0.3692  0.3233
 2756TIP3   OH229682   1.811   5.797   5.206  0.4635 -0.4139 -0.0447
 2756TIP3    H129683   1.829   5.783   5.299  0.4761  0.2360  0.0519
 2756TIP3    H229684   1.748   5.729   5.183 -2.7251  1.9309  1.4510
 2757TIP3   OH229685   1.272   1.620  11.586 -0.2110  0.0331  0.0260
 2757TIP3    H129686   1.301   1.671  11.511  0.6250 -0.4123  0.0390
 2757TIP3    H229687   1.183   1.649  11.603 -0.6804 -0.4208 -1.6382
 2758TIP3   OH229688   6.291   2.406   0.619  0.2158 -0.1374 -0.5349
 2758TIP3    H129689   6.213   2.396   0.565 -0.2960  2.3825 -0.3353
 2758TIP3    H229690   6.295   2.500   0.639  3.9263  0.0177 -1.5028
 2759TIP3   OH229691   1.591   4.217  16.913 -0.1118  0.0232 -0.1063
 2759TIP3    H129692   1.542   4.299  16.923  0.5903  0.2631  1.5986
 2759TIP3    H229693   1.545   4.155  16.970  0.5364 -0.2082  0.1717
 2760TIP3   OH229694   2.778   5.284  16.988  0.0963  0.3812  0.1853
 2760TIP3    H129695   2.704   5.293  17.048 -0.6186  2.2388 -0.9184
 2760TIP3    H229696   2.744   5.232  16.915  0.1723  0.4118  0.1263
 2761TIP3   OH229697   1.861   6.071   0.756 -0.9522  0.4502  0.1749
 2761TIP3    H129698   1.900   5.986   0.734  0.0934  0.8510  0.4705
 2761TIP3    H229699   1.906   6.098   0.836 -0.8512  1.5626 -0.2496
 2762TIP3   OH229700   2.100   2.473  10.929 -0.0556  0.3504 -0.2274
 2762TIP3    H129701   2.123   2.388  10.894  0.0108  0.9042 -1.5739
 2762TIP3    H229702   2.043   2.512  10.862 -1.6228  0.6082  1.2129
 2763TIP3   OH229703   2.847   1.606  16.070  0.0364 -0.5363  0.1249
 2763TIP3    H129704   2.878   1.552  15.997 -1.8281 -2.2146  0.5327
 2763TIP3    H229705   2.926   1.651  16.101  1.6222 -2.8388 -0.3953
 2764TIP3   OH229706   0.712   6.630   3.312 -0.3315  0.0249 -0.0824
 2764TIP3    H129707   0.791   6.627   3.367 -0.7368 -0.1889  0.4994
 2764TIP3    H229708   0.706   6.542   3.275  0.6802  0.5446 -1.5475
 2765TIP3   OH229709   5.850   4.030   6.074 -0.4157  0.2799 -0.8147
 2765TIP3    H129710   5.946   4.030   6.076 -0.4117  1.9990 -0.1611
 2765TIP3    H229711   5.826   4.117   6.106 -2.2304 -0.8301  0.9499
 2766TIP3   OH229712   3.430   4.430  14.627  0.4568  0.1979 -0.0257
 2766TIP3    H129713   3.464   4.505  14.677  1.5574 -0.1164 -0.2844
 2766TIP3    H229714   3.420   4.463  14.538  0.2322  0.2459  0.0165
 2767TIP3   OH229715   4.255   5.490  14.295  0.6849  0.0842  0.0541
 2767TIP3    H129716   4.296   5.572  14.267  0.8856  0.0416  0.2270
 2767TIP3    H229717   4.206   5.461  14.218 -0.5645  1.1025  0.4427
 2768TIP3   OH229718   0.708   2.767   0.871 -0.8857  0.2921 -0.1221
 2768TIP3    H129719   0.721   2.679   0.908 -0.5507  0.7335  0.8113
 2768TIP3    H229720   0.631   2.757   0.814 -0.7020 -0.6645 -0.2120
 2769TIP3   OH229721   0.350   0.379   5.944 -0.6298 -0.9895  0.8410
 2769TIP3    H129722   0.306   0.354   6.025 -1.2395 -1.2616  0.4240
 2769TIP3    H229723   0.282   0.377   5.877 -0.4877  0.7972  0.6133
 2770TIP3   OH229724   0.899   6.124  14.309  0.1134  0.0007 -0.5208
 2770TIP3    H129725   0.888   6.195  14.245  0.8765  1.6285  1.1060
 2770TIP3    H229726   0.927   6.168  14.389 -2.4408 -1.8086  1.4467
 2771TIP3   OH229727   3.752   3.609   3.994 -0.0848 -0.4489  0.1913
 2771TIP3    H129728   3.735   3.646   4.080  1.7175 -0.8001  0.7156
 2771TIP3    H229729   3.695   3.532   3.989 -0.4478 -0.2298  0.9170
 2772TIP3   OH229730   2.065   6.229   3.873 -0.0805 -0.4648 -0.7248
 2772TIP3    H129731   2.137   6.216   3.811 -0.2907 -2.5094 -0.5648
 2772TIP3    H229732   2.104   6.211   3.959 -0.5851 -0.7959 -0.5622
 2773TIP3   OH229733   2.169   3.944   3.697 -0.2132  0.1825  0.0409
 2773TIP3    H129734   2.138   3.994   3.773 -1.3182  1.2505 -1.0884
 2773TIP3    H229735   2.089   3.921   3.650  0.5763  1.0007 -1.7077
 2774TIP3   OH229736   0.400   4.409  12.819 -0.0752  0.0231 -0.2271
 2774TIP3    H129737   0.341   4.397  12.744  0.3930 -0.4866 -0.5168
 2774TIP3    H229738   0.456   4.482  12.794  0.9000 -0.9417 -0.9017
 2775TIP3   OH229739   3.130   4.360   6.343 -0.2241  0.0465 -0.3186
 2775TIP3    H129740   3.048   4.360   6.293 -2.4680  0.2242  3.1755
 2775TIP3    H229741   3.167   4.447   6.327  0.2783 -0.6530 -3.3460
 2776TIP3   OH229742   3.693   6.622  16.847  0.3775 -0.4794  0.0316
 2776TIP3    H129743   3.755   6.601  16.917 -0.4761  0.3996  1.0686
 2776TIP3    H229744   3.668   6.713  16.863  0.5360 -0.0977 -1.7164
 2777TIP3   OH229745   1.070   2.246   2.820 -0.3462 -0.3558 -0.0346
 2777TIP3    H129746   1.155   2.212   2.792  0.8853 -0.5560  3.5904
 2777TIP3    H229747   1.007   2.179   2.794  0.7925 -0.8845 -1.4837
 2778TIP3   OH229748   2.140   3.001   3.999 -0.0355 -0.2184  0.4161
 2778TIP3    H129749   2.178   3.002   4.086 -1.0089  0.0385  0.8459
 2778TIP3    H229750   2.077   3.073   3.998  0.5887  0.3248 -0.7822
 2779TIP3   OH229751   6.296   0.863   4.794  0.9799 -0.2559 -0.0540
 2779TIP3    H129752   6.291   0.855   4.698 -0.3741 -0.7032  0.0505
 2779TIP3    H229753   6.328   0.778   4.823 -2.2343 -1.4723  0.1546
 2780TIP3   OH229754   1.186   1.612  13.573  0.6194  0.0536  0.1861
 2780TIP3    H129755   1.179   1.521  13.542  1.5095 -0.0822  0.3632
 2780TIP3    H229756   1.235   1.605  13.655  3.0506  0.9599 -1.1499
 2781TIP3   OH229757   3.482   1.135   0.565  0.3784  0.3000 -0.7404
 2781TIP3    H129758   3.563   1.143   0.514 -0.1923 -1.5111 -2.0086
 2781TIP3    H229759   3.433   1.065   0.521 -1.2781  0.4388  0.8102
 2782TIP3   OH229760   0.518   3.414   0.110  0.1744  0.6578  0.4753
 2782TIP3    H129761   0.462   3.488   0.133  1.2657  2.4017 -2.2790
 2782TIP3    H229762   0.607   3.447   0.119  0.6712 -0.3266 -0.6865
 2783TIP3   OH229763   4.406   2.133   6.174  0.2454  0.0014 -0.1476
 2783TIP3    H129764   4.492   2.102   6.146  0.2342  1.1846 -1.5258
 2783TIP3    H229765   4.344   2.071   6.136  0.4528 -0.4802  0.3030
 2784TIP3   OH229766   2.293   1.381   5.712  0.2613 -0.2078 -0.0211
 2784TIP3    H129767   2.341   1.304   5.743 -0.0488 -0.2677  0.3068
 2784TIP3    H229768   2.319   1.451   5.772 -2.2684 -0.8944  1.9242
 2785TIP3   OH229769   4.610   2.919  16.504 -0.1752 -0.1020  0.0617
 2785TIP3    H129770   4.685   2.890  16.555 -0.9172  0.8857  1.7975
 2785TIP3    H229771   4.615   3.015  16.506 -1.1742 -0.0332 -0.2491
 2786TIP3   OH229772   1.077   6.341  14.771 -0.4518  0.3909 -0.1563
 2786TIP3    H129773   1.167   6.322  14.795 -0.3004 -1.6687 -2.1500
 2786TIP3    H229774   1.081   6.426  14.726  0.5171  0.2241 -0.3840
 2787TIP3   OH229775   4.690   0.084  13.872 -0.1760  0.4215 -0.1222
 2787TIP3    H129776   4.752   0.015  13.896 -0.0278  0.4778 -0.3383
 2787TIP3    H229777   4.623   0.082  13.941 -0.2440 -0.0266 -0.2015
 2788TIP3   OH229778   2.933   2.231  13.739 -0.9027  0.2883  0.1478
 2788TIP3    H129779   2.842   2.253  13.760 -1.1627 -1.2053  0.6472
 2788TIP3    H229780   2.939   2.244  13.644 -1.5240  0.7622  0.1661
 2789TIP3   OH229781   0.974   6.610  12.220 -0.2405  0.2718  0.0410
 2789TIP3    H129782   1.008   6.596  12.132 -0.7040  3.1839 -0.6521
 2789TIP3    H229783   0.880   6.592  12.213 -0.3740  1.0539 -0.1988
 2790TIP3   OH229784   5.093   5.685   3.156 -0.4424 -0.6924  0.2744
 2790TIP3    H129785   5.115   5.642   3.073 -0.2431  0.9599 -0.5385
 2790TIP3    H229786   5.134   5.771   3.150 -0.6477 -0.4697  1.9923
 2791TIP3   OH229787   1.889   3.935  15.748 -0.5567  0.3548  0.0213
 2791TIP3    H129788   1.978   3.906  15.768  0.4417  3.2138 -0.0011
 2791TIP3    H229789   1.895   3.970  15.659 -1.8071  0.1038 -0.1652
 2792TIP3   OH229790   3.658   2.824   4.013  0.3267 -0.2084  0.1991
 2792TIP3    H129791   3.654   2.852   3.922  0.0959  0.3367  0.3752
 2792TIP3    H229792   3.751   2.815   4.031  0.3758 -0.2352 -0.0666
 2793TIP3   OH229793   0.358   5.653  11.804 -0.2147 -0.2238  0.6825
 2793TIP3    H129794   0.381   5.570  11.845 -0.5960 -0.9033 -0.4456
 2793TIP3    H229795   0.265   5.644  11.782  0.5204 -0.8994 -2.5559
 2794TIP3   OH229796   1.466   1.073  15.961 -0.1861 -0.6904 -0.3322
 2794TIP3    H129797   1.553   1.041  15.983  0.4698  0.0443 -1.8013
 2794TIP3    H229798   1.447   1.138  16.028 -0.8732 -2.9454  1.7449
 2795TIP3   OH229799   5.936   1.083   3.454  0.1803  0.2103 -0.1114
 2795TIP3    H129800   6.007   1.025   3.425  0.5435  1.3432 -1.5489
 2795TIP3    H229801   5.940   1.157   3.394 -2.3640  0.1916 -0.3304
 2796TIP3   OH229802   0.258   5.928   3.911  0.0688  0.3105  0.5293
 2796TIP3    H129803   0.243   5.933   3.816 -0.3630  0.1201  0.5877
 2796TIP3    H229804   0.172   5.908   3.948  0.2156  0.5016  0.9734
 2797TIP3   OH229805   2.865   2.580   1.565 -0.5676 -0.2151  0.0327
 2797TIP3    H129806   2.897   2.523   1.634  1.0067 -0.4651 -0.8630
 2797TIP3    H229807   2.910   2.550   1.486 -2.3612  0.0287 -1.1222
 2798TIP3   OH229808   5.330   0.412  11.918 -0.1656 -0.0652  0.2297
 2798TIP3    H129809   5.318   0.484  11.856 -3.0750 -0.3110  0.4568
 2798TIP3    H229810   5.367   0.454  11.996  2.7458  0.3709 -1.3112
 2799TIP3   OH229811   4.663   5.723  11.891 -0.8482  0.3431 -0.3735
 2799TIP3    H129812   4.655   5.655  11.824 -1.8610 -0.1438  0.2270
 2799TIP3    H229813   4.690   5.801  11.842 -3.4817  0.5046 -1.6931
 2800TIP3   OH229814   2.489   6.465   5.581  0.1060  0.1088 -0.0982
 2800TIP3    H129815   2.405   6.451   5.539  0.1045 -0.3799  0.0576
 2800TIP3    H229816   2.532   6.533   5.529 -0.7751  1.0480  0.3955
 2801TIP3   OH229817   3.953   1.751  14.563  0.5393 -0.9290 -0.2840
 2801TIP3    H129818   3.990   1.825  14.516 -0.7541 -0.5785 -0.7686
 2801TIP3    H229819   3.955   1.678  14.500  0.5067 -0.9346 -0.2805
 2802TIP3   OH229820   1.759   3.334   6.064  0.2770 -0.0946  0.2842
 2802TIP3    H129821   1.727   3.246   6.046  1.2375 -0.5761  0.9000
 2802TIP3    H229822   1.750   3.381   5.981 -1.0198 -0.5263  0.1827
 2803TIP3   OH229823   4.834   5.819  12.819 -0.3153  0.1757 -0.0460
 2803TIP3    H129824   4.761   5.803  12.759  0.6910 -1.4837 -0.8723
 2803TIP3    H229825   4.890   5.882  12.773 -0.2553 -0.0325 -0.2620
 2804TIP3   OH229826   1.328   4.887   4.763  0.2685  0.0901  1.0659
 2804TIP3    H129827   1.400   4.887   4.700 -0.7975  0.2193 -0.1697
 2804TIP3    H229828   1.328   4.976   4.799 -1.4846  1.1939 -1.5310
 2805TIP3   OH229829   1.783   4.579   5.519  0.0576  0.1773 -0.1669
 2805TIP3    H129830   1.787   4.512   5.587 -1.8587 -0.9817 -1.1630
 2805TIP3    H229831   1.875   4.606   5.506  0.5284 -0.1827  2.2505
 2806TIP3   OH229832   1.954   0.447  15.481  0.1647 -1.1430 -0.4027
 2806TIP3    H129833   2.036   0.478  15.441  0.0483 -0.6833 -0.2787
 2806TIP3    H229834   1.953   0.486  15.568 -0.3249 -0.9242 -0.5060
 2807TIP3   OH229835   3.644   6.533   6.547 -0.4273 -0.3451  0.4892
 2807TIP3    H129836   3.552   6.513   6.531 -0.5551  0.0760  0.6861
 2807TIP3    H229837   3.683   6.448   6.570 -0.8067 -0.4956  0.5882
 2808TIP3   OH229838   1.920   2.418   4.387 -0.2173 -0.2107  0.2001
 2808TIP3    H129839   1.941   2.495   4.334  2.2112  1.0358  2.8063
 2808TIP3    H229840   2.005   2.385   4.416 -1.3886 -1.8669  1.8770
 2809TIP3   OH229841   2.643   0.482   2.362 -0.4888 -0.0022  0.5069
 2809TIP3    H129842   2.639   0.420   2.290 -1.6171  0.4179  0.2063
 2809TIP3    H229843   2.642   0.568   2.321 -2.4965  0.2554  1.0709
 2810TIP3   OH229844   4.900   4.341   0.797 -0.4581 -0.3904  0.1386
 2810TIP3    H129845   4.805   4.333   0.796 -0.3715 -1.4191  0.2619
 2810TIP3    H229846   4.916   4.436   0.796 -1.4965 -0.1693  2.0718
 2811TIP3   OH229847   4.965   4.024   5.994 -0.0508 -0.0196 -0.0614
 2811TIP3    H129848   4.902   4.095   5.984 -2.9193 -2.2166  1.8994
 2811TIP3    H229849   4.943   3.962   5.925  0.3629 -0.5236  0.2537
 2812TIP3   OH229850   2.074   2.419   1.289  0.1375 -0.4252  0.3566
 2812TIP3    H129851   2.056   2.469   1.369 -0.5110  0.3207 -0.2510
 2812TIP3    H229852   2.139   2.471   1.242 -1.8313  0.7711 -1.1212
 2813TIP3   OH229853   3.325   5.770   2.639  0.4602 -0.2862  0.8403
 2813TIP3    H129854   3.320   5.675   2.629  0.8738 -0.2277  0.0177
 2813TIP3    H229855   3.411   5.786   2.680  1.7930 -0.0803 -1.8933
 2814TIP3   OH229856   1.106   4.196  13.220 -0.6182 -0.1027 -0.4309
 2814TIP3    H129857   1.058   4.115  13.202 -0.0539 -0.3583 -0.8002
 2814TIP3    H229858   1.061   4.235  13.296 -1.0052 -0.6642 -0.3715
 2815TIP3   OH229859   5.818   3.896   2.059 -0.3697 -0.3572 -0.0699
 2815TIP3    H129860   5.817   3.985   2.022 -2.5410  0.6329  2.2109
 2815TIP3    H229861   5.817   3.838   1.983  0.3052  1.5522 -1.5871
 2816TIP3   OH229862   0.327   5.088  16.005  0.1050  0.8389 -0.2951
 2816TIP3    H129863   0.297   5.158  15.947 -0.6421  0.6682 -0.1238
 2816TIP3    H229864   0.359   5.020  15.947  0.2798  1.0761 -0.4780
 2817TIP3   OH229865   0.365   0.468  15.211  0.1928  0.1836 -0.0137
 2817TIP3    H129866   0.376   0.517  15.293  0.9394  0.4904 -0.2969
 2817TIP3    H229867   0.414   0.387  15.225 -2.6022 -1.3799  1.1836
 2818TIP3   OH229868   5.867   5.145  11.983 -0.4150  0.0181  0.2437
 2818TIP3    H129869   5.867   5.173  11.892  0.4546  0.4165  0.3625
 2818TIP3    H229870   5.775   5.125  12.002 -0.5586 -0.3431 -0.7953
 2819TIP3   OH229871   2.858   0.704  14.735  0.0925 -0.0183  0.2301
 2819TIP3    H129872   2.790   0.638  14.722  0.0706  0.1542 -0.5432
 2819TIP3    H229873   2.820   0.785  14.700 -0.0048  0.4777  1.4632
 2820TIP3   OH229874   4.399   4.535   3.562  0.3593 -0.0641 -0.1722
 2820TIP3    H129875   4.477   4.589   3.547  1.6449 -1.2975  1.8256
 2820TIP3    H229876   4.378   4.549   3.654 -0.6877 -1.1789 -0.2389
 2821TIP3   OH229877   3.352   0.812   0.886 -0.0315  0.4382  0.0269
 2821TIP3    H129878   3.426   0.752   0.874 -0.0775  0.2510  0.6886
 2821TIP3    H229879   3.299   0.801   0.807 -0.6477 -1.2489  0.6643
 2822TIP3   OH229880   5.426   5.336  11.445 -0.2141  0.1098  0.1088
 2822TIP3    H129881   5.400   5.269  11.508 -1.6014  1.1121  0.6184
 2822TIP3    H229882   5.433   5.417  11.496 -0.3440  0.7312 -0.8345
 2823TIP3   OH229883   5.434   3.320   5.132 -0.2272  0.2045  0.0412
 2823TIP3    H129884   5.391   3.395   5.091  0.0030 -0.1456 -0.8604
 2823TIP3    H229885   5.407   3.324   5.223 -1.4176  0.5374 -0.3133
 2824TIP3   OH229886   5.158   6.496   5.064 -0.1431 -0.4991 -0.3098
 2824TIP3    H129887   5.249   6.524   5.065 -0.4294  0.4496  1.1471
 2824TIP3    H229888   5.111   6.568   5.023 -0.5954  0.2760  1.5019
 2825TIP3   OH229889   4.718   4.480   3.024  0.5198  0.2973  0.4115
 2825TIP3    H129890   4.663   4.454   3.098  1.0938 -0.0853  0.7056
 2825TIP3    H229891   4.747   4.568   3.045 -1.8794  1.4397 -0.8407
 2826TIP3   OH229892   0.732   3.007  11.823  0.5829  0.2758 -0.4359
 2826TIP3    H129893   0.680   2.945  11.874  1.8106 -1.3164 -1.1009
 2826TIP3    H229894   0.679   3.025  11.745  0.1828  0.1381 -0.1962
 2827TIP3   OH229895   4.093   6.615   4.093 -0.2502 -0.3829  0.4504
 2827TIP3    H129896   4.069   6.645   4.006 -0.8639 -1.1232  0.3551
 2827TIP3    H229897   4.188   6.599   4.088 -0.7528 -3.2232 -0.9530
 2828TIP3   OH229898   0.894   2.616   5.353  0.4654 -0.3517 -0.2027
 2828TIP3    H129899   0.883   2.702   5.313  1.4625 -0.0230  0.2145
 2828TIP3    H229900   0.924   2.560   5.281  0.4767 -0.1902 -0.3245
 2829TIP3   OH229901   0.208   1.940  13.688  0.6873  0.0995  0.4485
 2829TIP3    H129902   0.120   1.969  13.662  0.7649 -1.7504 -2.0879
 2829TIP3    H229903   0.193   1.878  13.759 -0.0227  0.1376  0.3368
 2830TIP3   OH229904   6.671   0.436   1.021  0.1993 -0.1501  0.1765
 2830TIP3    H129905   6.708   0.386   0.948  0.3786 -0.1579  0.2720
 2830TIP3    H229906   6.639   0.517   0.982 -0.1688 -0.3787  0.0074
 2831TIP3   OH229907   3.936   3.817   6.506  0.1277 -0.6630  0.4730
 2831TIP3    H129908   3.900   3.854   6.586 -0.1474 -1.1971  0.5958
 2831TIP3    H229909   4.022   3.782   6.531  0.1903 -0.5211  0.4567
 2832TIP3   OH229910   3.905   1.151  10.340 -0.5322  0.1828 -0.0739
 2832TIP3    H129911   3.964   1.224  10.361  1.3903 -1.4468  0.3600
 2832TIP3    H229912   3.836   1.190  10.287  2.7222  1.5988 -3.5079
 2833TIP3   OH229913   5.463   4.630  14.911 -0.1391  0.2290 -0.3776
 2833TIP3    H129914   5.477   4.573  14.986 -0.8529  0.6230  0.0586
 2833TIP3    H229915   5.533   4.695  14.916 -1.0474  1.1380  0.7906
 2834TIP3   OH229916   1.884   0.377  13.425 -0.4354  0.1652  0.2760
 2834TIP3    H129917   1.924   0.292  13.407 -0.2873  0.4008 -0.5136
 2834TIP3    H229918   1.903   0.430  13.348  0.1973  1.1834  1.1092
 2835TIP3   OH229919   3.184   4.682  16.359  0.2092 -0.3372  0.3771
 2835TIP3    H129920   3.253   4.726  16.408  0.4838 -0.4029  0.0528
 2835TIP3    H229921   3.112   4.746  16.356  0.4480 -0.0723  0.2682
 2836TIP3   OH229922   2.948   3.960  14.628  0.2570  0.0499 -0.2174
 2836TIP3    H129923   2.955   3.934  14.536 -1.8228 -0.4840 -0.2659
 2836TIP3    H229924   2.958   4.055  14.628  1.2518 -0.0604 -0.8781
 2837TIP3   OH229925   1.488   3.475  11.995  0.4037  0.0928 -0.2197
 2837TIP3    H129926   1.577   3.507  12.011  0.6058 -0.6533  0.1702
 2837TIP3    H229927   1.477   3.403  12.057  0.2951 -1.2215 -1.7624
 2838TIP3   OH229928   0.096   5.816   4.379 -0.0888  0.2532  0.4782
 2838TIP3    H129929   0.011   5.856   4.396 -0.6276 -0.6046 -0.1170
 2838TIP3    H229930   0.074   5.732   4.337  1.1052  1.3417 -2.4585
 2839TIP3   OH229931   3.353   0.164  14.769  0.1556 -0.1508 -0.0324
 2839TIP3    H129932   3.263   0.170  14.801 -0.7512  2.0268 -2.7441
 2839TIP3    H229933   3.377   0.255  14.751  2.5404 -0.8212 -0.3572
 2840TIP3   OH229934   1.230   5.426   5.813 -0.7826 -0.1388  0.6387
 2840TIP3    H129935   1.323   5.405   5.825 -1.3771 -1.4763  3.4951
 2840TIP3    H229936   1.215   5.416   5.719  2.0115  0.3775  0.0854
 2841TIP3   OH229937   0.440   5.675  11.396 -0.3555 -0.1902  0.1501
 2841TIP3    H129938   0.493   5.653  11.473  1.1616  1.9407 -0.2267
 2841TIP3    H229939   0.479   5.623  11.325  0.4443  0.4066  0.1405
 2842TIP3   OH229940   3.452   5.862  15.228 -0.1147  0.2681 -0.3580
 2842TIP3    H129941   3.396   5.784  15.221 -0.3847  0.5738 -1.8594
 2842TIP3    H229942   3.505   5.860  15.148 -1.0466  2.3267 -1.0500
 2843TIP3   OH229943   4.524   6.274  13.434 -0.4103 -0.4820  0.0461
 2843TIP3    H129944   4.618   6.271  13.452 -0.5604 -0.0268  0.9735
 2843TIP3    H229945   4.516   6.255  13.341  0.8074  2.1242 -0.6364
 2844TIP3   OH229946   4.070   1.826   5.245 -0.4263  0.3891  0.1441
 2844TIP3    H129947   4.091   1.828   5.152 -1.3189  2.2629 -0.0434
 2844TIP3    H229948   4.143   1.871   5.287 -1.6400  2.5837 -0.0209
 2845TIP3   OH229949   1.523   6.057  15.412  0.0225  0.2839  0.4111
 2845TIP3    H129950   1.483   6.031  15.495 -0.4054 -3.2755 -0.8153
 2845TIP3    H229951   1.448   6.082  15.357 -0.0480 -0.7590  0.0080
 2846TIP3   OH229952   4.014   6.242   0.569 -0.0465  0.0951 -0.2305
 2846TIP3    H129953   3.944   6.176   0.572  0.8177 -0.7949  2.3211
 2846TIP3    H229954   4.010   6.278   0.481 -4.1643  0.5700  0.0599
 2847TIP3   OH229955   0.408   0.204   5.138  0.0631 -0.1124 -0.2014
 2847TIP3    H129956   0.492   0.166   5.111  0.8017  0.0652  1.7787
 2847TIP3    H229957   0.360   0.130   5.174 -0.5322 -0.1586 -1.0856
 2848TIP3   OH229958   6.296   3.103  12.688 -0.0510 -0.1444 -0.4041
 2848TIP3    H129959   6.283   3.018  12.730 -1.2497 -1.1114 -2.6549
 2848TIP3    H229960   6.215   3.152  12.706 -0.5149 -0.5145 -1.4174
 2849TIP3   OH229961   1.169   0.917  15.544 -0.3076 -0.3259 -0.4636
 2849TIP3    H129962   1.101   0.982  15.527  0.8214  1.3807  1.4331
 2849TIP3    H229963   1.170   0.907  15.639  0.2932 -2.3231 -0.6452
 2850TIP3   OH229964   2.245   2.191  14.818  0.0438 -0.1032 -0.4523
 2850TIP3    H129965   2.252   2.127  14.889  0.5038 -0.9694 -1.2758
 2850TIP3    H229966   2.151   2.201  14.804 -0.0178 -0.8954 -0.5986
 2851TIP3   OH229967   1.853   4.886  10.604  0.5806 -0.6968 -0.3078
 2851TIP3    H129968   1.781   4.904  10.544  0.9576 -0.8890 -0.8217
 2851TIP3    H229969   1.811   4.873  10.689  0.0768  0.0001 -0.4401
 2852TIP3   OH229970   1.877   1.958  15.502 -0.0833 -0.1610  0.0348
 2852TIP3    H129971   1.899   1.866  15.490  1.0628  0.1465 -0.2816
 2852TIP3    H229972   1.961   2.004  15.497 -0.4227  0.7248  1.8960
 2853TIP3   OH229973   4.349   5.682  13.151  0.5966 -0.4732 -0.1608
 2853TIP3    H129974   4.354   5.719  13.063 -1.3696 -0.3548 -0.2472
 2853TIP3    H229975   4.361   5.757  13.209 -2.0751  0.1252 -0.3387
 2854TIP3   OH229976   4.829   3.293   2.847 -0.0263  1.0185  0.0192
 2854TIP3    H129977   4.859   3.293   2.938 -1.9887  0.6948  0.6848
 2854TIP3    H229978   4.860   3.209   2.812  1.9491  1.7583 -0.0399
 2855TIP3   OH229979   0.117   5.048  14.923  0.2753  0.3337 -0.0185
 2855TIP3    H129980   0.148   5.030  15.012  1.5664 -1.1506 -0.7228
 2855TIP3    H229981   0.023   5.061  14.932  0.3313 -0.2292  1.5205
 2856TIP3   OH229982   0.744   0.004   5.560  0.0339  0.0510  1.3863
 2856TIP3    H129983   0.795   0.079   5.590 -0.0653  0.2787  0.9786
 2856TIP3    H229984   0.807  -0.069   5.560  0.5413  0.4787  0.2078
 2857TIP3   OH229985   0.238   4.799   0.728 -0.4382  0.2744 -0.5775
 2857TIP3    H129986   0.236   4.875   0.785 -0.0362 -0.6299  0.6821
 2857TIP3    H229987   0.147   4.775   0.715 -0.5568  0.8510 -0.8418
 2858TIP3   OH229988   5.346   0.530  15.453 -0.8235  0.3955  0.0176
 2858TIP3    H129989   5.319   0.554  15.365 -2.9241  1.0230  0.7980
 2858TIP3    H229990   5.441   0.526  15.449 -0.5537  5.0410 -1.1413
 2859TIP3   OH229991   5.576   0.101   2.860 -0.3993  0.2002 -0.0313
 2859TIP3    H129992   5.532   0.186   2.865 -2.4643 -0.7530 -1.5523
 2859TIP3    H229993   5.625   0.104   2.778  1.5678  0.8445  1.1336
 2860TIP3   OH229994   3.289   4.636  12.301  0.4473  0.2789 -0.2930
 2860TIP3    H129995   3.201   4.604  12.281 -0.3705  3.1073 -1.5027
 2860TIP3    H229996   3.335   4.633  12.217  1.0181  0.2125  0.0214
 2861TIP3   OH229997   6.507   0.622  16.926  0.0248 -0.3670  0.3986
 2861TIP3    H129998   6.453   0.621  17.005  0.6827 -0.4922  0.8530
 2861TIP3    H229999   6.595   0.639  16.957 -0.2322  3.3687 -0.6599
 2862TIP3   OH230000   5.128   2.593  16.771  0.6324 -0.1037  0.7677
 2862TIP3    H130001   5.102   2.671  16.722  1.3471  0.5391  1.3889
 2862TIP3    H230002   5.074   2.596  16.850 -0.6954 -1.2704 -0.0859
 2863TIP3   OH230003   5.326   2.538   4.102 -0.3087 -0.0674  0.4487
 2863TIP3    H130004   5.279   2.482   4.163  0.5335  0.0485  1.2178
 2863TIP3    H230005   5.365   2.606   4.157  0.2330  0.1918 -0.2454
 2864TIP3   OH230006   3.092   5.027   5.336  0.3272 -0.0719 -1.1471
 2864TIP3    H130007   3.057   5.111   5.309 -0.2634 -0.4951 -1.7226
 2864TIP3    H230008   3.016   4.979   5.370  0.7031 -0.2750 -0.5836
 2865TIP3   OH230009   0.634   1.057   0.040  0.6063 -0.2960 -0.7109
 2865TIP3    H130010   0.574   1.077  -0.031  0.2197 -1.0526 -0.6001
 2865TIP3    H230011   0.619   1.126   0.105 -2.9124 -2.5735  1.0434
 2866TIP3   OH230012   5.667   4.913  14.139  0.1875 -0.3552 -0.4027
 2866TIP3    H130013   5.607   4.940  14.209  1.3157 -0.9763  0.8300
 2866TIP3    H230014   5.616   4.852  14.086 -0.4961 -0.3450  0.2307
 2867TIP3   OH230015   6.365   1.067   0.235  0.2369  0.0169 -0.3103
 2867TIP3    H130016   6.399   1.090   0.321  1.1504  0.4945 -0.7816
 2867TIP3    H230017   6.354   1.151   0.190  2.2963 -0.3476 -1.5660
 2868TIP3   OH230018   0.107   6.692   4.907  0.4179  0.4789  0.0142
 2868TIP3    H130019   0.102   6.667   4.814 -0.4799  0.9719 -0.0762
 2868TIP3    H230020   0.155   6.775   4.906 -0.1729  0.8258 -0.0825
 2869TIP3   OH230021   6.479   2.499  12.499  0.4068  0.1075 -0.3664
 2869TIP3    H130022   6.495   2.573  12.439 -0.1079  2.7903  2.6763
 2869TIP3    H230023   6.561   2.487  12.545 -0.2621  0.5024  0.9545
 2870TIP3   OH230024   4.876   0.887   3.701 -0.1215 -0.3131 -0.3757
 2870TIP3    H130025   4.851   0.967   3.655  1.6828 -0.4244 -1.6183
 2870TIP3    H230026   4.894   0.915   3.790  1.6121  0.8974 -1.0898
 2871TIP3   OH230027   5.861   3.643   1.700  0.2503 -0.0605 -0.2278
 2871TIP3    H130028   5.930   3.619   1.762 -0.4649  0.1311  0.6491
 2871TIP3    H230029   5.879   3.591   1.622  1.1737 -0.2814  0.1285
 2872TIP3   OH230030   4.192   0.496   0.901 -0.6336  0.0219  0.2871
 2872TIP3    H130031   4.136   0.433   0.856 -1.7014  1.1153  0.0656
 2872TIP3    H230032   4.177   0.478   0.994  0.2444 -1.0693  0.2329
 2873TIP3   OH230033   6.297   1.346   3.257 -0.3552  0.1128 -0.7275
 2873TIP3    H130034   6.282   1.393   3.339  0.5096  0.4448 -0.7510
 2873TIP3    H230035   6.329   1.413   3.197 -1.8356  0.0483 -1.6118
 2874TIP3   OH230036   2.719   2.217   3.881  0.2167 -0.3921 -0.3160
 2874TIP3    H130037   2.712   2.149   3.814 -1.0114  0.0172 -0.6212
 2874TIP3    H230038   2.809   2.249   3.873  0.0988 -0.3535 -1.7850
 2875TIP3   OH230039   1.515   5.635   2.705  0.2934  0.4131  0.2603
 2875TIP3    H130040   1.592   5.660   2.756 -1.7330  2.4367  2.5035
 2875TIP3    H230041   1.457   5.594   2.770 -1.6464  1.4920 -0.7474
 2876TIP3   OH230042   0.560   4.100   0.326  0.1962  0.0368  0.1813
 2876TIP3    H130043   0.627   4.132   0.386  0.2734 -0.7119  0.4888
 2876TIP3    H230044   0.574   4.152   0.246 -0.3739  1.5453  1.0377
 2877TIP3   OH230045   1.681   2.616   2.585 -0.2805 -0.8249  0.5263
 2877TIP3    H130046   1.758   2.597   2.532 -0.0058  1.7485 -0.0597
 2877TIP3    H230047   1.715   2.633   2.672 -0.0176  1.5495 -0.0119
 2878TIP3   OH230048   6.488   3.926   1.261 -0.6463  0.0147  0.0319
 2878TIP3    H130049   6.527   3.897   1.344 -0.3302 -0.2829 -0.2189
 2878TIP3    H230050   6.563   3.944   1.204 -0.8687 -0.1342 -0.3080
 2879TIP3   OH230051   0.014   0.249   4.891  0.3690 -0.6241 -0.3757
 2879TIP3    H130052  -0.039   0.206   4.825  1.9752 -1.6628 -1.0026
 2879TIP3    H230053   0.099   0.208   4.885  0.4657 -0.9895  2.5820
 2880TIP3   OH230054   6.543   4.016   0.235 -0.7720 -0.1348  0.3832
 2880TIP3    H130055   6.601   3.947   0.203 -1.2774 -0.0067 -0.8633
 2880TIP3    H230056   6.576   4.095   0.194 -0.5939  0.2659  1.2937
 2881TIP3   OH230057   0.246   1.202   0.455  0.1409  0.1916 -0.4542
 2881TIP3    H130058   0.223   1.219   0.546 -1.2096  0.1555 -0.7849
 2881TIP3    H230059   0.280   1.285   0.423  0.3200  0.2896 -0.0237
 2882TIP3   OH230060   1.075   1.299   0.469 -0.4769  0.2509  0.1409
 2882TIP3    H130061   1.067   1.350   0.550 -1.6380 -0.0642  0.2351
 2882TIP3    H230062   1.159   1.253   0.478 -0.2963  0.7155  0.8818
 2883TIP3   OH230063   5.107   1.092   0.893  0.1485 -0.5144 -0.1504
 2883TIP3    H130064   5.145   1.158   0.952 -0.0552  0.6948 -1.3354
 2883TIP3    H230065   5.155   1.012   0.913  3.3484  0.9563 -1.5722
 2884TIP3   OH230066   5.180   5.920   2.780 -0.0498 -0.1870  0.4532
 2884TIP3    H130067   5.147   5.920   2.870 -0.6462  0.2310  0.2423
 2884TIP3    H230068   5.255   5.861   2.782 -0.5537 -0.8188  1.0452
 2885TIP3   OH230069   5.976   6.400  13.660  0.5401 -0.3523 -0.5962
 2885TIP3    H130070   6.015   6.384  13.746  0.9224  1.0553 -0.4822
 2885TIP3    H230071   5.898   6.452  13.680 -1.1886 -2.7676 -0.8548
 2886TIP3   OH230072   6.690   4.365  14.859  0.5493  0.0763 -0.7653
 2886TIP3    H130073   6.781   4.333  14.859  0.5061 -0.0693  0.1373
 2886TIP3    H230074   6.637   4.287  14.869  0.3469  0.2087 -0.8118
 2887TIP3   OH230075   0.529   4.037  11.064 -0.0845 -0.0515 -0.2390
 2887TIP3    H130076   0.590   4.105  11.091 -0.6664  1.0114 -1.5696
 2887TIP3    H230077   0.448   4.057  11.111  0.6117 -1.6000  1.7137
 2888TIP3   OH230078   4.879   5.231   2.907  0.6499 -0.0585  0.1809
 2888TIP3    H130079   4.948   5.273   2.856 -0.5638  1.6337 -0.1013
 2888TIP3    H230080   4.859   5.294   2.977 -1.0075 -0.2507 -0.0925
 2889TIP3   OH230081   0.907   4.009   1.083 -0.6650  0.1500  0.0886
 2889TIP3    H130082   0.981   3.955   1.111  1.5167  2.2343 -1.4044
 2889TIP3    H230083   0.884   4.060   1.160 -0.1303 -0.0900  0.4101
 2890TIP3   OH230084   0.942   6.639   3.452 -0.1177  0.0320  0.0652
 2890TIP3    H130085   1.010   6.645   3.385 -1.6119 -0.8960 -1.5433
 2890TIP3    H230086   0.990   6.653   3.535  1.6075  1.9667 -1.2081
 2891TIP3   OH230087   3.093   6.220  16.329 -0.1322  0.2449  0.0925
 2891TIP3    H130088   3.025   6.191  16.389 -0.6180  1.9026  0.3734
 2891TIP3    H230089   3.169   6.237  16.384 -0.3537  1.0731  0.1422
 2892TIP3   OH230090   3.277   5.959  13.245  0.2356  0.4513  0.2851
 2892TIP3    H130091   3.329   6.032  13.211 -0.5486  0.9792  0.1920
 2892TIP3    H230092   3.192   5.969  13.203  0.0281 -0.3538  0.5000
 2893TIP3   OH230093   2.334   3.223   2.008  0.1219 -0.6295 -0.3851
 2893TIP3    H130094   2.352   3.287   2.076 -0.0674 -1.1139  0.1212
 2893TIP3    H230095   2.387   3.253   1.933 -0.3213  0.3685 -0.3078
 2894TIP3   OH230096   6.283   4.558   1.509  0.2422 -0.1618  0.4158
 2894TIP3    H130097   6.271   4.537   1.416  0.5838 -0.8625  0.5244
 2894TIP3    H230098   6.358   4.505   1.536 -0.3547 -0.5756  1.2933
 2895TIP3   OH230099   5.098   3.132   5.103 -0.1186  0.2163  0.7514
 2895TIP3    H130100   5.005   3.121   5.120 -0.3594  1.6695  0.4411
 2895TIP3    H230101   5.137   3.147   5.190 -0.5027  1.7958  0.6658
 2896TIP3   OH230102   0.484   2.149   2.116  0.7392 -1.1296  0.0438
 2896TIP3    H130103   0.437   2.089   2.058 -2.3894  1.0574  0.1585
 2896TIP3    H230104   0.527   2.211   2.058 -1.1365  0.1481 -0.0276
 2897TIP3   OH230105   1.098   4.805   3.407  0.1214 -0.0558  0.0052
 2897TIP3    H130106   1.074   4.843   3.323 -1.0841 -0.9479 -0.0702
 2897TIP3    H230107   1.181   4.760   3.390  0.9762  1.5581 -0.1698
 2898TIP3   OH230108   0.649   1.091   4.951  1.0906  0.1464 -0.2058
 2898TIP3    H130109   0.704   1.170   4.960  1.0693  0.2097 -0.6162
 2898TIP3    H230110   0.704   1.020   4.983  0.4191  0.5920  1.9971
 2899TIP3   OH230111   5.773   1.079   4.364  0.6648 -0.0726 -0.3977
 2899TIP3    H130112   5.862   1.049   4.383  1.2806  1.6084 -0.5574
 2899TIP3    H230113   5.748   1.130   4.441  0.6797  1.3173 -1.3120
 2900TIP3   OH230114   3.025   5.082   0.074  0.3758  0.0235  0.1921
 2900TIP3    H130115   2.980   4.998   0.068  3.4855 -1.5620 -3.4873
 2900TIP3    H230116   3.097   5.067   0.135 -0.4457  0.7326  1.3446
 2901TIP3   OH230117   4.628   3.932  13.876 -0.4924 -0.3237 -0.4223
 2901TIP3    H130118   4.670   3.969  13.955 -1.4836 -0.3759  0.1326
 2901TIP3    H230119   4.561   3.996  13.853  0.2098 -0.0009 -1.6050
 2902TIP3   OH230120   1.813   0.554  12.227 -0.7191  0.3775  0.2858
 2902TIP3    H130121   1.874   0.627  12.224 -1.1719  0.8839  2.5780
 2902TIP3    H230122   1.769   0.555  12.142  1.9324  0.4221 -1.1266
 2903TIP3   OH230123   0.616   3.260  14.847 -0.5533 -0.5042  0.2846
 2903TIP3    H130124   0.604   3.333  14.907  1.7778  0.2030 -0.0615
 2903TIP3    H230125   0.539   3.262  14.790 -1.3153  0.6497  1.3405
 2904TIP3   OH230126   4.410   1.578   5.488  0.4240 -0.5218 -0.1461
 2904TIP3    H130127   4.323   1.540   5.472  0.3600 -0.0964 -0.8322
 2904TIP3    H230128   4.435   1.615   5.404  1.1032 -0.2931  0.1578
 2905TIP3   OH230129   3.219   2.612   5.783 -0.4673 -0.2877 -0.4990
 2905TIP3    H130130   3.187   2.697   5.813 -0.0763 -0.7277  1.2393
 2905TIP3    H230131   3.152   2.550   5.814  0.3688 -0.8421  0.2207
 2906TIP3   OH230132   6.479   6.696   1.144 -0.2600  0.4692  0.4183
 2906TIP3    H130133   6.502   6.606   1.121  1.1528  0.9569 -0.1060
 2906TIP3    H230134   6.464   6.693   1.239 -0.9707 -0.4632  0.2901
 2907TIP3   OH230135   5.583   5.217   3.200  0.3054  0.3050 -0.0232
 2907TIP3    H130136   5.543   5.203   3.114  3.4068 -3.6069 -0.9800
 2907TIP3    H230137   5.510   5.211   3.261 -1.5132  0.0634 -2.1454
 2908TIP3   OH230138   4.767   2.878  17.152 -0.3125  0.1031 -0.0197
 2908TIP3    H130139   4.800   2.794  17.183 -0.1817 -0.2082 -0.9662
 2908TIP3    H230140   4.673   2.876  17.172 -0.1983 -0.0262  0.4910
 2909TIP3   OH230141   0.108   6.034  14.439 -0.0187 -0.5595 -0.3433
 2909TIP3    H130142   0.072   6.059  14.354  1.4822 -0.0206 -0.8397
 2909TIP3    H230143   0.134   5.943  14.428  1.8480  0.0357 -1.0581
 2910TIP3   OH230144   2.958   4.802  15.717  0.0228  0.0526  0.1518
 2910TIP3    H130145   3.018   4.858  15.667 -1.0067 -1.6775 -3.1330
 2910TIP3    H230146   2.871   4.835  15.695 -0.6063 -2.7771 -1.8831
 2911TIP3   OH230147   2.507   1.968  13.350  0.1765  0.1137 -0.0123
 2911TIP3    H130148   2.560   1.963  13.430  0.7109 -0.3520 -0.3836
 2911TIP3    H230149   2.467   2.054  13.353  2.2836  1.1577 -0.5209
 2912TIP3   OH230150   0.160   1.347   6.350  0.0546  0.3740  0.7879
 2912TIP3    H130151   0.222   1.419   6.334  1.4442 -0.8985  0.3491
 2912TIP3    H230152   0.074   1.387   6.339  0.8201  1.7863 -0.2831
 2913TIP3   OH230153   1.236   4.164   2.881  0.0674  0.7569  0.3502
 2913TIP3    H130154   1.297   4.105   2.925  0.2015  0.7348  0.1366
 2913TIP3    H230155   1.248   4.248   2.925 -1.0402  0.3327  1.5151
 2914TIP3   OH230156   1.525   6.639   1.585 -0.5013 -0.3968 -0.2448
 2914TIP3    H130157   1.443   6.639   1.535 -1.0878 -2.2722  0.6808
 2914TIP3    H230158   1.497   6.649   1.676  0.4620  1.3113 -0.1113
 2915TIP3   OH230159   3.293   2.544  16.754 -0.5622 -0.0189  0.1439
 2915TIP3    H130160   3.388   2.546  16.737 -0.6228  1.9271 -0.0860
 2915TIP3    H230161   3.280   2.608  16.824 -1.4781 -1.6233  1.4506
 2916TIP3   OH230162   6.276   4.478  14.426  0.7868 -0.1734  0.0290
 2916TIP3    H130163   6.209   4.544  14.444  2.0663  1.0470  0.4272
 2916TIP3    H230164   6.257   4.448  14.337  1.4435  2.2736 -0.9715
 2917TIP3   OH230165   1.497   2.137   2.328  0.2570 -0.2784  0.5527
 2917TIP3    H130166   1.471   2.217   2.372  0.4632  0.2130 -0.1971
 2917TIP3    H230167   1.593   2.141   2.326  0.3865 -1.6889  2.5991
 2918TIP3   OH230168   3.914   2.159  16.386  0.4016 -0.2601 -0.0303
 2918TIP3    H130169   3.878   2.079  16.345 -0.9882  0.0429  0.5622
 2918TIP3    H230170   3.925   2.135  16.478  0.3711  0.1054  0.0668
 2919TIP3   OH230171   5.825   2.736   1.337  0.2317 -0.7968 -0.2092
 2919TIP3    H130172   5.795   2.653   1.300 -1.8803 -0.4615  0.6956
 2919TIP3    H230173   5.851   2.788   1.260 -2.2415 -0.8326 -1.1117
 2920TIP3   OH230174   3.779   6.632   4.560  0.1801  0.1274 -0.2980
 2920TIP3    H130175   3.826   6.674   4.632 -0.2863 -1.6814  1.0819
 2920TIP3    H230176   3.691   6.672   4.563  0.4209  0.6748 -0.4165
 2921TIP3   OH230177   3.929   2.638   1.085  0.0006 -0.6092  0.0771
 2921TIP3    H130178   3.864   2.649   1.015 -0.6559 -2.8968  0.3011
 2921TIP3    H230179   4.002   2.591   1.044  0.7094  0.2823  0.3043
 2922TIP3   OH230180   3.540   6.743   4.399  0.8546 -0.1901  0.0418
 2922TIP3    H130181   3.539   6.685   4.323 -0.7645 -1.8385  1.2768
 2922TIP3    H230182   3.467   6.803   4.385  1.8695  0.8922 -0.7133
 2923TIP3   OH230183   3.568   5.596   4.601 -0.1077  0.4891 -0.2960
 2923TIP3    H130184   3.629   5.632   4.536  0.9743  1.3894  1.1794
 2923TIP3    H230185   3.501   5.664   4.611 -2.1475 -1.0594 -2.8978
 2924TIP3   OH230186   3.557   4.642   2.792  0.2153  0.2073  0.2604
 2924TIP3    H130187   3.563   4.698   2.870  0.3971  1.9497 -0.9622
 2924TIP3    H230188   3.630   4.670   2.737 -0.5893 -0.1802 -1.0366
 2925TIP3   OH230189   2.053   4.932   5.916  0.3226  0.0210 -0.2814
 2925TIP3    H130190   2.005   4.895   5.990 -1.1637  0.3638 -1.0588
 2925TIP3    H230191   2.145   4.928   5.943 -0.1113 -0.8545  1.1335
 2926TIP3   OH230192   2.005   1.211   4.892  0.5257 -0.4311 -0.0161
 2926TIP3    H130193   1.972   1.174   4.973  0.0075 -0.5054 -0.2614
 2926TIP3    H230194   1.998   1.140   4.828  1.2844 -0.4934 -0.0374
 2927TIP3   OH230195   2.152   0.814  12.508  0.3763 -0.4246 -0.1939
 2927TIP3    H130196   2.130   0.773  12.592  1.0844  0.2306  0.3148
 2927TIP3    H230197   2.241   0.785  12.491 -0.7906 -3.0448 -2.2301
 2928TIP3   OH230198   1.120   6.291   4.882  0.4925 -0.3623  0.1841
 2928TIP3    H130199   1.132   6.264   4.973  2.1020 -0.3100  0.0030
 2928TIP3    H230200   1.038   6.250   4.855 -0.0164 -0.3323  1.6690
 2929TIP3   OH230201   6.766   1.219   3.750  0.2936  0.1329 -0.2961
 2929TIP3    H130202   6.699   1.186   3.690  0.2645  0.2946 -0.3526
 2929TIP3    H230203   6.718   1.274   3.811 -0.2564 -2.8266  2.0566
 2930TIP3   OH230204   1.659   6.590  11.585  0.0654  0.5341  0.1811
 2930TIP3    H130205   1.569   6.558  11.577 -0.0375  1.0366 -0.7308
 2930TIP3    H230206   1.653   6.683  11.561  0.8436  0.5423  0.0238
 2931TIP3   OH230207   1.710   1.541   4.609  0.3692 -0.1355  0.6486
 2931TIP3    H130208   1.770   1.608   4.643  0.5047 -0.0983  0.3334
 2931TIP3    H230209   1.645   1.590   4.559  1.3567 -0.3729 -0.8936
 2932TIP3   OH230210   2.252   3.120   2.938 -0.0997  0.1287 -0.5865
 2932TIP3    H130211   2.208   3.173   2.872 -1.5953  0.4496  0.6445
 2932TIP3    H230212   2.342   3.154   2.939  0.3218 -0.7948 -3.3902
 2933TIP3   OH230213   0.218   0.435   4.413 -0.0178 -0.0352  0.6556
 2933TIP3    H130214   0.145   0.380   4.443 -1.6742  2.8024  2.1461
 2933TIP3    H230215   0.219   0.508   4.476  1.4518  2.0996 -1.7578
 2934TIP3   OH230216   6.478   1.406  13.411  0.1332  0.2466 -0.6436
 2934TIP3    H130217   6.447   1.496  13.408 -1.0603  0.0946  3.6398
 2934TIP3    H230218   6.430   1.361  13.342 -1.8379  2.1519 -0.5593
 2935TIP3   OH230219   5.571   5.417  16.119 -0.6517 -0.2987  0.1917
 2935TIP3    H130220   5.607   5.498  16.083  0.9743 -0.5352  1.2616
 2935TIP3    H230221   5.514   5.446  16.191  0.6951 -0.1273  1.2180
 2936TIP3   OH230222   2.124   1.935   2.561  0.1775  0.0761  0.7605
 2936TIP3    H130223   2.147   1.843   2.546  0.6010  0.0689  1.4193
 2936TIP3    H230224   2.098   1.968   2.475  0.5773 -0.5067  0.4160
 2937TIP3   OH230225   6.442   6.062   2.072 -0.0733  0.1724 -0.4452
 2937TIP3    H130226   6.388   6.118   2.128 -1.1253 -0.5832 -0.7133
 2937TIP3    H230227   6.382   6.023   2.010  1.0853  0.9255 -2.0731
 2938TIP3   OH230228   4.083   4.698  14.193 -0.1011 -0.0359 -0.0364
 2938TIP3    H130229   4.006   4.642  14.186  0.3850 -0.7029 -0.0703
 2938TIP3    H230230   4.115   4.706  14.103 -0.9706  1.4391 -0.2333
 2939TIP3   OH230231   1.617   3.747  11.056  0.5496  0.0236 -0.5232
 2939TIP3    H130232   1.677   3.721  10.986  1.4471  2.5634 -0.7717
 2939TIP3    H230233   1.674   3.786  11.122 -0.6196  0.5347  0.1939
 2940TIP3   OH230234   2.907   0.791  16.028  0.4597  0.4152 -0.3209
 2940TIP3    H130235   2.847   0.858  15.996  1.2052  0.7304 -1.0725
 2940TIP3    H230236   2.994   0.824  16.007  1.0274  0.9399  2.6033
 2941TIP3   OH230237   5.155   2.525   2.074 -0.8822  0.1915  0.1718
 2941TIP3    H130238   5.090   2.534   2.004 -0.8516 -0.1301  0.1024
 2941TIP3    H230239   5.108   2.486   2.147 -1.3006  1.9971  0.8901
 2942TIP3   OH230240   5.442   6.332   5.242 -0.3819  0.4693  0.0002
 2942TIP3    H130241   5.454   6.266   5.173 -0.9442  1.5254 -1.1401
 2942TIP3    H230242   5.473   6.289   5.322 -1.6550 -1.5372 -0.5290
 2943TIP3   OH230243   0.235   4.280  14.338 -0.4367  0.0693 -0.2891
 2943TIP3    H130244   0.259   4.305  14.427 -1.4403 -0.7600  0.2371
 2943TIP3    H230245   0.316   4.249  14.299 -0.0867 -0.0493  0.5204
 2944TIP3   OH230246   1.862   0.074  14.122 -0.2032 -0.3233  0.3348
 2944TIP3    H130247   1.832  -0.015  14.137 -1.2313 -0.3629 -1.7356
 2944TIP3    H230248   1.957   0.068  14.116 -0.3413 -1.4654 -0.8607
 2945TIP3   OH230249   6.773   6.697   2.288 -0.0258 -0.1547  0.3407
 2945TIP3    H130250   6.802   6.611   2.256 -0.4123  0.2571 -1.1237
 2945TIP3    H230251   6.678   6.697   2.274 -0.1478  0.1698  1.1620
 2946TIP3   OH230252   4.745   2.556  15.699  0.6152 -0.2374 -0.1701
 2946TIP3    H130253   4.826   2.517  15.731  0.7278 -0.0190 -0.1890
 2946TIP3    H230254   4.704   2.487  15.647  1.2871 -0.0261 -1.0034
 2947TIP3   OH230255   5.016   4.370   1.064  0.4432 -0.0957 -0.1693
 2947TIP3    H130256   5.010   4.321   0.982 -0.2319 -0.7970  0.2882
 2947TIP3    H230257   5.107   4.363   1.090  0.6988  0.2739 -0.9448
 2948TIP3   OH230258   4.569   1.665  15.994  0.2917  0.3639  0.0810
 2948TIP3    H130259   4.535   1.710  15.917 -0.3971  0.7504  0.6077
 2948TIP3    H230260   4.541   1.574  15.983 -0.8741  0.6665  0.4785
 2949TIP3   OH230261   1.011   5.971   3.311 -0.6056  0.5280  0.0900
 2949TIP3    H130262   0.986   5.883   3.339 -0.1230 -0.0282 -1.1610
 2949TIP3    H230263   1.102   5.980   3.339 -0.6118  0.5704  0.0960
 2950TIP3   OH230264   1.966   6.358   4.344  0.3454 -0.2061  0.3960
 2950TIP3    H130265   2.004   6.382   4.259 -0.2012  0.9003  0.4593
 2950TIP3    H230266   1.917   6.278   4.325  0.5767 -0.2038 -0.2438
 2951TIP3   OH230267   4.713   2.073  15.818 -0.2716 -0.7359  0.2415
 2951TIP3    H130268   4.771   1.997  15.821  1.7349  0.8170  3.5258
 2951TIP3    H230269   4.762   2.139  15.768 -0.2394 -0.2306  0.9383
 2952TIP3   OH230270   5.982   3.487  13.670  0.7606 -0.8122  0.1967
 2952TIP3    H130271   5.965   3.408  13.620 -0.3742 -0.0851 -0.5878
 2952TIP3    H230272   5.968   3.559  13.608  0.0237  0.0705  1.3485
 2953TIP3   OH230273   4.403   0.834   3.721 -0.1582  0.4712 -0.1912
 2953TIP3    H130274   4.399   0.884   3.639  1.0328  1.6376  0.4297
 2953TIP3    H230275   4.413   0.743   3.693 -0.9125  0.7377 -1.3478
 2954TIP3   OH230276   5.274   6.711  15.176  0.2378  0.0556 -0.1865
 2954TIP3    H130277   5.302   6.797  15.208  2.5817 -0.4216 -0.8372
 2954TIP3    H230278   5.275   6.655  15.254  1.7681 -0.0943 -0.2914
 2955TIP3   OH230279   1.081   0.127   5.449 -0.6229 -0.0720 -0.1086
 2955TIP3    H130280   1.064   0.189   5.520 -1.1079 -1.2392  0.8296
 2955TIP3    H230281   1.059   0.041   5.487  1.4844 -0.9942 -0.8630
 2956TIP3   OH230282   6.595   3.202   3.348  0.3407 -0.8700 -0.0083
 2956TIP3    H130283   6.630   3.116   3.375 -0.2933 -1.0213  0.3414
 2956TIP3    H230284   6.542   3.231   3.423  0.7395 -0.0646 -0.0334
 2957TIP3   OH230285   3.614   3.624   3.734 -0.8652  0.0601  0.4148
 2957TIP3    H130286   3.660   3.635   3.817 -0.5519 -0.1358  0.2695
 2957TIP3    H230287   3.641   3.700   3.682  2.5274 -2.1221 -1.1577
 2958TIP3   OH230288   5.715   6.604   2.782  0.4945 -0.5002 -0.2442
 2958TIP3    H130289   5.774   6.633   2.713 -0.9163 -1.1593 -1.7666
 2958TIP3    H230290   5.631   6.591   2.738 -0.8871  0.6963  1.9161
 2959TIP3   OH230291   3.809   1.030   1.839 -0.1668  0.0455 -0.5191
 2959TIP3    H130292   3.878   1.081   1.882 -0.8219  0.2547  0.2947
 2959TIP3    H230293   3.806   0.948   1.888 -0.3023 -0.0833 -0.7432
 2960TIP3   OH230294   1.102   1.654   3.226 -0.0829 -0.5248 -0.0868
 2960TIP3    H130295   1.058   1.575   3.194  0.5809 -0.2632 -1.7243
 2960TIP3    H230296   1.185   1.623   3.261 -0.7445 -0.7976  1.2506
 2961TIP3   OH230297   4.316   4.791  16.100  0.1416 -0.1679 -0.0706
 2961TIP3    H130298   4.358   4.828  16.022 -0.3473 -0.0489 -0.2820
 2961TIP3    H230299   4.362   4.831  16.173 -0.1712  0.6344 -0.3006
 2962TIP3   OH230300   2.638   0.392  11.529 -0.2381  0.1554  0.2187
 2962TIP3    H130301   2.543   0.393  11.517 -0.3108  0.7156  0.8090
 2962TIP3    H230302   2.659   0.480  11.561  0.2955 -0.4152  1.4583
 2963TIP3   OH230303   3.211   5.482   3.958  0.6545  0.7367  0.5003
 2963TIP3    H130304   3.132   5.529   3.986  1.5388  2.4069  0.2577
 2963TIP3    H230305   3.267   5.550   3.920  3.0636 -0.0869  2.5060
 2964TIP3   OH230306   2.978   6.208   3.817 -0.0509 -0.2943 -0.3753
 2964TIP3    H130307   3.037   6.156   3.871  1.4410 -1.8368 -3.3172
 2964TIP3    H230308   2.919   6.143   3.778  1.1371  0.2452 -3.2542
 2965TIP3   OH230309   2.394   3.284   0.729  0.6332  0.6227  0.4797
 2965TIP3    H130310   2.423   3.263   0.640  1.6673  0.6146  0.8192
 2965TIP3    H230311   2.392   3.380   0.732 -1.0038  0.6227 -0.0635
 2966TIP3   OH230312   1.774   4.889   1.711  0.4238 -0.1165 -0.5355
 2966TIP3    H130313   1.852   4.840   1.684 -1.4341 -2.9591 -0.9863
 2966TIP3    H230314   1.703   4.825   1.705 -2.0251  2.5320 -0.5933
 2967TIP3   OH230315   0.085   2.674   2.400 -0.3928  0.5174 -0.8065
 2967TIP3    H130316   0.024   2.661   2.473 -0.2281  0.5241 -0.6654
 2967TIP3    H230317   0.172   2.663   2.440 -0.3131  0.2247 -1.0645
 2968TIP3   OH230318   5.131   2.748   0.632  0.3695  0.2991  0.4829
 2968TIP3    H130319   5.149   2.728   0.540  3.5365  0.6472  0.9483
 2968TIP3    H230320   5.079   2.828   0.630  0.0689  0.0820 -1.0123
 2969TIP3   OH230321   5.295   0.607   1.271 -0.3717 -0.5874 -0.6930
 2969TIP3    H130322   5.375   0.600   1.218 -0.1445  1.7795 -0.6999
 2969TIP3    H230323   5.308   0.545   1.342  1.0327 -0.9662 -1.2570
 2970TIP3   OH230324   6.258   2.568  15.566 -0.5803  0.4046  0.2433
 2970TIP3    H130325   6.231   2.572  15.658  0.9773 -1.0065  0.7948
 2970TIP3    H230326   6.336   2.624  15.562 -0.8577  0.7495 -0.2931
 2971TIP3   OH230327   2.642   1.981   3.779  0.4578 -0.0791  0.9124
 2971TIP3    H130328   2.547   1.990   3.788  0.2791 -1.0516  0.0762
 2971TIP3    H230329   2.657   1.887   3.774  1.2791  0.1185 -0.7812
 2972TIP3   OH230330   0.329   1.524   5.807  0.1467  0.2677 -0.3171
 2972TIP3    H130331   0.258   1.487   5.859  0.4045  0.1614 -0.0397
 2972TIP3    H230332   0.408   1.479   5.838  0.3625  0.5241 -0.4864
 2973TIP3   OH230333   3.374   2.467  12.724  0.0931  0.3396 -0.1858
 2973TIP3    H130334   3.349   2.477  12.816 -1.3928 -1.6643 -0.3501
 2973TIP3    H230335   3.466   2.440  12.727 -0.1720 -0.4539  0.7251
 2974TIP3   OH230336   6.578   2.816  13.705  0.6078  0.5111 -0.4591
 2974TIP3    H130337   6.539   2.823  13.792 -0.6846 -2.1328 -0.7690
 2974TIP3    H230338   6.542   2.889  13.656 -2.6137 -0.8525 -0.2046
 2975TIP3   OH230339   5.685   3.808  13.560 -0.0972 -0.5118  0.2866
 2975TIP3    H130340   5.758   3.750  13.538  1.5065  0.4598  2.8790
 2975TIP3    H230341   5.627   3.754  13.613 -0.7206 -0.9394 -0.8054
 2976TIP3   OH230342   0.808   2.463  12.304 -0.8049 -0.1302 -0.5576
 2976TIP3    H130343   0.882   2.420  12.261 -0.9730 -0.1415 -0.8328
 2976TIP3    H230344   0.793   2.543  12.253  0.4546  1.0217  0.8176
 2977TIP3   OH230345   4.546   6.185  16.349  0.4366 -0.1109  0.0298
 2977TIP3    H130346   4.484   6.158  16.417  0.2128  0.5214  0.0808
 2977TIP3    H230347   4.505   6.158  16.267  0.6790 -0.8206  0.1382
 2978TIP3   OH230348   1.746   6.530   5.074 -0.1073 -0.4218  0.5559
 2978TIP3    H130349   1.699   6.462   5.121 -1.1757 -0.5615 -0.6855
 2978TIP3    H230350   1.678   6.592   5.048  0.4442 -0.4442 -0.9589
 2979TIP3   OH230351   3.984   5.871  16.667 -1.1145  0.2944 -0.0641
 2979TIP3    H130352   3.976   5.781  16.698  1.2847 -0.0898 -0.4250
 2979TIP3    H230353   3.977   5.924  16.747 -3.0161 -0.1609  0.0891
 2980TIP3   OH230354   0.262   3.354   4.665 -0.2889  0.2523 -0.0455
 2980TIP3    H130355   0.247   3.312   4.749 -0.6748  0.0407 -0.2149
 2980TIP3    H230356   0.341   3.312   4.630  0.2649  0.8316  0.5185
 2981TIP3   OH230357   6.384   0.455  11.516 -0.2073  0.3472 -0.2428
 2981TIP3    H130358   6.317   0.442  11.583  1.2776  1.6693  1.5357
 2981TIP3    H230359   6.361   0.538  11.475  0.2187  0.7005  0.2305
 2982TIP3   OH230360   1.654   1.603  17.088 -0.3962 -0.0331  0.5352
 2982TIP3    H130361   1.716   1.676  17.085  0.4376 -0.7242  0.4365
 2982TIP3    H230362   1.683   1.545  17.017 -0.7748 -0.6579  0.8839
 2983TIP3   OH230363   4.324   3.071  15.512 -0.2391  0.4484  0.0420
 2983TIP3    H130364   4.367   3.139  15.460 -2.7482  1.1425 -1.1960
 2983TIP3    H230365   4.374   2.992  15.495  1.4646  1.5384 -0.1447
 2984TIP3   OH230366   1.866   3.264  15.435 -0.1673 -0.0277 -0.2524
 2984TIP3    H130367   1.880   3.239  15.343 -0.4925 -0.6254 -0.1453
 2984TIP3    H230368   1.771   3.275  15.442 -0.0361  1.2540 -0.2916
 2985TIP3   OH230369   6.570   3.114  12.588 -0.2040  0.0653  0.7031
 2985TIP3    H130370   6.610   3.143  12.670 -0.6055 -0.5453  1.1142
 2985TIP3    H230371   6.476   3.114  12.606 -0.2641 -0.5450  0.3952
 2986TIP3   OH230372   2.051   1.956   1.102  0.0218 -0.6991 -0.0091
 2986TIP3    H130373   2.139   1.944   1.067 -0.1494  0.3477 -0.8590
 2986TIP3    H230374   2.064   1.979   1.194  0.7641  1.2504 -0.5640
 2987TIP3   OH230375   0.623   4.350  12.932 -0.5700  0.3567  0.1608
 2987TIP3    H130376   0.531   4.366  12.909 -0.5843  0.7090  0.4488
 2987TIP3    H230377   0.627   4.366  13.027  0.2997  2.8155 -0.2391
 2988TIP3   OH230378   1.919   5.176   4.940  0.5089 -0.3098  0.3620
 2988TIP3    H130379   1.904   5.137   5.026 -2.9744  0.5919  0.2373
 2988TIP3    H230380   1.894   5.108   4.878  0.5398 -0.0576  0.0698
 2989TIP3   OH230381   5.155   1.082   3.204  0.3265  0.4788 -0.0917
 2989TIP3    H130382   5.063   1.074   3.231  0.0888 -1.2623 -1.2880
 2989TIP3    H230383   5.154   1.062   3.110  2.2586 -2.1965  0.4006
 2990TIP3   OH230384   5.461   1.670   0.706  0.1098 -0.1556  0.3190
 2990TIP3    H130385   5.384   1.634   0.662 -0.3123  0.7982  0.2678
 2990TIP3    H230386   5.534   1.619   0.671 -0.3603 -0.2037 -0.6089
 2991TIP3   OH230387   4.899   6.710  15.776  0.9358  0.1871 -0.8486
 2991TIP3    H130388   4.952   6.783  15.746 -0.7571  1.5661 -0.5326
 2991TIP3    H230389   4.831   6.750  15.830  0.7809 -1.7434  0.4141
 2992TIP3   OH230390   4.652   5.635  10.629  0.3118 -0.4735  0.4080
 2992TIP3    H130391   4.634   5.717  10.583  0.4492 -0.4228  0.4438
 2992TIP3    H230392   4.566   5.599  10.649  0.2399  0.1444  1.2504
 2993TIP3   OH230393   0.515   0.454   5.177 -1.0622  0.0393 -0.0174
 2993TIP3    H130394   0.483   0.365   5.160  0.8603 -0.4017 -1.5178
 2993TIP3    H230395   0.526   0.457   5.273  0.5948 -2.0106 -0.0952
 2994TIP3   OH230396   4.510   0.182   6.200  0.4435 -0.0785 -0.0939
 2994TIP3    H130397   4.553   0.110   6.154  0.1113  0.0775 -0.6501
 2994TIP3    H230398   4.515   0.158   6.293  3.4002  0.8401  0.0212
 2995TIP3   OH230399   1.978   4.637  10.572 -0.2139 -0.0561  0.7811
 2995TIP3    H130400   1.954   4.730  10.577  0.2986  0.0437  1.6277
 2995TIP3    H230401   1.968   4.614  10.480  1.6704  1.4007  0.1856
 2996TIP3   OH230402   2.202   0.422   0.764 -0.3127  0.1340 -0.2534
 2996TIP3    H130403   2.117   0.380   0.778 -0.0551  0.2893  1.8304
 2996TIP3    H230404   2.265   0.362   0.805  0.3794  1.0271 -0.0092
 2997TIP3   OH230405   3.163   2.819   6.829  0.1907 -0.1855 -0.1330
 2997TIP3    H130406   3.137   2.728   6.845  0.3037 -0.2738 -0.4351
 2997TIP3    H230407   3.120   2.842   6.746  0.3676 -0.0471 -0.1880
 2998TIP3   OH230408   6.018   1.309   3.665  0.2609  0.1347 -0.1733
 2998TIP3    H130409   5.997   1.233   3.611 -1.6364  1.2357 -1.0361
 2998TIP3    H230410   5.937   1.329   3.711  0.6847  1.7589 -0.0970
 2999TIP3   OH230411   1.219   3.198   4.301 -0.7223 -0.4055 -0.4199
 2999TIP3    H130412   1.214   3.278   4.352 -0.0418  0.0127 -0.9958
 2999TIP3    H230413   1.228   3.227   4.210  1.6002 -1.1022 -0.4421
 3000TIP3   OH230414   4.699   3.376  11.654 -0.0512 -0.1804 -0.2076
 3000TIP3    H130415   4.752   3.408  11.727  0.9169  1.0215 -1.4264
 3000TIP3    H230416   4.643   3.450  11.631 -0.5707 -0.6566 -0.4869
 3001TIP3   OH230417   0.393   6.586   6.522  0.3928  0.3959  0.0157
 3001TIP3    H130418   0.467   6.645   6.534 -0.3252  0.9274  2.0776
 3001TIP3    H230419   0.325   6.619   6.582 -1.0721 -0.7837 -0.9427
 3002TIP3   OH230420   0.212   3.284  13.608  0.6457  0.1152 -0.2765
 3002TIP3    H130421   0.246   3.361  13.655 -0.0904  0.3183 -0.0754
 3002TIP3    H230422   0.212   3.214  13.674  1.3896 -0.0832 -0.4803
 3003TIP3   OH230423   0.495   4.815   3.359  0.3939 -0.2467 -0.0602
 3003TIP3    H130424   0.402   4.833   3.377  0.8699  1.5063  0.7271
 3003TIP3    H230425   0.529   4.897   3.324  2.1145 -0.2560  1.5126
 3004TIP3   OH230426   4.086   2.109   4.994 -0.0442  0.3369 -0.0553
 3004TIP3    H130427   4.088   2.091   4.900 -0.5455 -0.2291  0.0416
 3004TIP3    H230428   3.997   2.087   5.021  0.3118 -0.2103  0.6907
 3005TIP3   OH230429   4.899   3.611  14.033  0.2651 -0.8499 -0.3320
 3005TIP3    H130430   4.817   3.593  14.080 -0.8793  1.0865 -1.5204
 3005TIP3    H230431   4.917   3.529  13.986  0.0579 -1.9376  1.4252
 3006TIP3   OH230432   4.498   3.620  15.879  0.3173  0.1053  0.1687
 3006TIP3    H130433   4.421   3.570  15.904  0.2725  0.8980  1.6991
 3006TIP3    H230434   4.569   3.586  15.935  0.6048  0.7638  0.2142
 3007TIP3   OH230435   2.849   2.056   4.291  0.4871 -0.1588 -0.0149
 3007TIP3    H130436   2.872   1.994   4.361  0.7833 -0.2960 -0.2342
 3007TIP3    H230437   2.932   2.073   4.247  0.0165 -1.4255 -1.4424
 3008TIP3   OH230438   6.041   6.202   3.622 -0.2431  0.6962  1.0053
 3008TIP3    H130439   6.048   6.126   3.681  0.6976 -0.1901 -0.2373
 3008TIP3    H230440   5.951   6.199   3.590 -0.5145  0.7120  1.7437
 3009TIP3   OH230441   5.639   4.243   2.215  0.0427  0.0156  0.4929
 3009TIP3    H130442   5.714   4.223   2.271 -0.5367  0.1021  1.3224
 3009TIP3    H230443   5.566   4.197   2.256 -0.1699 -0.9100 -0.8867
 3010TIP3   OH230444   4.950   4.574  13.255  0.5625  0.5129 -0.6483
 3010TIP3    H130445   4.992   4.501  13.300  1.7197  0.4871 -1.7599
 3010TIP3    H230446   4.856   4.554  13.261  0.7441  0.0598  0.9518
 3011TIP3   OH230447   6.587   0.518  16.608  0.1127 -0.5400 -0.9788
 3011TIP3    H130448   6.543   0.598  16.580  0.7128 -0.8961 -3.0621
 3011TIP3    H230449   6.521   0.470  16.659 -0.0552  1.5227  0.7956
 3012TIP3   OH230450   0.786   5.432   5.542 -0.1015 -0.5463 -0.6347
 3012TIP3    H130451   0.745   5.476   5.466 -0.7596  0.4564  0.2769
 3012TIP3    H230452   0.878   5.425   5.518  0.4505  3.2939  0.0288
 3013TIP3   OH230453   3.800   3.273  11.026 -0.3465  0.2611  0.1643
 3013TIP3    H130454   3.840   3.351  10.987  0.6573 -0.5800 -0.5327
 3013TIP3    H230455   3.755   3.230  10.953 -1.7310  0.6949  0.7509
 3014TIP3   OH230456   2.332   3.003   0.762 -0.1625  0.3939 -0.1617
 3014TIP3    H130457   2.344   3.092   0.794  0.9673 -0.5532  2.1652
 3014TIP3    H230458   2.241   2.999   0.734 -0.0929  2.3880 -0.7312
 3015TIP3   OH230459   0.459   0.428  15.643 -0.0563  0.2124 -0.1170
 3015TIP3    H130460   0.400   0.373  15.592  0.5084 -0.4875 -0.0257
 3015TIP3    H230461   0.462   0.388  15.729  0.2610  0.4628 -0.0094
 3016TIP3   OH230462   5.208   4.983   6.633  0.3637 -0.1454  0.4906
 3016TIP3    H130463   5.128   4.946   6.669  0.7237 -1.2892  0.1398
 3016TIP3    H230464   5.204   4.963   6.540 -0.3700  2.4398 -0.0698
 3017TIP3   OH230465   3.273   1.515   2.527 -0.2449 -0.3665  0.5912
 3017TIP3    H130466   3.292   1.607   2.545 -0.4232 -0.4056  0.9990
 3017TIP3    H230467   3.186   1.517   2.486  0.2657 -0.2577 -0.4956
 3018TIP3   OH230468   1.047   0.207   2.465  0.6779  0.3627  0.4223
 3018TIP3    H130469   1.107   0.144   2.425 -0.3768 -0.1800 -0.3267
 3018TIP3    H230470   1.087   0.293   2.447  0.8929  0.0424 -0.6418
 3019TIP3   OH230471   2.041   0.540  12.034  0.1807 -0.1610  0.1051
 3019TIP3    H130472   2.072   0.563  12.122  0.9551  0.0745 -0.2252
 3019TIP3    H230473   1.978   0.470  12.048 -0.4540  0.5641  0.9332
 3020TIP3   OH230474   4.685   3.274   4.952 -0.5312  0.1017  0.2382
 3020TIP3    H130475   4.675   3.369   4.960  0.1794  0.2429 -0.4687
 3020TIP3    H230476   4.775   3.256   4.980 -0.9657 -0.4844  1.2893
 3021TIP3   OH230477   1.212   5.840   5.957 -0.0918 -0.4828 -0.4721
 3021TIP3    H130478   1.194   5.774   6.024  0.8726 -1.5073 -1.2032
 3021TIP3    H230479   1.202   5.793   5.874  0.9230  0.2019 -0.9921
 3022TIP3   OH230480   4.447   1.160   5.956  0.1977  0.4400 -0.2879
 3022TIP3    H130481   4.432   1.192   6.045  0.9689 -0.8413  0.3276
 3022TIP3    H230482   4.543   1.159   5.947  0.2147 -1.7736 -0.2144
 3023TIP3   OH230483   4.487   0.542  16.497 -0.0468 -0.1534  0.2020
 3023TIP3    H130484   4.525   0.624  16.466 -2.0949  0.9752  0.5909
 3023TIP3    H230485   4.495   0.547  16.593 -1.2765  0.1473  0.2900
 3024TIP3   OH230486   6.204   0.920  10.689 -0.1642  0.2376 -0.1154
 3024TIP3    H130487   6.163   0.975  10.755  0.1083  0.2694  0.0269
 3024TIP3    H230488   6.294   0.909  10.718  0.0331  0.4853 -0.6292
 3025TIP3   OH230489   6.143   5.584   3.104  0.5476  0.0716  0.4338
 3025TIP3    H130490   6.098   5.652   3.153 -1.2091 -0.6550 -0.1076
 3025TIP3    H230491   6.138   5.507   3.161 -0.3394 -0.4269 -0.2902
 3026TIP3   OH230492   1.137   0.630  11.008  0.1356  0.4205  0.0891
 3026TIP3    H130493   1.102   0.541  11.008 -1.1811  0.9113  0.3359
 3026TIP3    H230494   1.107   0.668  10.925  2.0882  0.1170 -0.7616
 3027TIP3   OH230495   1.287   5.250  11.268  0.1343 -0.0130  0.2149
 3027TIP3    H130496   1.289   5.173  11.211  2.4287  0.2622 -0.0971
 3027TIP3    H230497   1.255   5.320  11.213  1.0560 -0.0504 -0.3791
 3028TIP3   OH230498   6.062   3.736  14.868  0.5814  0.3731  0.8759
 3028TIP3    H130499   6.055   3.804  14.802  2.6629 -0.9411 -0.7545
 3028TIP3    H230500   5.978   3.690  14.865 -0.2900  1.9238  0.9855
 3029TIP3   OH230501   4.219   5.558   2.839 -0.2395 -0.4922  0.0801
 3029TIP3    H130502   4.165   5.579   2.763  0.7096 -1.4900 -0.8783
 3029TIP3    H230503   4.187   5.472   2.868  0.3146 -0.7278 -0.0099
 3030TIP3   OH230504   0.193   5.084   4.186  0.1662  0.1644 -0.6126
 3030TIP3    H130505   0.234   5.102   4.270  0.5040  0.8477 -0.9158
 3030TIP3    H230506   0.260   5.108   4.121  0.1318 -0.9178 -1.0620
 3031TIP3   OH230507   2.567   4.034  13.445 -0.1407 -0.1418  0.4348
 3031TIP3    H130508   2.602   4.037  13.534  0.4509 -2.0206  0.3007
 3031TIP3    H230509   2.480   3.997  13.454 -0.1271 -0.2227  0.2410
 3032TIP3   OH230510   2.517   2.364   1.027 -0.0357  0.3620 -0.0043
 3032TIP3    H130511   2.565   2.446   1.017 -0.6489  0.8455  0.8989
 3032TIP3    H230512   2.575   2.308   1.077 -0.3374  0.8931  0.9547
 3033TIP3   OH230513   3.577   2.419   1.012  0.2721 -0.0574 -0.0298
 3033TIP3    H130514   3.614   2.461   1.090  0.0794  0.0313  0.0148
 3033TIP3    H230515   3.513   2.357   1.047  0.0741  0.0947 -0.1252
 3034TIP3   OH230516   5.029   4.296   1.952  0.3677 -0.1456 -0.4261
 3034TIP3    H130517   5.093   4.366   1.946  0.5197 -0.1444  1.0150
 3034TIP3    H230518   4.946   4.340   1.970  0.5091 -0.3379  0.7395
 3035TIP3   OH230519   5.002   2.242  16.890 -0.0507 -0.1305  0.2158
 3035TIP3    H130520   5.035   2.246  16.800 -0.7337  0.2308 -0.0199
 3035TIP3    H230521   4.956   2.158  16.895 -1.6278  0.6869 -0.3345
 3036TIP3   OH230522   3.296   5.370  13.717 -0.3142 -0.2182 -0.2782
 3036TIP3    H130523   3.275   5.282  13.748  0.7149 -0.3041  0.1647
 3036TIP3    H230524   3.281   5.426  13.792  1.9536 -0.3990  0.3458
 3037TIP3   OH230525   0.095   4.813   0.446 -0.1899  0.4540 -0.6107
 3037TIP3    H130526   0.099   4.724   0.411  2.8242  0.2592  0.0897
 3037TIP3    H230527   0.050   4.803   0.529 -1.0454 -0.2038 -1.1398
 3038TIP3   OH230528   5.299   4.467  14.000 -0.2569  0.1266 -0.0074
 3038TIP3    H130529   5.337   4.440  13.916  0.1487 -1.9671  0.8122
 3038TIP3    H230530   5.373   4.469  14.060 -0.9253 -0.8632  0.8696
 3039TIP3   OH230531   2.945   2.955  11.504 -0.1969  1.3313 -0.1279
 3039TIP3    H130532   2.917   2.896  11.574 -0.4108 -0.0873 -1.3916
 3039TIP3    H230533   3.003   3.018  11.548 -0.3169  0.4640  1.3203
 3040TIP3   OH230534   2.588   1.755   3.086 -0.4871 -0.1240  0.1312
 3040TIP3    H130535   2.553   1.686   3.143  1.4857 -2.0527 -0.9287
 3040TIP3    H230536   2.627   1.818   3.146 -0.7483 -0.8009  1.0316
 3041TIP3   OH230537   4.763   1.666   0.905 -0.4937 -0.2165 -0.5736
 3041TIP3    H130538   4.809   1.613   0.840 -1.6411 -2.3169  0.3062
 3041TIP3    H230539   4.797   1.637   0.989 -0.9256  0.6763 -0.0801
 3042TIP3   OH230540   3.429   3.828   0.398  0.3177 -0.2882 -0.3116
 3042TIP3    H130541   3.380   3.909   0.409  0.6510  0.0892 -1.5337
 3042TIP3    H230542   3.384   3.783   0.326  0.3834 -1.0022  0.0893
 3043TIP3   OH230543   3.652   3.436  15.855 -0.2027  0.2325  0.3158
 3043TIP3    H130544   3.666   3.420  15.948  2.8249 -1.3819 -0.3819
 3043TIP3    H230545   3.563   3.404  15.839 -1.0699  1.2400  2.7568
 3044TIP3   OH230546   6.677   3.561  16.112  0.1927 -0.1102  0.0783
 3044TIP3    H130547   6.765   3.526  16.096 -0.0643 -0.4382 -0.6496
 3044TIP3    H230548   6.675   3.644  16.065 -0.6229 -1.1579 -1.7895
 3045TIP3   OH230549   0.802   2.821  11.421 -0.6513 -0.0320 -0.2509
 3045TIP3    H130550   0.777   2.729  11.411  2.1937 -1.2427  2.9916
 3045TIP3    H230551   0.883   2.829  11.371 -0.6453  0.6403 -0.1320
 3046TIP3   OH230552   0.476   6.249   6.005  0.1325  0.2267 -0.1182
 3046TIP3    H130553   0.503   6.296   6.084 -0.6235  0.9549 -0.2824
 3046TIP3    H230554   0.466   6.158   6.032 -2.5591  0.8735  1.2370
 3047TIP3   OH230555   2.061   6.193  16.000  0.4701 -0.3214  0.2982
 3047TIP3    H130556   2.016   6.274  15.974 -0.2340 -1.0929 -0.9156
 3047TIP3    H230557   1.992   6.127  16.002  0.8217 -0.6771  2.4301
 3048TIP3   OH230558   2.791   2.712   2.555 -0.0799 -0.7892  0.0307
 3048TIP3    H130559   2.706   2.754   2.546  0.2433  0.1116  0.9764
 3048TIP3    H230560   2.790   2.676   2.644  1.6813  1.9995  1.2801
 3049TIP3   OH230561   1.159   0.647   2.124  0.0537  0.4558  0.6207
 3049TIP3    H130562   1.106   0.684   2.054 -1.3289 -1.6604  0.4917
 3049TIP3    H230563   1.211   0.579   2.080 -1.6638 -1.6820  1.7858
 3050TIP3   OH230564   5.693   3.641   3.887 -0.5224 -0.1001 -0.3173
 3050TIP3    H130565   5.639   3.589   3.828  0.4701 -2.4682  0.7894
 3050TIP3    H230566   5.685   3.596   3.972  1.5197  0.7036  0.3329
 3051TIP3   OH230567   0.622   2.984  11.537 -0.0974 -0.2728  0.2442
 3051TIP3    H130568   0.683   2.927  11.490  1.7396  0.1842  2.0441
 3051TIP3    H230569   0.606   3.057  11.477  1.3735 -0.2391 -0.1294
 3052TIP3   OH230570   6.443   2.887  15.308 -0.2287  0.5235  0.5621
 3052TIP3    H130571   6.536   2.872  15.297 -0.3154  0.6093 -0.2735
 3052TIP3    H230572   6.401   2.807  15.276 -0.6462  2.1127 -3.0893
 3053TIP3   OH230573   4.693   4.770   5.882  0.3577 -0.1948  0.0509
 3053TIP3    H130574   4.601   4.762   5.858  0.8588 -2.3260 -1.2580
 3053TIP3    H230575   4.694   4.839   5.948 -2.0639  0.4174 -0.4897
 3054TIP3   OH230576   0.039   5.796  14.301 -0.6440  0.0575  0.7283
 3054TIP3    H130577  -0.024   5.725  14.293 -0.3041 -0.0491 -1.1070
 3054TIP3    H230578   0.123   5.752  14.317 -0.4516  0.0370 -0.3022
 3055TIP3   OH230579   4.339   6.649   4.238  0.4364  0.2173 -0.6672
 3055TIP3    H130580   4.372   6.565   4.208 -0.0792  0.3285 -1.5850
 3055TIP3    H230581   4.350   6.707   4.162 -1.0636  0.4574 -0.7246
 3056TIP3   OH230582   3.565   2.716  14.476  0.2052  0.1791 -0.4583
 3056TIP3    H130583   3.504   2.644  14.460  1.9905 -1.1857 -1.3603
 3056TIP3    H230584   3.619   2.719  14.396  3.3313 -0.7375  1.5210
 3057TIP3   OH230585   1.974   0.785   6.140  0.0632  0.3906  0.1218
 3057TIP3    H130586   2.013   0.822   6.061  1.2667 -0.3813  0.3305
 3057TIP3    H230587   1.960   0.693   6.120 -0.3670  0.3666  0.5234
 3058TIP3   OH230588   6.234   6.550   5.284  0.3079  0.0077  0.4122
 3058TIP3    H130589   6.173   6.477   5.277  0.9309 -0.4549 -0.2910
 3058TIP3    H230590   6.208   6.596   5.364 -1.5170  0.3511 -0.3731
 3059TIP3   OH230591   0.632   6.663  13.751 -0.2734 -0.8132 -0.4280
 3059TIP3    H130592   0.699   6.617  13.701  1.5937  1.1026  0.2384
 3059TIP3    H230593   0.674   6.681  13.835 -0.8842  2.2015 -0.7260
 3060TIP3   OH230594   5.432   4.990   4.570  0.6334 -0.0536  0.9989
 3060TIP3    H130595   5.418   4.899   4.595  0.1859  0.5507  3.0038
 3060TIP3    H230596   5.432   5.039   4.653  2.6763  1.5366  0.1067
 3061TIP3   OH230597   0.883   5.988   4.654 -0.0038 -0.6723  0.1638
 3061TIP3    H130598   0.838   5.905   4.664  1.5283 -1.5976 -0.4782
 3061TIP3    H230599   0.950   5.972   4.588  0.7091  0.9016  0.4706
 3062TIP3   OH230600   6.233   3.702  11.319  0.1947 -0.4739  0.3203
 3062TIP3    H130601   6.172   3.628  11.321  0.2255 -0.4892  1.0629
 3062TIP3    H230602   6.310   3.671  11.367  1.9049 -1.3906 -2.8596
 3063TIP3   OH230603   6.327   5.055  16.915  0.1451 -0.0494 -0.2205
 3063TIP3    H130604   6.275   4.975  16.922  0.5611 -0.4008 -1.1054
 3063TIP3    H230605   6.270   5.117  16.869  1.2752 -1.1408 -3.2263
 3064TIP3   OH230606   1.242   6.674   5.156 -0.5750  0.0899 -0.0769
 3064TIP3    H130607   1.183   6.749   5.156 -0.6677  0.0186 -1.2789
 3064TIP3    H230608   1.328   6.711   5.137 -0.5193 -0.0334 -0.0672
 3065TIP3   OH230609   5.641   5.203  12.130  0.3977 -0.1915 -0.0629
 3065TIP3    H130610   5.602   5.118  12.112  1.2550 -0.5788 -0.0805
 3065TIP3    H230611   5.679   5.194  12.218 -1.2026  0.7806  0.7670
 3066TIP3   OH230612   6.173   2.091   0.913  0.1282 -0.2823 -0.0279
 3066TIP3    H130613   6.129   2.168   0.878  0.2962 -1.0140 -1.9079
 3066TIP3    H230614   6.263   2.120   0.929  0.0726  0.0401 -0.2991
 3067TIP3   OH230615   1.698   0.504  16.534 -0.7733 -0.7100  0.2534
 3067TIP3    H130616   1.670   0.436  16.473  0.1936 -1.3294  0.4824
 3067TIP3    H230617   1.783   0.532  16.502 -0.6118 -0.4846  0.8743
 3068TIP3   OH230618   1.436   2.966   1.412  0.6668 -0.0108 -0.4091
 3068TIP3    H130619   1.525   2.934   1.426 -0.1416 -2.2869 -0.2821
 3068TIP3    H230620   1.430   3.046   1.464  1.9137 -1.0869  1.4324
 3069TIP3   OH230621   5.021   1.905  12.510  0.1314 -0.2912 -0.1581
 3069TIP3    H130622   5.059   1.990  12.488  3.1251 -1.3150  0.8188
 3069TIP3    H230623   5.058   1.845  12.446 -0.6508 -1.1860  0.2129
 3070TIP3   OH230624   1.252   2.510  12.562  0.0434  0.0298  0.7201
 3070TIP3    H130625   1.173   2.474  12.601  0.9755 -2.7868  0.1932
 3070TIP3    H230626   1.319   2.499  12.630  0.0143  2.3217  1.1367
 3071TIP3   OH230627   5.868   4.555  12.950 -0.2076  0.1130  0.2241
 3071TIP3    H130628   5.890   4.647  12.963  0.1964 -0.3032  2.7497
 3071TIP3    H230629   5.773   4.555  12.937 -0.2671  0.8333  0.6266
 3072TIP3   OH230630   3.220   2.469  13.588 -0.5847  0.1417  0.1667
 3072TIP3    H130631   3.204   2.467  13.682 -0.7476  1.6746  0.1846
 3072TIP3    H230632   3.305   2.427  13.577 -0.3306  0.4146  1.0601
 3073TIP3   OH230633   0.743   4.714  10.838 -0.8258 -0.2586  0.2152
 3073TIP3    H130634   0.798   4.766  10.779  1.0354 -0.7951  1.4404
 3073TIP3    H230635   0.690   4.660  10.779  0.1032  0.1341 -0.9970
 3074TIP3   OH230636   0.664   2.962   2.079  0.9893  0.0711  0.0855
 3074TIP3    H130637   0.579   2.952   2.037  1.1397 -0.2776 -0.1421
 3074TIP3    H230638   0.645   2.969   2.172  0.6635  0.6758 -0.0216
 3075TIP3   OH230639   3.526   4.469  16.453 -0.4151  0.2315 -0.5717
 3075TIP3    H130640   3.473   4.400  16.414  1.7978 -0.4936 -2.3806
 3075TIP3    H230641   3.534   4.443  16.545  0.1796 -1.7989 -1.1665
 3076TIP3   OH230642   0.694   5.411  16.714  0.1949  0.0266 -0.7728
 3076TIP3    H130643   0.641   5.343  16.671  0.4022 -0.6170 -0.0202
 3076TIP3    H230644   0.780   5.371  16.725 -0.2529 -0.3405  1.5325
 3077TIP3   OH230645   5.479   0.056   4.817  0.2382 -0.0141  0.6325
 3077TIP3    H130646   5.540   0.100   4.877 -0.0618  1.4857 -0.1343
 3077TIP3    H230647   5.471   0.116   4.742 -2.8477  0.2629  1.0954
 3078TIP3   OH230648   2.955   6.570   6.438 -0.7822  0.0761  0.1385
 3078TIP3    H130649   2.876   6.615   6.408 -0.0088  0.5145 -1.3164
 3078TIP3    H230650   3.026   6.632   6.420 -0.0919 -0.3461  1.3501
 3079TIP3   OH230651   0.295   3.277  11.393  0.5511 -0.7204 -0.1137
 3079TIP3    H130652   0.381   3.236  11.389  0.8635 -0.1086  0.2666
 3079TIP3    H230653   0.262   3.255  11.480  1.2185  0.8099  0.5473
 3080TIP3   OH230654   2.054   3.417   5.721 -0.3870  0.3612 -0.3797
 3080TIP3    H130655   1.979   3.366   5.691 -0.7920 -0.5842  2.1158
 3080TIP3    H230656   2.121   3.352   5.741 -0.4709  0.8777  1.6604
 3081TIP3   OH230657   2.680   5.395  12.673  0.1864 -0.1295  0.5993
 3081TIP3    H130658   2.736   5.339  12.619 -0.1580  0.2865 -0.1965
 3081TIP3    H230659   2.631   5.448  12.610 -1.1714 -0.5433  1.2696
 3082TIP3   OH230660   4.336   2.534  12.727  0.7808  0.0131  0.7063
 3082TIP3    H130661   4.312   2.626  12.730  2.1493  0.4117 -0.0935
 3082TIP3    H230662   4.302   2.502  12.644  1.0292 -0.0050  0.6121
 3083TIP3   OH230663   4.050   6.409  16.765  0.5865 -0.1907 -0.2007
 3083TIP3    H130664   4.017   6.460  16.690 -0.5828  0.0064  0.4253
 3083TIP3    H230665   4.120   6.463  16.801 -1.2913  1.5257  1.0560
 3084TIP3   OH230666   0.209   1.292   5.227  0.0518 -0.4971  0.1251
 3084TIP3    H130667   0.251   1.304   5.312 -0.2772 -1.5719  0.4446
 3084TIP3    H230668   0.275   1.320   5.163  0.0802  0.8853  0.7502
 3085TIP3   OH230669   2.133   5.327   4.897 -0.1418  0.6176  0.8708
 3085TIP3    H130670   2.187   5.296   4.970 -0.3652 -1.3253  0.2250
 3085TIP3    H230671   2.050   5.281   4.907  0.2625 -0.6401 -1.3302
 3086TIP3   OH230672   2.328   4.951   5.986  0.4221 -0.0067 -0.0716
 3086TIP3    H130673   2.348   4.924   5.896 -0.5011  0.9524 -0.5799
 3086TIP3    H230674   2.403   5.004   6.013 -0.2873  1.5410 -1.0802
 3087TIP3   OH230675   2.292   5.938  11.249 -0.2770 -0.0973 -0.0865
 3087TIP3    H130676   2.267   6.003  11.183 -0.5471 -0.2330 -0.1187
 3087TIP3    H230677   2.260   5.976  11.331 -0.3541 -0.1456 -0.0944
 3088TIP3   OH230678   5.465   0.345   2.830 -0.1394  0.2983  0.3624
 3088TIP3    H130679   5.423   0.350   2.744 -0.2446  1.5293  0.4776
 3088TIP3    H230680   5.394   0.333   2.892 -0.2466  1.4220  0.4651
 3089TIP3   OH230681   0.099   3.929   0.628  0.0809  0.4854 -0.3832
 3089TIP3    H130682   0.007   3.902   0.636 -0.1060  1.6470  1.7696
 3089TIP3    H230683   0.099   3.990   0.554 -0.4180 -1.3548 -1.9350
 3090TIP3   OH230684   0.074   1.338   0.233 -0.0936  0.3078  0.4521
 3090TIP3    H130685   0.043   1.259   0.277  0.1740  0.9005  1.7356
 3090TIP3    H230686   0.162   1.317   0.204 -0.3966 -0.2028 -0.0909
 3091TIP3   OH230687   2.644   2.856   3.379 -0.3520  0.8266 -0.1059
 3091TIP3    H130688   2.623   2.895   3.294  0.4553  0.0777 -0.6571
 3091TIP3    H230689   2.585   2.781   3.387  0.2618  0.3014 -0.4605
 3092TIP3   OH230690   6.305   4.673  14.700 -0.2512  0.8061  0.0899
 3092TIP3    H130691   6.261   4.746  14.656 -1.4158  0.1863  0.1981
 3092TIP3    H230692   6.394   4.673  14.665 -0.9936  0.6703 -1.8692
 3093TIP3   OH230693   6.653   5.534   5.588 -0.3026 -0.0548  0.2709
 3093TIP3    H130694   6.634   5.452   5.633 -1.6931  0.8856  1.4760
 3093TIP3    H230695   6.665   5.598   5.659 -0.7624  1.0898 -0.6601
 3094TIP3   OH230696   5.629   4.958   5.687 -0.2939  0.0938  0.1028
 3094TIP3    H130697   5.666   4.878   5.724  0.0392  0.3378  0.3032
 3094TIP3    H230698   5.543   4.932   5.655 -0.4636 -0.1899  0.7825
 3095TIP3   OH230699   4.162   5.122  16.805  0.0370  0.7660 -0.3923
 3095TIP3    H130700   4.169   5.179  16.881  0.1071  1.0046 -0.5795
 3095TIP3    H230701   4.227   5.054  16.820 -1.0732 -0.1198  0.5753
 3096TIP3   OH230702   1.311   4.277  11.831 -0.9156  0.2017  0.6296
 3096TIP3    H130703   1.405   4.259  11.832 -1.2910 -2.0112 -1.0142
 3096TIP3    H230704   1.281   4.250  11.744 -2.9761  1.4672  0.8972
 3097TIP3   OH230705   6.128   0.912   6.342 -0.2614  0.0063 -0.6085
 3097TIP3    H130706   6.180   0.858   6.282 -0.5084  0.0961 -0.9096
 3097TIP3    H230707   6.045   0.864   6.350 -0.3058  0.1029 -0.5059
 3098TIP3   OH230708   0.536   6.383   5.779 -0.4864 -0.0609 -0.7822
 3098TIP3    H130709   0.510   6.313   5.839  1.9809 -1.3459 -1.1447
 3098TIP3    H230710   0.485   6.365   5.699 -1.8856  0.1685  0.0444
 3099TIP3   OH230711   4.273   1.010  11.871 -0.1126  0.3355 -0.5187
 3099TIP3    H130712   4.215   1.015  11.947  1.8129  0.6792  0.9416
 3099TIP3    H230713   4.348   1.064  11.894  0.9967 -0.4546 -2.2199
 3100TIP3   OH230714   6.503   5.852  12.531  0.8162  0.2802  0.1652
 3100TIP3    H130715   6.565   5.924  12.518  0.0420  0.7139 -1.2410
 3100TIP3    H230716   6.515   5.795  12.455 -0.5210  0.3960 -0.1579
 3101TIP3   OH230717   0.737   4.107  12.797 -0.1974 -0.0540 -0.3188
 3101TIP3    H130718   0.737   4.132  12.704 -1.5435  0.3228 -0.2365
 3101TIP3    H230719   0.693   4.179  12.841  3.3074  1.3244  1.0968
 3102TIP3   OH230720   2.198   3.078   1.563 -0.1755  0.2069 -0.0189
 3102TIP3    H130721   2.138   3.125   1.621 -0.4595  0.4090 -0.4789
 3102TIP3    H230722   2.240   3.013   1.620 -1.7919 -0.8382  0.0330
 3103TIP3   OH230723   5.187   5.746  11.304 -0.3015  0.2482 -0.6872
 3103TIP3    H130724   5.147   5.669  11.345 -1.6096  1.3875  0.2274
 3103TIP3    H230725   5.243   5.711  11.236  1.1615 -1.6744  1.4444
 3104TIP3   OH230726   6.230   2.081  13.690  0.5491 -0.8031 -0.3603
 3104TIP3    H130727   6.214   2.137  13.614  1.3038  0.3629  0.3280
 3104TIP3    H230728   6.210   2.137  13.766  2.9775 -0.8786  0.3885
 3105TIP3   OH230729   3.186   3.698  16.041  0.4097  0.2633  0.1751
 3105TIP3    H130730   3.198   3.785  16.003 -0.9127  0.1905 -0.4107
 3105TIP3    H230731   3.275   3.664  16.051  0.9489  1.7660  0.6135
 3106TIP3   OH230732   1.960   2.278  11.951 -0.1324  0.3900 -0.0043
 3106TIP3    H130733   2.011   2.268  11.871  0.9374  0.2275  0.6947
 3106TIP3    H230734   1.889   2.339  11.926  1.0214  1.4908 -0.6840
 3107TIP3   OH230735   4.698   4.585  17.094  0.0484  0.1775  0.6991
 3107TIP3    H130736   4.658   4.498  17.102  0.6672 -0.2873 -1.0051
 3107TIP3    H230737   4.653   4.626  17.020  0.9955  0.6045  0.3390
 3108TIP3   OH230738   0.399   3.855   3.157 -0.1302  0.1851 -0.8159
 3108TIP3    H130739   0.333   3.894   3.214  0.9947  0.0531  0.5947
 3108TIP3    H230740   0.355   3.845   3.072 -2.3486 -1.1285  0.4382
 3109TIP3   OH230741   1.705   0.288   0.658  0.5906  0.9424  0.3490
 3109TIP3    H130742   1.668   0.281   0.571  2.0283  2.5858 -0.4341
 3109TIP3    H230743   1.657   0.224   0.711 -2.4868  2.1368 -0.8873
 3110TIP3   OH230744   2.399   4.535   0.759 -0.2227  0.0279  0.0435
 3110TIP3    H130745   2.353   4.483   0.825 -1.3316 -0.1337 -0.8375
 3110TIP3    H230746   2.489   4.505   0.763 -0.8087 -1.8069 -0.2967
 3111TIP3   OH230747   4.014   2.436   3.967  0.4106 -0.5033  0.0423
 3111TIP3    H130748   4.010   2.341   3.958  2.0190 -0.5987  0.1206
 3111TIP3    H230749   4.102   2.452   4.001  0.7774  1.1448 -1.6431
 3112TIP3   OH230750   2.735   0.614   1.437 -0.3586  0.3466  0.0304
 3112TIP3    H130751   2.675   0.565   1.494 -0.9710 -1.4902 -2.0959
 3112TIP3    H230752   2.822   0.577   1.457 -0.3323  0.9178  0.9898
 3113TIP3   OH230753   6.615   5.326  12.577  0.2627  0.2409 -0.0928
 3113TIP3    H130754   6.659   5.242  12.593 -0.0878  0.3428  1.4844
 3113TIP3    H230755   6.686   5.387  12.558  0.7551  0.2219  1.6205
 3114TIP3   OH230756   0.109   1.883  13.404 -0.2624  0.6489 -0.1551
 3114TIP3    H130757   0.107   1.978  13.400  0.6947  0.6559 -0.5193
 3114TIP3    H230758   0.061   1.861  13.483  0.8009  1.4991  0.7411
 3115TIP3   OH230759   4.137   6.021   2.457  0.4053  0.0978  0.2507
 3115TIP3    H130760   4.069   5.956   2.472  1.2686 -0.8574  0.1062
 3115TIP3    H230761   4.096   6.087   2.401 -0.4281 -0.4009  0.2705
 3116TIP3   OH230762   1.897   3.030  13.768  0.1579  0.4942  0.1387
 3116TIP3    H130763   1.976   2.980  13.746  0.9997  0.6333  2.7489
 3116TIP3    H230764   1.870   2.997  13.854 -1.3498  2.0173  0.2814
 3117TIP3   OH230765   0.275   3.283  13.270 -0.0429 -0.2590  0.1967
 3117TIP3    H130766   0.309   3.195  13.288 -1.9247 -1.0903 -0.2044
 3117TIP3    H230767   0.226   3.305  13.349 -0.3911  0.0218 -0.0992
 3118TIP3   OH230768   3.868   2.066  14.380  0.3264  0.2663 -0.3359
 3118TIP3    H130769   3.812   2.016  14.321 -2.3851  0.7202  1.7221
 3118TIP3    H230770   3.933   2.003  14.411 -0.8485 -1.0880 -0.5584
 3119TIP3   OH230771   3.832   5.010  14.374 -0.1462  0.6638 -0.6554
 3119TIP3    H130772   3.839   5.004  14.278 -1.2502  2.0540 -0.8382
 3119TIP3    H230773   3.905   5.065  14.400  0.7551 -0.5365 -0.5731
 3120TIP3   OH230774   1.817   3.211  12.167  0.0116  0.4481 -0.1673
 3120TIP3    H130775   1.731   3.239  12.136  0.3613 -0.9510 -2.6114
 3120TIP3    H230776   1.804   3.120  12.194  0.4161  0.6894  0.8745
 3121TIP3   OH230777   3.153   3.488  13.387 -0.1873  0.1187 -0.1038
 3121TIP3    H130778   3.106   3.533  13.457 -1.3873 -1.5734  0.1899
 3121TIP3    H230779   3.245   3.491  13.414 -0.5910 -0.0723  1.3008
 3122TIP3   OH230780   1.206   0.915  10.810  0.7778  0.5774  0.0467
 3122TIP3    H130781   1.162   0.833  10.789  1.2364  0.3753 -0.1419
 3122TIP3    H230782   1.281   0.890  10.865  1.0554  0.8399 -0.2045
 3123TIP3   OH230783   6.564   4.293   2.579 -0.6181  0.1397 -0.4082
 3123TIP3    H130784   6.551   4.252   2.665  1.2437 -0.3044 -0.3326
 3123TIP3    H230785   6.600   4.379   2.599  0.0297 -0.0524 -0.7562
 3124TIP3   OH230786   4.318   5.525   6.246  0.2589  0.4909  0.3504
 3124TIP3    H130787   4.255   5.505   6.314  0.2312 -0.6266  0.0061
 3124TIP3    H230788   4.329   5.442   6.198  1.8862  0.7019  0.3368
 3125TIP3   OH230789   0.165   5.924  12.403 -0.2141 -0.1611  0.5509
 3125TIP3    H130790   0.258   5.943  12.390 -0.6210  0.2085 -2.2720
 3125TIP3    H230791   0.122   6.009  12.395 -0.9028 -0.5073  0.5694
 3126TIP3   OH230792   2.918   5.233   4.309 -0.2161 -0.0871  0.0647
 3126TIP3    H130793   2.978   5.174   4.354 -0.2031  0.1104  0.3093
 3126TIP3    H230794   2.955   5.320   4.324  0.1474 -0.0688 -0.8792
 3127TIP3   OH230795   6.660   0.051  11.383  0.2112 -0.4857 -0.9195
 3127TIP3    H130796   6.701   0.092  11.306 -0.7341 -0.1311 -1.2356
 3127TIP3    H230797   6.603   0.119  11.419 -1.5203 -1.5675 -1.5554
 3128TIP3   OH230798   4.337   1.805  16.574 -0.2192  0.2745 -0.2917
 3128TIP3    H130799   4.407   1.745  16.598 -0.0566 -0.6242 -2.8871
 3128TIP3    H230800   4.273   1.796  16.645  1.9054  0.5619  1.7300
 3129TIP3   OH230801   3.529   4.479  16.746  0.3500 -0.1096 -0.4968
 3129TIP3    H130802   3.622   4.497  16.759  0.2799  3.1655 -3.6581
 3129TIP3    H230803   3.484   4.547  16.797 -0.1948  0.9209 -2.3103
 3130TIP3   OH230804   0.574   3.279   1.582 -0.1343  0.6353  0.1291
 3130TIP3    H130805   0.669   3.267   1.592 -0.3511 -0.5611  0.9146
 3130TIP3    H230806   0.543   3.305   1.668 -0.6663 -0.0611  0.1557
 3131TIP3   OH230807   5.460   1.774   1.308  0.3621  0.2682 -0.1670
 3131TIP3    H130808   5.449   1.862   1.273  3.1931  1.3341  1.3706
 3131TIP3    H230809   5.461   1.787   1.403 -0.2697 -1.5865  0.1018
 3132TIP3   OH230810   1.273   4.314   0.024  0.5725  0.1355 -0.2426
 3132TIP3    H130811   1.183   4.344   0.013  0.0970 -1.2586 -0.2484
 3132TIP3    H230812   1.267   4.218   0.025  2.2133 -0.0110 -1.5892
 3133TIP3   OH230813   4.742   6.605   4.931  0.1541  0.2816  0.0965
 3133TIP3    H130814   4.699   6.544   4.991  1.4186 -0.9768 -0.2446
 3133TIP3    H230815   4.701   6.589   4.846  0.6057 -0.2172 -0.0275
 3134TIP3   OH230816   0.610   4.997  12.866 -0.4350  0.1040  0.2986
 3134TIP3    H130817   0.529   4.961  12.902 -0.8968 -0.0239 -0.8604
 3134TIP3    H230818   0.675   4.929  12.882 -0.7912 -0.2570  0.2256
 3135TIP3   OH230819   5.466   0.144  16.771  0.5975 -0.4466 -0.1553
 3135TIP3    H130820   5.432   0.123  16.858  1.2899 -0.8141  0.0377
 3135TIP3    H230821   5.541   0.201  16.788 -0.6164  1.3211 -0.6257
 3136TIP3   OH230822   3.279   6.499  16.095 -0.0117  0.2958 -0.3662
 3136TIP3    H130823   3.299   6.589  16.070 -2.0683  1.1204  0.8288
 3136TIP3    H230824   3.268   6.502  16.190  0.0357 -1.2497 -0.2963
 3137TIP3   OH230825   0.575   2.377   3.534 -0.4190  0.0276  0.3412
 3137TIP3    H130826   0.609   2.288   3.540 -0.2030  0.1573  1.1037
 3137TIP3    H230827   0.520   2.387   3.612 -1.7352  0.0192 -0.5669
 3138TIP3   OH230828   6.269   6.140   1.622  0.6608  0.5104  0.4933
 3138TIP3    H130829   6.305   6.061   1.580  2.9024  1.8155 -0.1427
 3138TIP3    H230830   6.347   6.186   1.654 -0.6408  2.4117  0.9497
 3139TIP3   OH230831   3.730   1.397  12.372  0.2260 -0.1568 -0.4161
 3139TIP3    H130832   3.712   1.484  12.408  1.3855  0.2229 -0.7210
 3139TIP3    H230833   3.712   1.336  12.443  2.1397  0.5497  0.7071
 3140TIP3   OH230834   5.405   1.242   4.921 -0.2080 -0.2189 -0.2976
 3140TIP3    H130835   5.436   1.161   4.960  1.0990  0.3075 -0.2154
 3140TIP3    H230836   5.477   1.304   4.934 -1.8317  1.4139  1.0940
 3141TIP3   OH230837   4.691   6.104   4.492 -0.5416 -0.2266  0.1437
 3141TIP3    H130838   4.780   6.087   4.463 -0.6980 -0.9757  0.0978
 3141TIP3    H230839   4.694   6.095   4.587 -0.7363 -1.0378  0.0755
 3142TIP3   OH230840   3.116   3.117  14.035 -0.2617 -0.5912  0.0399
 3142TIP3    H130841   3.141   3.024  14.035 -0.0037 -0.5266  0.8074
 3142TIP3    H230842   3.052   3.124  14.105  0.3759 -0.0157  0.5683
 3143TIP3   OH230843   5.723   2.543  11.367 -0.0583 -0.6158 -0.1093
 3143TIP3    H130844   5.783   2.600  11.416 -0.3167 -0.8286  0.4610
 3143TIP3    H230845   5.720   2.581  11.280 -0.4607  0.4330  0.3480
 3144TIP3   OH230846   0.105   5.895  16.950  0.3212 -0.0148 -0.1272
 3144TIP3    H130847   0.198   5.907  16.966  0.2701  0.1583  0.0423
 3144TIP3    H230848   0.086   5.806  16.979  0.4930 -0.1517 -0.4332
 3145TIP3   OH230849   6.783   3.947  17.057  0.1978  0.2733 -0.4091
 3145TIP3    H130850   6.742   4.013  17.113 -0.4556  0.5013 -1.1585
 3145TIP3    H230851   6.797   3.990  16.973  1.1187 -0.0941 -0.4525
 3146TIP3   OH230852   0.234   5.347  15.513  0.0358  0.0750  0.5807
 3146TIP3    H130853   0.152   5.396  15.523 -0.9360 -1.5449  0.6265
 3146TIP3    H230854   0.216   5.262  15.553  1.6158 -0.4361  0.2153
 3147TIP3   OH230855   6.260   4.204  12.735 -0.4325 -0.3965  0.1736
 3147TIP3    H130856   6.215   4.225  12.653  0.7090  1.5983  0.0103
 3147TIP3    H230857   6.211   4.253  12.802  0.7560  0.8562  0.1540
 3148TIP3   OH230858   5.633   6.431  10.185  0.0749  0.7786  0.1784
 3148TIP3    H130859   5.655   6.521  10.208 -1.0348  0.7275  1.5492
 3148TIP3    H230860   5.709   6.380  10.210 -0.3067  1.0085  1.8936
 3149TIP3   OH230861   2.730   3.271  16.332 -0.2611  0.0148 -0.3611
 3149TIP3    H130862   2.694   3.185  16.314  2.0249 -0.5995 -2.1741
 3149TIP3    H230863   2.768   3.263  16.420  0.0231 -0.8691 -0.5570
 3150TIP3   OH230864   3.741   4.202  16.683 -0.3794  0.4747 -0.6461
 3150TIP3    H130865   3.668   4.260  16.704 -0.6818 -0.6216  1.5416
 3150TIP3    H230866   3.700   4.116  16.672  0.7355 -0.5351  2.5350
 3151TIP3   OH230867   2.845   0.822  12.549  0.2154 -0.1221  0.0670
 3151TIP3    H130868   2.847   0.726  12.551 -1.0045 -0.1653 -0.3077
 3151TIP3    H230869   2.781   0.843  12.481 -1.4851  0.9349  1.9265
 3152TIP3   OH230870   3.032   3.585  15.436 -0.1504  0.3600 -1.0361
 3152TIP3    H130871   3.085   3.594  15.356 -1.5601  1.5115 -1.8741
 3152TIP3    H230872   2.989   3.500  15.426  0.3866  0.0788 -1.0371
 3153TIP3   OH230873   6.706   3.387   3.727  0.2095  0.1562 -0.5108
 3153TIP3    H130874   6.784   3.339   3.700  0.6264  0.2428  0.5382
 3153TIP3    H230875   6.705   3.465   3.670  1.7948  1.0008  0.5863
 3154TIP3   OH230876   0.558   4.260   2.858 -0.1428 -0.0028  0.1511
 3154TIP3    H130877   0.571   4.166   2.872  0.3438 -0.4238 -2.7950
 3154TIP3    H230878   0.601   4.301   2.933  0.8133 -2.0730  0.7905
 3155TIP3   OH230879   2.881   6.153  11.840 -0.0556 -0.4333  0.1631
 3155TIP3    H130880   2.918   6.144  11.927  0.8940 -0.1222 -0.1936
 3155TIP3    H230881   2.786   6.143  11.852  0.1790 -1.6578  1.0316
 3156TIP3   OH230882   2.505   3.701  17.191  0.1050  0.0269  0.1858
 3156TIP3    H130883   2.496   3.770  17.125  1.6425  0.6257  0.5780
 3156TIP3    H230884   2.536   3.747  17.269 -0.9184 -0.7972  1.0811
 3157TIP3   OH230885   0.975   0.561   2.893 -0.0068 -0.2552 -0.0561
 3157TIP3    H130886   0.911   0.582   2.961  0.2449 -0.4427  0.2448
 3157TIP3    H230887   1.021   0.643   2.877  0.7251 -0.4695  0.8510
 3158TIP3   OH230888   5.495   4.144   5.356  0.4004  0.5391 -0.7913
 3158TIP3    H130889   5.422   4.186   5.399  0.3535 -0.8222  0.4860
 3158TIP3    H230890   5.461   4.118   5.270 -0.9032 -0.9231  0.1496
 3159TIP3   OH230891   4.742   1.196   2.030 -0.3694  0.0060 -0.0904
 3159TIP3    H130892   4.832   1.229   2.034 -0.8707  1.5599 -1.0144
 3159TIP3    H230893   4.696   1.244   2.099 -0.5792 -0.5114  0.1332
 3160TIP3   OH230894   1.133   1.166  15.290 -0.8272  0.0277  0.7027
 3160TIP3    H130895   1.131   1.080  15.247 -0.0628 -0.5153  1.7339
 3160TIP3    H230896   1.219   1.202  15.269 -1.1829  0.5856  0.1921
 3161TIP3   OH230897   0.415   4.834  12.964 -0.1454 -0.2564 -0.2250
 3161TIP3    H130898   0.370   4.774  12.904 -1.8819 -0.3552  1.1310
 3161TIP3    H230899   0.348   4.899  12.986  0.9086  0.5767  0.4977
 3162TIP3   OH230900   0.958   3.189   6.191 -0.4815 -0.6017 -0.6454
 3162TIP3    H130901   1.050   3.165   6.184 -0.4754 -0.5360 -0.7902
 3162TIP3    H230902   0.927   3.146   6.271 -0.4153 -0.9080 -0.7869
 3163TIP3   OH230903   0.646   4.662   1.810 -0.2208 -0.2976 -0.1463
 3163TIP3    H130904   0.580   4.657   1.879 -0.2178 -1.1677 -0.2100
 3163TIP3    H230905   0.659   4.756   1.798 -0.6500 -0.1287  0.6258
 3164TIP3   OH230906   2.050   0.990   0.372  0.0121  0.1455 -0.4373
 3164TIP3    H130907   2.107   1.011   0.298  0.9371  1.2366  0.5527
 3164TIP3    H230908   1.962   0.988   0.335  0.1843  3.0498 -1.1652
 3165TIP3   OH230909   5.836   1.897  11.002 -0.1191  0.2655  0.0262
 3165TIP3    H130910   5.902   1.899  11.071 -0.2700 -2.9602  0.3455
 3165TIP3    H230911   5.757   1.866  11.045 -1.1645  1.6160 -0.8918
 3166TIP3   OH230912   1.733   4.766  13.252 -0.6386 -0.1262  0.2416
 3166TIP3    H130913   1.676   4.742  13.325  1.4861 -2.2287  1.2610
 3166TIP3    H230914   1.716   4.700  13.185 -0.4359  0.0800 -0.0166
 3167TIP3   OH230915   4.994   6.782  15.160 -0.1538  0.6516  1.0226
 3167TIP3    H130916   4.964   6.783  15.250 -0.1433  0.5104  1.0269
 3167TIP3    H230917   5.087   6.758  15.165  0.4082  2.7072  1.1477
 3168TIP3   OH230918   2.045   2.864   2.333  0.6217 -0.0016 -0.3233
 3168TIP3    H130919   2.067   2.826   2.248  0.5690  0.9887 -0.7991
 3168TIP3    H230920   1.974   2.810   2.367 -0.1753  0.3086 -1.4666
 3169TIP3   OH230921   2.043   4.198  13.747  0.1004 -0.3533  0.6344
 3169TIP3    H130922   2.039   4.203  13.651 -0.2302  0.7637  0.7010
 3169TIP3    H230923   2.133   4.223  13.769  0.4028 -1.3430  0.5889
 3170TIP3   OH230924   2.660   0.893  14.700  0.5377 -0.0509  0.2347
 3170TIP3    H130925   2.576   0.902  14.655  1.7394  1.8066 -1.7412
 3170TIP3    H230926   2.653   0.950  14.776  0.9024  2.2149 -1.3710
 3171TIP3   OH230927   4.403   5.295  12.279  0.0029  0.3492  0.1581
 3171TIP3    H130928   4.428   5.324  12.367 -0.2059 -0.1039  0.3694
 3171TIP3    H230929   4.455   5.216  12.264 -0.3577  0.1191  0.0940
 3172TIP3   OH230930   6.028   6.766  14.594 -0.0093 -0.2618  0.4463
 3172TIP3    H130931   6.045   6.813  14.676  0.1868  0.2718  0.1078
 3172TIP3    H230932   6.092   6.803  14.532 -0.8784  0.1301 -0.2363
 3173TIP3   OH230933   4.429   1.741  13.608 -0.1859  0.2426  0.0600
 3173TIP3    H130934   4.391   1.795  13.677 -0.5035 -0.6314  0.5744
 3173TIP3    H230935   4.476   1.672  13.654  0.5570  0.3104 -0.5892
 3174TIP3   OH230936   0.422   4.343  16.616  0.1448 -0.4261  0.1670
 3174TIP3    H130937   0.358   4.402  16.576  0.6229 -0.6573 -0.9583
 3174TIP3    H230938   0.501   4.353  16.562  1.1281 -0.0215  1.6221
 3175TIP3   OH230939   3.900   6.315   1.739 -0.1863 -0.3714 -0.0915
 3175TIP3    H130940   3.995   6.303   1.727  0.0606  1.3586  0.0025
 3175TIP3    H230941   3.891   6.353   1.827 -0.8626  0.5558 -0.5477
 3176TIP3   OH230942   6.276   0.337  15.586  0.0730 -0.3125  0.0759
 3176TIP3    H130943   6.350   0.389  15.615 -0.5770  0.2804  0.7025
 3176TIP3    H230944   6.254   0.282  15.662  0.5516 -1.2669 -0.4706
 3177TIP3   OH230945   1.706   6.259   5.205  0.4389 -0.0787  0.3907
 3177TIP3    H130946   1.654   6.189   5.167  0.7093  0.2339 -0.5577
 3177TIP3    H230947   1.749   6.219   5.280 -1.8547 -0.1180  1.7335
 3178TIP3   OH230948   4.550   3.880  11.588 -0.2696  0.0861 -0.2775
 3178TIP3    H130949   4.583   3.965  11.618 -0.9145  0.6412 -1.1083
 3178TIP3    H230950   4.463   3.900  11.553 -0.2594 -0.8509 -0.8369
 3179TIP3   OH230951   2.681   6.176   3.186  0.3067  0.3463  0.0178
 3179TIP3    H130952   2.726   6.229   3.121  1.1860 -1.1970 -0.6583
 3179TIP3    H230953   2.733   6.095   3.192 -2.0124 -1.2364 -0.3887
 3180TIP3   OH230954   4.488   0.548   5.071 -0.0211  0.4305  0.8967
 3180TIP3    H130955   4.463   0.539   5.163  2.0344 -1.3429  1.3187
 3180TIP3    H230956   4.553   0.479   5.056 -0.3676  0.6229 -1.9148
 3181TIP3   OH230957   3.610   2.528   0.247  0.7916 -0.2481 -0.4763
 3181TIP3    H130958   3.518   2.530   0.274  0.5197 -0.5373 -1.3981
 3181TIP3    H230959   3.613   2.579   0.167  2.0977  3.0108  1.5507
 3182TIP3   OH230960   2.204   2.491  13.204 -0.2508 -0.2287  0.3913
 3182TIP3    H130961   2.283   2.519  13.158 -2.1953  1.1728 -2.2724
 3182TIP3    H230962   2.212   2.396  13.211  0.3348 -0.4336 -2.5417
 3183TIP3   OH230963   2.301   4.908   1.610  0.3524 -0.1177  0.1693
 3183TIP3    H130964   2.336   4.960   1.682  3.2961  1.6124 -2.3225
 3183TIP3    H230965   2.362   4.834   1.603  0.2089 -0.1657 -0.6182
 3184TIP3   OH230966   1.581   4.542  16.567  0.0210 -0.0594 -0.5132
 3184TIP3    H130967   1.675   4.548  16.581 -0.2740  1.5746  1.0192
 3184TIP3    H230968   1.552   4.633  16.560 -1.5570 -0.5170 -0.2098
 3185TIP3   OH230969   1.059   4.596  12.096  0.2240  0.2261 -0.1704
 3185TIP3    H130970   1.012   4.532  12.150  1.5855 -0.4934  0.1779
 3185TIP3    H230971   1.022   4.586  12.009 -1.4157  0.8197  0.4265
 3186TIP3   OH230972   6.075   6.335   5.199 -0.5383 -0.0155  0.3446
 3186TIP3    H130973   5.989   6.339   5.155 -0.5168 -2.1462  0.0497
 3186TIP3    H230974   6.091   6.242   5.211 -0.2949  0.4758  4.4856
 3187TIP3   OH230975   2.452   3.778   4.756  0.3050  0.5581  0.1883
 3187TIP3    H130976   2.507   3.732   4.691  1.3292 -0.2537  1.5953
 3187TIP3    H230977   2.473   3.736   4.839 -0.4897  2.0405  1.1646
 3188TIP3   OH230978   2.473   6.675   1.324 -0.5154 -0.2830  0.0077
 3188TIP3    H130979   2.565   6.660   1.301 -0.3342  1.3224 -0.3603
 3188TIP3    H230980   2.441   6.589   1.351  1.7048 -0.4517  2.3507
 3189TIP3   OH230981   1.915   6.475  11.647  0.3957 -0.1147 -0.8229
 3189TIP3    H130982   1.828   6.514  11.634 -1.0799 -1.3174  4.5527
 3189TIP3    H230983   1.899   6.381  11.652  2.2322 -0.4626 -1.0961
 3190TIP3   OH230984   0.570   6.272   3.046 -0.1859 -0.4575  0.1044
 3190TIP3    H130985   0.645   6.322   3.014 -0.6207 -0.9692 -1.7698
 3190TIP3    H230986   0.494   6.321   3.018 -0.5715  0.2175  2.2751
 3191TIP3   OH230987   3.283   0.709  15.081 -0.3561 -0.0329 -0.1338
 3191TIP3    H130988   3.240   0.778  15.030  0.9063  0.9687  0.1183
 3191TIP3    H230989   3.254   0.627  15.041  0.1739  0.7191 -2.1046
 3192TIP3   OH230990   2.615   4.640  16.139 -0.4221  0.0236 -0.2807
 3192TIP3    H130991   2.691   4.698  16.139 -0.2236 -0.2312 -0.4204
 3192TIP3    H230992   2.631   4.580  16.213 -0.8556  0.4413  0.1531
 3193TIP3   OH230993   6.541   1.609  17.189  0.3027 -0.8507 -0.5863
 3193TIP3    H130994   6.583   1.530  17.221  0.8366 -0.9341 -1.4643
 3193TIP3    H230995   6.518   1.659  17.268  1.3061 -1.1833 -0.0787
 3194TIP3   OH230996   0.830   4.041   2.862  0.2738  0.0708 -0.4416
 3194TIP3    H130997   0.889   4.074   2.931  1.8209  0.2311 -1.8028
 3194TIP3    H230998   0.797   3.959   2.897  2.6032 -0.8565 -0.2961
 3195TIP3   OH230999   6.458   2.541  16.169  0.2730  0.4948  0.5059
 3195TIP3    H131000   6.460   2.496  16.254 -1.3293  2.2546  1.5205
 3195TIP3    H231001   6.365   2.562  16.156  0.7653  1.8637 -0.8164
 3196TIP3   OH231002   3.329   4.215   2.993  0.9290  0.5388 -0.3562
 3196TIP3    H131003   3.347   4.195   3.086  0.4118 -1.8529 -0.7261
 3196TIP3    H231004   3.407   4.261   2.963  1.8790 -0.2652  0.8216
 3197TIP3   OH231005   5.216   5.980  17.060 -0.6189 -0.3222  0.4507
 3197TIP3    H131006   5.147   6.007  17.122 -0.7323 -0.2688  0.3015
 3197TIP3    H231007   5.214   6.048  16.992 -1.6953 -1.3239 -0.5391
 3198TIP3   OH231008   2.527   3.521  14.198 -0.7628 -0.8465 -0.1091
 3198TIP3    H131009   2.523   3.514  14.294 -0.0326 -0.1791 -0.0264
 3198TIP3    H231010   2.460   3.460  14.167 -1.0712 -0.9976  0.8323
 3199TIP3   OH231011   1.190   2.288   4.858  0.5060 -0.1455  0.4302
 3199TIP3    H131012   1.192   2.298   4.953  1.1320 -0.5702  0.4659
 3199TIP3    H231013   1.117   2.342   4.829 -0.1134 -0.5669  1.2163
 3200TIP3   OH231014   2.324   1.172  13.604 -0.7669 -0.0909  0.1543
 3200TIP3    H131015   2.416   1.172  13.577 -0.9833  1.2501 -0.6867
 3200TIP3    H231016   2.285   1.100  13.555 -0.6911  0.9780 -1.5490
 3201TIP3   OH231017   4.809   6.681   1.920  0.1964  0.2141  0.6413
 3201TIP3    H131018   4.898   6.704   1.895 -0.1131  1.6490  0.8199
 3201TIP3    H231019   4.780   6.754   1.975 -1.4939  0.3207 -0.3533
 3202TIP3   OH231020   5.835   1.666  11.401  0.2602  0.2041  0.3073
 3202TIP3    H131021   5.907   1.627  11.451  0.1834  0.3310  0.5224
 3202TIP3    H231022   5.872   1.687  11.316  0.7583  1.2012  0.7574
 3203TIP3   OH231023   2.542   1.133  13.864 -0.3452 -0.2173 -0.4145
 3203TIP3    H131024   2.470   1.069  13.871 -0.4962 -0.2535 -2.0574
 3203TIP3    H231025   2.615   1.082  13.827  0.1069  0.1273  0.0109
 3204TIP3   OH231026   1.612   3.523  14.090 -0.4502 -0.1880 -0.1518
 3204TIP3    H131027   1.646   3.612  14.096  0.9199 -0.6358 -0.9085
 3204TIP3    H231028   1.641   3.481  14.171 -0.7466 -0.0660  0.0189
 3205TIP3   OH231029   5.268   3.465   3.590  0.3156  0.2223  0.0103
 3205TIP3    H131030   5.261   3.538   3.652  0.4643  0.0971  0.1750
 3205TIP3    H231031   5.329   3.496   3.523  0.2903  0.2921  0.0193
 3206TIP3   OH231032   2.468   2.445   6.228  0.9689  0.3369 -0.0320
 3206TIP3    H131033   2.452   2.352   6.217  0.4667  0.4572 -0.3348
 3206TIP3    H231034   2.448   2.463   6.319 -1.8211  0.7191 -0.6717
 3207TIP3   OH231035   1.171   0.030  11.886  0.0538  0.2201  0.2930
 3207TIP3    H131036   1.175   0.073  11.800 -2.1690  0.3685  0.2427
 3207TIP3    H231037   1.155   0.102  11.947  1.1832  0.0554  0.7822
 3208TIP3   OH231038   0.316   1.811   5.635 -0.7849 -0.0363  0.1654
 3208TIP3    H131039   0.379   1.845   5.698 -1.9955 -1.2757  2.1051
 3208TIP3    H231040   0.238   1.792   5.687 -2.7892  1.4447 -2.1743
 3209TIP3   OH231041   4.486   6.629   1.904 -0.4787 -0.0490  0.1500
 3209TIP3    H131042   4.494   6.614   1.998 -0.7852 -0.0677  0.1752
 3209TIP3    H231043   4.541   6.563   1.864 -1.4489 -0.9544  0.2747
 3210TIP3   OH231044   2.678   6.452   0.497  0.0423  0.5508  0.8002
 3210TIP3    H131045   2.679   6.374   0.554 -1.1954 -0.4191 -0.4839
 3210TIP3    H231046   2.591   6.452   0.458  0.9720  1.0512 -1.3197
 3211TIP3   OH231047   4.173   1.612  13.845 -0.7415 -0.1067  0.5414
 3211TIP3    H131048   4.134   1.553  13.780  0.4239  1.6932 -1.8723
 3211TIP3    H231049   4.169   1.698  13.804 -0.5970  1.2034  3.1887
 3212TIP3   OH231050   5.141   3.817   2.050 -0.1348 -0.4576  0.0597
 3212TIP3    H131051   5.218   3.813   1.993  0.7446  2.2816  1.0125
 3212TIP3    H231052   5.176   3.831   2.137 -1.6867 -0.0919  0.6476
 3213TIP3   OH231053   5.899   4.654   2.581  1.1068 -0.0573  0.1300
 3213TIP3    H131054   5.929   4.564   2.568  0.5692 -0.1339 -0.6069
 3213TIP3    H231055   5.803   4.648   2.577  1.0168  0.3499  1.3884
 3214TIP3   OH231056   3.705   4.414   0.302  0.0535  0.2862  0.2208
 3214TIP3    H131057   3.689   4.419   0.397 -0.0899  1.6555  0.1416
 3214TIP3    H231058   3.737   4.501   0.279  0.1839 -0.0703 -0.9777
 3215TIP3   OH231059   3.696   1.385   0.948  0.3311 -0.4032  0.0129
 3215TIP3    H131060   3.691   1.450   0.878  0.5876 -0.8112 -0.3874
 3215TIP3    H231061   3.736   1.308   0.907 -0.6865 -1.0856  0.2742
 3216TIP3   OH231062   3.532   1.935   0.699 -0.1050 -0.5214  0.3641
 3216TIP3    H131063   3.558   1.972   0.783 -0.3624 -0.1324  0.2753
 3216TIP3    H231064   3.613   1.905   0.659  0.0724 -0.3018  0.5621
 3217TIP3   OH231065   3.987   4.502   6.046  0.1055  0.0101  0.3923
 3217TIP3    H131066   4.048   4.573   6.066 -1.0897  0.4371  2.6716
 3217TIP3    H231067   4.034   4.423   6.070 -0.2193  0.3409  2.1926
 3218TIP3   OH231068   6.668   5.456  14.208 -0.0979  0.3549 -0.5658
 3218TIP3    H131069   6.735   5.469  14.140  0.9987  1.5660  0.7197
 3218TIP3    H231070   6.590   5.500  14.174 -0.5994 -1.9559 -2.5419
 3219TIP3   OH231071   4.840   2.607  15.264  0.1134  0.9174 -0.2566
 3219TIP3    H131072   4.862   2.659  15.187 -0.1218  1.4876  0.0575
 3219TIP3    H231073   4.787   2.665  15.318 -2.0007 -0.3729 -0.9029
 3220TIP3   OH231074   5.430   0.585  13.336 -0.1854 -0.5392  0.5031
 3220TIP3    H131075   5.481   0.630  13.268  0.6707 -1.3707  0.5884
 3220TIP3    H231076   5.383   0.516  13.290 -0.9989  0.0181  0.4786
 3221TIP3   OH231077   0.571   4.633  12.722 -0.2823 -0.0415 -0.7571
 3221TIP3    H131078   0.520   4.691  12.665 -0.7697  1.2094  0.9275
 3221TIP3    H231079   0.636   4.690  12.763  0.4183 -1.0340 -0.4618
 3222TIP3   OH231080   0.271   1.210   5.759  0.0543 -0.4489 -0.6499
 3222TIP3    H131081   0.221   1.161   5.825 -0.7196  0.9646 -0.1834
 3222TIP3    H231082   0.361   1.176   5.767  0.2780  0.7367  2.1343
 3223TIP3   OH231083   3.573   2.331  17.219 -0.7150  0.7898 -0.2081
 3223TIP3    H131084   3.498   2.390  17.226  0.1094  1.8442 -0.2834
 3223TIP3    H231085   3.605   2.343  17.130  0.5299  1.5276  0.3300
 3224TIP3   OH231086   6.162   4.175   1.608  0.7155  0.1758  0.1775
 3224TIP3    H131087   6.236   4.222   1.569  1.3087 -0.8731  0.0144
 3224TIP3    H231088   6.159   4.093   1.560 -0.7812  0.3552 -0.0379
 3225TIP3   OH231089   2.517   4.386  14.492 -0.1761  0.3245 -0.3631
 3225TIP3    H131090   2.511   4.292  14.476 -1.8204  0.6094 -1.4977
 3225TIP3    H231091   2.496   4.396  14.585  0.6032 -0.4796 -0.0992
 3226TIP3   OH231092   2.040   3.932   5.971  0.2284  0.6215  0.5647
 3226TIP3    H131093   2.054   3.953   6.063  0.4141 -0.7852  0.8686
 3226TIP3    H231094   2.126   3.904   5.940  0.4420  2.2454 -0.3631
 3227TIP3   OH231095   3.851   6.422   2.710  0.0114  0.2196 -0.8100
 3227TIP3    H131096   3.862   6.327   2.707 -0.3984  0.1800 -1.1992
 3227TIP3    H231097   3.940   6.457   2.707  0.1848 -0.1605 -0.1692
 3228TIP3   OH231098   3.830   4.575   3.780  0.1176  0.1876  0.0327
 3228TIP3    H131099   3.916   4.602   3.748  0.5014  1.6271  2.1456
 3228TIP3    H231100   3.845   4.488   3.817  0.2443 -0.3686 -1.3243
 3229TIP3   OH231101   5.462   1.285   3.663 -0.5957  0.8162 -0.4077
 3229TIP3    H131102   5.532   1.220   3.651 -0.7654  0.5219  0.1681
 3229TIP3    H231103   5.450   1.290   3.758 -1.4952  0.7158 -0.5137
 3230TIP3   OH231104   3.882   2.113  17.147  0.0754  0.2532 -0.1082
 3230TIP3    H131105   3.856   2.095  17.057 -0.3184 -0.7572  0.1917
 3230TIP3    H231106   3.881   2.208  17.155 -2.8856  0.3005 -0.3127
 3231TIP3   OH231107   3.466   5.328   0.117 -0.1591 -0.3627 -0.3547
 3231TIP3    H131108   3.390   5.380   0.093 -1.6017 -2.0737  0.4053
 3231TIP3    H231109   3.457   5.247   0.066  1.4747 -0.3387 -0.7069
 3232TIP3   OH231110   4.073   2.645  15.417  0.0220 -0.5349 -0.2653
 3232TIP3    H131111   4.161   2.618  15.445  0.5914  1.0278 -0.4686
 3232TIP3    H231112   4.053   2.721  15.472 -0.6084 -0.0156 -1.1988
 3233TIP3   OH231113   0.275   3.260   0.169 -0.0803  0.2937  0.1201
 3233TIP3    H131114   0.357   3.298   0.140 -0.2006  0.6335  0.2168
 3233TIP3    H231115   0.214   3.273   0.096 -0.2253  0.6309  0.2989
 3234TIP3   OH231116   5.749   3.034   2.678  0.2804  0.1233  0.3475
 3234TIP3    H131117   5.703   3.117   2.691  0.3743  0.4370 -1.1843
 3234TIP3    H231118   5.790   3.015   2.763  0.4665  1.7689  0.6404
 3235TIP3   OH231119   4.589   3.410  16.084 -0.2727 -0.2380  0.0828
 3235TIP3    H131120   4.600   3.503  16.104  0.7713 -0.4625  0.5903
 3235TIP3    H231121   4.613   3.365  16.165 -0.7921 -0.9542 -0.1557
 3236TIP3   OH231122   0.058   2.097  15.892 -0.1590  0.2230  0.0219
 3236TIP3    H131123   0.065   2.112  15.986 -3.4020  0.8850  0.1907
 3236TIP3    H231124   0.032   2.005  15.884  0.0060  0.1979 -0.2572
 3237TIP3   OH231125   0.574   5.667   2.951 -0.0859 -0.6245 -0.4163
 3237TIP3    H131126   0.585   5.762   2.950 -0.4620 -0.5840 -0.5427
 3237TIP3    H231127   0.602   5.638   2.864 -0.3087 -0.5939 -0.4978
 3238TIP3   OH231128   4.134   3.071  14.578  0.1021 -0.8419  0.5036
 3238TIP3    H131129   4.040   3.084  14.573  0.0366 -1.5119 -0.0607
 3238TIP3    H231130   4.157   3.093  14.669 -0.7452 -1.6426  0.9113
 3239TIP3   OH231131   1.370   4.223   0.585 -0.0851 -0.2375  0.1975
 3239TIP3    H131132   1.330   4.233   0.671 -1.4276 -3.0231 -0.0583
 3239TIP3    H231133   1.408   4.136   0.586  0.1515 -0.1809 -1.9162
 3240TIP3   OH231134   2.411   1.939  15.048 -0.1050 -0.0013 -0.6885
 3240TIP3    H131135   2.326   1.946  15.005  0.1405 -0.1204 -1.1937
 3240TIP3    H231136   2.404   1.860  15.102 -0.9958  1.0764  0.8158
 3241TIP3   OH231137   6.332   4.923  12.957  0.3301 -0.3906  0.3737
 3241TIP3    H131138   6.335   5.004  12.907 -1.7701 -0.9953 -0.8053
 3241TIP3    H231139   6.267   4.939  13.026  0.4516 -0.8185  0.5925
 3242TIP3   OH231140   5.756   1.302  15.635 -0.1189  0.9132  0.3767
 3242TIP3    H131141   5.801   1.382  15.606 -0.9439  1.2354 -0.0553
 3242TIP3    H231142   5.671   1.333  15.666  0.3463  0.4431  2.2041
 3243TIP3   OH231143   1.085   1.783   4.630 -0.2587  0.1393 -0.3471
 3243TIP3    H131144   1.166   1.820   4.595  0.7249 -2.1446 -0.5470
 3243TIP3    H231145   1.084   1.692   4.599 -2.0984 -0.3338  0.9920
 3244TIP3   OH231146   3.158   0.793  15.941 -0.1626  0.5871  0.0308
 3244TIP3    H131147   3.236   0.737  15.947  0.7352  2.0490  3.3691
 3244TIP3    H231148   3.192   0.880  15.919 -0.9449  1.0053  0.4476
 3245TIP3   OH231149   5.944   5.670   2.590  0.2155  0.1155 -0.0103
 3245TIP3    H131150   6.027   5.664   2.639  0.5860  0.7562 -0.5540
 3245TIP3    H231151   5.956   5.611   2.516 -0.0649 -0.2868  0.2610
 3246TIP3   OH231152   4.339   5.398  15.514 -0.7502 -0.7892  0.0618
 3246TIP3    H131153   4.337   5.442  15.599  0.4760  0.4096 -0.5111
 3246TIP3    H231154   4.399   5.451  15.461  0.0496 -2.6399 -0.9309
 3247TIP3   OH231155   0.935   0.603   0.029 -0.9119 -0.0237  0.3395
 3247TIP3    H131156   0.961   0.552   0.106 -0.3065 -2.1001 -1.2064
 3247TIP3    H231157   0.845   0.629   0.047 -0.5395  0.1524  2.0638
 3248TIP3   OH231158   4.324   0.255  13.269  0.0346 -0.5527 -0.4261
 3248TIP3    H131159   4.311   0.306  13.348 -0.9285 -0.5576 -0.5823
 3248TIP3    H231160   4.260   0.184  13.275  0.7884 -1.2571 -0.6155
 3249TIP3   OH231161   6.215   4.372  16.016  0.2160  0.3870  0.3868
 3249TIP3    H131162   6.142   4.375  16.077  1.4596 -1.6437  2.0331
 3249TIP3    H231163   6.236   4.279  16.007  0.2931  0.6485 -2.9028
 3250TIP3   OH231164   5.490   1.052  13.361  0.0049 -0.7093 -1.0042
 3250TIP3    H131165   5.446   1.083  13.282 -0.2712 -2.4375 -1.5672
 3250TIP3    H231166   5.514   1.131  13.408 -0.2000  0.3440 -2.6224
 3251TIP3   OH231167   3.785   1.556   5.275 -0.5755 -0.3542  0.3470
 3251TIP3    H131168   3.833   1.562   5.193 -0.1672 -1.2718  0.5214
 3251TIP3    H231169   3.852   1.540   5.341 -0.8139  1.1257  0.9753
 3252TIP3   OH231170   2.073   2.562   3.632 -0.1905  0.2824  0.1956
 3252TIP3    H131171   2.084   2.491   3.569 -0.8394 -0.7643  1.2344
 3252TIP3    H231172   2.143   2.549   3.695 -0.7271  0.1462  0.7691
 3253TIP3   OH231173   5.618   5.629   4.923  0.4818 -0.5485 -0.2889
 3253TIP3    H131174   5.591   5.612   5.013  2.7244  3.5490  1.3123
 3253TIP3    H231175   5.666   5.550   4.897 -1.9918 -2.6372  1.2767
 3254TIP3   OH231176   4.289   3.189   0.102 -0.7281 -0.0353  0.2190
 3254TIP3    H131177   4.195   3.208   0.092 -0.6409 -0.3921 -1.4754
 3254TIP3    H231178   4.333   3.271   0.080 -0.6011 -0.2922 -0.5162
 3255TIP3   OH231179   2.979   1.739   5.714  0.4742 -0.2266 -0.2817
 3255TIP3    H131180   2.997   1.705   5.626  0.2320  1.0280 -0.8316
 3255TIP3    H231181   3.023   1.824   5.716 -1.8312  1.0235 -0.2009
 3256TIP3   OH231182   3.444   0.367  12.764 -0.0816  0.3146  0.3279
 3256TIP3    H131183   3.421   0.312  12.689  0.1126  1.6504 -0.7324
 3256TIP3    H231184   3.532   0.400  12.743 -0.6518  1.9377  0.3920
 3257TIP3   OH231185   0.017   0.841   0.904  0.3402 -0.3798 -0.1474
 3257TIP3    H131186   0.032   0.772   0.969  0.0470  0.2340  0.5704
 3257TIP3    H231187   0.105   0.871   0.880  0.4005  0.5281  1.1859
 3258TIP3   OH231188   4.800   0.957   1.266 -0.9488  0.0697  0.2839
 3258TIP3    H131189   4.818   1.000   1.182 -1.0413  0.5965  0.5350
 3258TIP3    H231190   4.885   0.951   1.309 -0.7112 -1.2323 -0.3287
 3259TIP3   OH231191   6.602   2.244  15.115  0.6516 -0.4544  0.5141
 3259TIP3    H131192   6.572   2.174  15.057 -0.8570  0.9637 -0.4436
 3259TIP3    H231193   6.576   2.216  15.203 -2.7694  0.2954 -0.1819
 3260TIP3   OH231194   6.641   1.633  12.367  0.2539  0.1954  0.3141
 3260TIP3    H131195   6.642   1.682  12.285 -1.2439  0.7787  0.6260
 3260TIP3    H231196   6.713   1.571  12.359 -0.3909 -0.3221 -1.7915
 3261TIP3   OH231197   4.753   4.095  16.463  0.1240  0.7055 -0.0376
 3261TIP3    H131198   4.696   4.080  16.538  0.6775  0.5693  0.3586
 3261TIP3    H231199   4.712   4.167  16.415 -0.8772 -0.0026 -0.2665
 3262TIP3   OH231200   0.240   2.810  14.716 -0.4671 -0.8340 -0.9443
 3262TIP3    H131201   0.184   2.866  14.662 -2.1827  0.3595  1.9352
 3262TIP3    H231202   0.272   2.868  14.785  0.9170 -2.5224 -0.1397
 3263TIP3   OH231203   5.074   3.485   0.931  0.4906 -0.0722 -0.2826
 3263TIP3    H131204   5.091   3.519   0.843 -0.4488  0.5806 -0.2068
 3263TIP3    H231205   5.098   3.556   0.990 -0.2301 -0.0077 -0.0678
 3264TIP3   OH231206   6.257   5.758   0.336  0.0250 -0.2780 -0.0261
 3264TIP3    H131207   6.232   5.849   0.353  0.1344 -0.4404  1.0302
 3264TIP3    H231208   6.221   5.739   0.249 -0.7621  0.4938  0.1270
 3265TIP3   OH231209   6.044   0.055  11.925  0.3814 -0.5054  0.5383
 3265TIP3    H131210   5.964   0.021  11.885 -0.7360  3.1492 -0.5496
 3265TIP3    H231211   6.065  -0.008  11.994 -3.5098 -1.4908  0.9582
 3266TIP3   OH231212   5.302   2.017   2.561  0.4711  0.4326 -0.0582
 3266TIP3    H131213   5.318   2.111   2.573  0.4076  0.7137 -1.9561
 3266TIP3    H231214   5.289   1.983   2.649 -1.0498  2.4951  0.5445
 3267TIP3   OH231215   5.003   1.235   5.657  0.1635  0.7169 -0.0927
 3267TIP3    H131216   4.974   1.282   5.735  0.0508 -1.2411  1.0784
 3267TIP3    H231217   4.926   1.230   5.601 -0.8895 -1.3783  1.4647
 3268TIP3   OH231218   4.413   1.520  11.832 -0.2098  0.1250 -0.5845
 3268TIP3    H131219   4.481   1.558  11.887 -0.8790  0.1314  0.2641
 3268TIP3    H231220   4.375   1.595  11.785  0.0185  0.1917 -0.6614
 3269TIP3   OH231221   3.994   0.356   0.738  0.2275  0.1825  0.2638
 3269TIP3    H131222   3.956   0.270   0.755 -2.8322  1.6590  1.2066
 3269TIP3    H231223   3.940   0.393   0.667  1.5203  1.3082 -0.1644
 3270TIP3   OH231224   4.463   3.430  14.776  0.0946 -0.1413  0.1651
 3270TIP3    H131225   4.394   3.496  14.777  0.7256  0.5157  0.8606
 3270TIP3    H231226   4.521   3.456  14.704 -0.7011 -1.0251 -0.7981
 3271TIP3   OH231227   1.654   5.610  11.764  0.4008  0.3341  0.4053
 3271TIP3    H131228   1.620   5.659  11.689  1.3861  1.3942  0.6362
 3271TIP3    H231229   1.665   5.676  11.833 -1.5395 -0.8183  1.8480
 3272TIP3   OH231230   4.055   0.111  11.244 -0.3753 -0.3017 -0.3775
 3272TIP3    H131231   4.077   0.171  11.172  1.7328 -1.0665 -0.3844
 3272TIP3    H231232   4.004   0.041  11.201  0.4997 -0.5323 -1.0532
 3273TIP3   OH231233   4.828   2.470   0.478 -0.0651  0.1698  0.4135
 3273TIP3    H131234   4.772   2.439   0.406 -1.4231  0.4872  1.3216
 3273TIP3    H231235   4.812   2.408   0.549  0.0081  0.8357  1.0065
 3274TIP3   OH231236   3.797   2.466  12.054  0.2788 -0.2106 -0.0989
 3274TIP3    H131237   3.869   2.403  12.054  1.7637  1.4549 -1.0628
 3274TIP3    H231238   3.795   2.502  11.965 -2.3647 -0.9007 -0.3695
 3275TIP3   OH231239   1.371   5.511  12.289 -0.6707  0.0652  0.6482
 3275TIP3    H131240   1.320   5.463  12.224  1.0354  0.2632 -0.8880
 3275TIP3    H231241   1.401   5.590  12.243 -2.3990  2.0229  2.7496
 3276TIP3   OH231242   2.138   5.190   3.663  0.3213 -0.2555  0.3161
 3276TIP3    H131243   2.169   5.237   3.740  0.5214 -1.3734  0.9323
 3276TIP3    H231244   2.065   5.136   3.695 -0.4104  0.2044 -0.5333
 3277TIP3   OH231245   5.884   4.832  15.882 -0.4746 -0.2982  0.6353
 3277TIP3    H131246   5.877   4.824  15.978 -2.2412 -1.1105  0.4744
 3277TIP3    H231247   5.921   4.919  15.867  1.4984 -0.8486  2.0921
 3278TIP3   OH231248   0.406   4.813  11.722  0.0771  0.2960  0.1101
 3278TIP3    H131249   0.471   4.766  11.774  0.7138  0.1975 -0.7737
 3278TIP3    H231250   0.440   4.902  11.715  0.0876  0.2616 -0.2958
 3279TIP3   OH231251   3.481   2.623   3.595 -0.5596 -0.3129 -0.4768
 3279TIP3    H131252   3.536   2.695   3.626 -1.6904  0.5902 -0.5180
 3279TIP3    H231253   3.453   2.650   3.508 -2.5043  0.0764  0.2394
 3280TIP3   OH231254   0.501   6.706   0.398 -0.1574 -0.3021 -0.0130
 3280TIP3    H131255   0.500   6.769   0.470 -2.6443 -0.3986  0.0724
 3280TIP3    H231256   0.515   6.760   0.320  2.8524 -0.2302  0.5081
 3281TIP3   OH231257   2.370   6.713   4.725 -0.2506 -0.3529  0.1566
 3281TIP3    H131258   2.375   6.619   4.712  0.0469 -0.6268  2.2356
 3281TIP3    H231259   2.449   6.747   4.682 -0.7855 -0.9302 -1.3393
 3282TIP3   OH231260   3.384   4.512   2.034  0.1220  0.0666  0.4328
 3282TIP3    H131261   3.395   4.508   2.129  0.1732 -0.8438  0.3921
 3282TIP3    H231262   3.289   4.523   2.021 -0.1124 -1.7022  0.5497
 3283TIP3   OH231263   2.324   1.571   5.889  0.3899  0.6989  0.4840
 3283TIP3    H131264   2.271   1.557   5.967 -0.4413 -0.6714 -0.3081
 3283TIP3    H231265   2.413   1.585   5.923  0.4468 -1.9952  1.6309
 3284TIP3   OH231266   0.075   5.534  16.764 -0.0662  0.3372  0.0378
 3284TIP3    H131267   0.008   5.467  16.778 -0.9614  1.3842  0.8909
 3284TIP3    H231268   0.124   5.504  16.688 -0.0689 -1.5824  0.7760
 3285TIP3   OH231269   4.712   3.008   0.232  0.5538  0.3107  0.5641
 3285TIP3    H131270   4.746   2.994   0.144 -2.6247 -0.1937 -0.6854
 3285TIP3    H231271   4.752   2.940   0.285  1.3696 -0.3019 -0.8138
 3286TIP3   OH231272   3.347   5.360  16.448  0.3171  0.9129 -0.2507
 3286TIP3    H131273   3.408   5.380  16.519 -0.6514  1.1640  0.5193
 3286TIP3    H231274   3.397   5.304  16.388 -0.3731 -3.6244  3.1488
 3287TIP3   OH231275   2.394   1.757  15.727  0.0989  0.2723  0.1795
 3287TIP3    H131276   2.349   1.767  15.643  1.7222  0.7644 -0.6336
 3287TIP3    H231277   2.324   1.764  15.792 -0.9825  1.1987 -1.0633
 3288TIP3   OH231278   3.232   0.255  17.072  0.0092  0.0496  0.4022
 3288TIP3    H131279   3.279   0.326  17.029 -0.0511 -0.7907 -1.0740
 3288TIP3    H231280   3.182   0.213  17.002  0.5696 -1.8794  1.1185
 3289TIP3   OH231281   3.033   3.711   2.209 -0.4415  0.7031 -0.3190
 3289TIP3    H131282   3.073   3.672   2.288 -1.5993  1.8304  0.8456
 3289TIP3    H231283   3.069   3.800   2.206 -1.2000  1.0033 -0.4782
 3290TIP3   OH231284   6.328   2.207   0.283  0.5792 -0.0217 -0.3299
 3290TIP3    H131285   6.402   2.228   0.227  2.5273 -0.8641  1.8432
 3290TIP3    H231286   6.360   2.137   0.340 -2.4521 -1.6637 -0.5274
 3291TIP3   OH231287   0.432   4.366  14.520  0.1412  0.2101  0.0752
 3291TIP3    H131288   0.409   4.454  14.492  1.0566  0.4644  0.1048
 3291TIP3    H231289   0.521   4.353  14.489  0.3049 -0.4023  0.7728
 3292TIP3   OH231290   1.951   1.122   1.863 -0.1022 -0.1528  0.6377
 3292TIP3    H131291   1.938   1.197   1.921  1.0797  1.0805 -0.6545
 3292TIP3    H231292   2.045   1.122   1.845 -0.3586 -0.9049 -0.7507
 3293TIP3   OH231293   2.284   3.345   3.831  0.1185 -1.0852  0.4663
 3293TIP3    H131294   2.313   3.312   3.746 -1.1158 -0.3885 -0.2369
 3293TIP3    H231295   2.241   3.270   3.872  0.5373 -1.3657  0.3941
 3294TIP3   OH231296   0.507   4.245  15.065  0.2703  0.2425  0.1883
 3294TIP3    H131297   0.462   4.260  15.149 -0.1335  0.2986 -0.0347
 3294TIP3    H231298   0.497   4.327  15.018  1.9739  0.7952  0.7509
 3295TIP3   OH231299   4.711   0.544   5.292 -0.5957 -0.0961  0.5884
 3295TIP3    H131300   4.762   0.467   5.270  0.9493  1.2726 -0.7664
 3295TIP3    H231301   4.776   0.612   5.309 -1.9379  1.5740 -0.7367
 3296TIP3   OH231302   2.745   6.626   2.804  0.4553 -0.2028 -0.0608
 3296TIP3    H131303   2.828   6.673   2.803  0.4651 -0.1435  1.5977
 3296TIP3    H231304   2.681   6.688   2.839  0.3734 -1.2341  1.6849
 3297TIP3   OH231305   5.565   4.739  16.582  0.5659 -0.1692 -0.7769
 3297TIP3    H131306   5.651   4.728  16.542  1.2087 -0.7028  0.7189
 3297TIP3    H231307   5.572   4.694  16.666 -1.9713 -2.4286 -1.7214
 3298TIP3   OH231308   5.933   3.786   3.846  0.0438 -0.0205  0.2054
 3298TIP3    H131309   5.915   3.790   3.752 -0.0408 -1.7495  0.1199
 3298TIP3    H231310   5.861   3.733   3.882  0.8319 -0.5695  1.0121
 3299TIP3   OH231311   2.931   1.559   6.504 -0.1387 -0.4290  0.3311
 3299TIP3    H131312   3.009   1.504   6.503 -0.4390 -0.8643  0.8650
 3299TIP3    H231313   2.858   1.499   6.517 -0.6677 -0.1359 -1.0597
 3300TIP3   OH231314   4.414   1.992   2.616 -0.1507  0.2192  0.1091
 3300TIP3    H131315   4.387   1.901   2.629 -0.3368  0.0339 -1.4991
 3300TIP3    H231316   4.373   2.040   2.689 -1.1338 -0.7692  0.2171
 3301TIP3   OH231317   4.518   5.711   3.770  0.3130 -0.1302 -0.4881
 3301TIP3    H131318   4.429   5.688   3.743  0.2713  1.0728 -1.4330
 3301TIP3    H231319   4.527   5.803   3.745  2.0619 -0.4351 -1.0282
 3302TIP3   OH231320   6.727   3.105   3.132  0.3191  0.2125  0.1965
 3302TIP3    H131321   6.720   3.161   3.209 -1.7903  0.6520 -0.2628
 3302TIP3    H231322   6.778   3.029   3.161 -2.2255 -0.6582  2.6799
 3303TIP3   OH231323   3.473   4.227  16.714 -0.0685 -0.3904  0.2688
 3303TIP3    H131324   3.408   4.251  16.649  0.7973 -0.5382 -0.6742
 3303TIP3    H231325   3.496   4.309  16.757 -0.2789 -0.2116  0.0410
 3304TIP3   OH231326   6.706   5.390   2.687  0.5236  0.4762 -0.2353
 3304TIP3    H131327   6.783   5.359   2.640  0.0425  0.6327 -1.1469
 3304TIP3    H231328   6.664   5.452   2.626 -1.3064 -0.9651 -0.5120
 3305TIP3   OH231329   3.931   0.216   1.013 -0.0759 -0.2259 -0.0491
 3305TIP3    H131330   3.880   0.288   1.049 -0.4176  0.5029 -1.9560
 3305TIP3    H231331   3.871   0.141   1.013 -1.2251  0.6386 -2.3411
 3306TIP3   OH231332   3.353   1.190   1.830 -0.0271 -0.2565  0.3965
 3306TIP3    H131333   3.388   1.102   1.840  0.4353 -0.4070 -2.2269
 3306TIP3    H231334   3.268   1.177   1.789  0.4178  0.5713 -0.7915
 3307TIP3   OH231335   0.865   0.824  17.021 -0.3686 -0.2099 -1.1411
 3307TIP3    H131336   0.857   0.859  17.109 -0.6462 -0.8419 -0.9065
 3307TIP3    H231337   0.949   0.856  16.989 -0.8721  1.1146 -1.1447
 3308TIP3   OH231338   3.051   2.344  15.781  0.6631  0.2882  0.3148
 3308TIP3    H131339   3.110   2.360  15.855  0.5991 -0.6989  0.5826
 3308TIP3    H231340   3.109   2.318  15.710  0.7868  1.8670 -0.1823
 3309TIP3   OH231341   4.997   5.259  14.454  0.2774 -0.3755  0.5035
 3309TIP3    H131342   5.026   5.336  14.503 -0.9324  0.3210  0.1305
 3309TIP3    H231343   4.935   5.215  14.513 -0.1423 -0.2705  0.1422
 3310TIP3   OH231344   5.329   1.120   5.230  0.3857  0.4157  0.0720
 3310TIP3    H131345   5.362   1.047   5.282  1.1509 -0.8445 -2.0916
 3310TIP3    H231346   5.237   1.129   5.255  0.4012 -1.0298  0.6487
 3311TIP3   OH231347   0.761   5.303   2.968  0.5693 -0.3772  0.0614
 3311TIP3    H131348   0.733   5.225   2.921  0.1859 -0.1488 -0.0909
 3311TIP3    H231349   0.680   5.353   2.983  0.6883 -0.4395  0.9395
 3312TIP3   OH231350   0.969   3.696  16.780  0.2783 -0.7924 -0.2417
 3312TIP3    H131351   1.017   3.758  16.834  0.4668 -1.4503  0.3579
 3312TIP3    H231352   1.029   3.622  16.770 -0.9827 -2.0551  1.3434
 3313TIP3   OH231353   4.574   6.183   5.499 -0.0753 -0.2209 -0.1160
 3313TIP3    H131354   4.666   6.205   5.510 -0.0018 -0.4262 -0.3198
 3313TIP3    H231355   4.529   6.268   5.499  0.1993 -0.0669 -0.7846
 3314TIP3   OH231356   4.796   3.586  11.827  0.7230 -0.4599  0.6170
 3314TIP3    H131357   4.797   3.682  11.834 -1.1793 -0.3438 -0.4923
 3314TIP3    H231358   4.744   3.558  11.903  1.1752 -0.6192  0.8697
 3315TIP3   OH231359   3.811   3.938   4.893  0.3183  0.2964  0.2951
 3315TIP3    H131360   3.774   3.990   4.822  0.5441  0.4338  0.2758
 3315TIP3    H231361   3.757   3.958   4.969 -0.7037 -0.8042 -0.1209
 3316TIP3   OH231362   5.257   5.959   4.880 -0.4279 -0.2469 -0.1986
 3316TIP3    H131363   5.242   5.899   4.953 -1.2036 -0.9143 -0.8927
 3316TIP3    H231364   5.174   6.005   4.868 -0.5727 -0.7533 -1.1964
 3317TIP3   OH231365   3.435   0.482  11.452  0.0592 -0.0574  0.0819
 3317TIP3    H131366   3.341   0.497  11.456  0.2130  1.0900 -0.2792
 3317TIP3    H231367   3.445   0.387  11.449 -1.0186 -0.2641  2.0145
 3318TIP3   OH231368   4.243   2.803  12.706  0.8913  0.2565  0.4744
 3318TIP3    H131369   4.162   2.792  12.656  0.3100  0.1228  1.4325
 3318TIP3    H231370   4.247   2.897  12.723  0.3813  0.1296  1.3312
 3319TIP3   OH231371   4.937   4.834  10.750  0.3457 -0.5234  0.1654
 3319TIP3    H131372   5.024   4.848  10.714  0.0060  0.5015 -0.2658
 3319TIP3    H231373   4.912   4.747  10.720  1.2637 -0.8676  0.3832
 3320TIP3   OH231374   3.493   0.095  12.599 -0.4396  0.7623 -0.0441
 3320TIP3    H131375   3.520   0.032  12.532  0.5821  1.7772 -0.6177
 3320TIP3    H231376   3.514   0.053  12.682 -2.0890 -0.6802 -0.3317
 3321TIP3   OH231377   6.441   5.060  15.890 -0.0937  0.7020  0.0060
 3321TIP3    H131378   6.392   4.980  15.912 -0.0211  1.3453  2.6206
 3321TIP3    H231379   6.503   5.032  15.823 -0.1418 -1.4166  0.8066
 3322TIP3   OH231380   2.522   2.356  11.382 -0.1339 -0.2432  0.5357
 3322TIP3    H131381   2.521   2.263  11.405 -0.2524 -0.4084 -0.1304
 3322TIP3    H231382   2.552   2.399  11.461  0.5031 -0.9058  0.6616
 3323TIP3   OH231383   0.932   4.394  12.199  0.6885  0.3663 -0.9040
 3323TIP3    H131384   0.939   4.311  12.245  1.5791 -0.3293 -2.2530
 3323TIP3    H231385   0.839   4.401  12.177  0.7623 -0.7404 -1.6017
 3324TIP3   OH231386   2.315   2.204   3.501 -0.7394 -0.5325 -0.2656
 3324TIP3    H131387   2.283   2.290   3.525 -2.0128 -1.2884  0.7938
 3324TIP3    H231388   2.334   2.161   3.585 -0.5401 -1.4395 -0.7684
 3325TIP3   OH231389   1.179   3.167  15.600  0.2015  0.6004  0.1355
 3325TIP3    H131390   1.261   3.178  15.552  1.1500 -1.9289  1.0851
 3325TIP3    H231391   1.147   3.081  15.571  0.1117 -0.3665  2.9704
 3326TIP3   OH231392   3.986   6.219   5.235  0.1446  0.1101 -0.0641
 3326TIP3    H131393   3.957   6.302   5.197 -1.7447 -0.3884  0.2563
 3326TIP3    H231394   4.006   6.164   5.160 -2.0111 -0.3223 -0.3582
 3327TIP3   OH231395   5.101   4.434  14.261  0.3011 -0.3268  0.3511
 3327TIP3    H131396   5.185   4.406  14.297  1.2634  1.2827 -0.5413
 3327TIP3    H231397   5.047   4.455  14.337  1.1213 -0.2623  0.9202
 3328TIP3   OH231398   1.758   3.941  15.387 -0.2502  0.2418  0.2537
 3328TIP3    H131399   1.686   3.950  15.450 -0.4862 -1.1161  0.2006
 3328TIP3    H231400   1.767   3.846  15.374  0.7782  0.4447 -0.6333
 3329TIP3   OH231401   6.176   0.058  16.082 -0.2291 -0.2000  0.5895
 3329TIP3    H131402   6.088   0.038  16.114 -0.8110  2.3884  0.7027
 3329TIP3    H231403   6.187   0.152  16.099  1.4068  0.1505 -2.1480
 3330TIP3   OH231404   4.788   1.184  16.287 -0.6971  0.1695  0.2110
 3330TIP3    H131405   4.882   1.170  16.271 -0.0077  5.1716 -0.9384
 3330TIP3    H231406   4.786   1.247  16.359 -3.2828 -0.7009  0.9617
 3331TIP3   OH231407   2.102   0.866  16.452  0.1406  0.0467 -0.3739
 3331TIP3    H131408   2.182   0.890  16.498 -0.6743  0.6695  0.7497
 3331TIP3    H231409   2.130   0.847  16.362  1.2070  2.3865 -0.5556
 3332TIP3   OH231410   3.198   0.397   1.195 -0.3057 -0.2516 -0.4457
 3332TIP3    H131411   3.167   0.357   1.277  1.7960  0.3704  0.6895
 3332TIP3    H231412   3.218   0.322   1.139  0.8614 -0.7687  0.6260
 3333TIP3   OH231413   6.785   2.683   4.167 -0.2873 -0.2023  0.2141
 3333TIP3    H131414   6.736   2.604   4.144 -1.2827  0.5410 -0.2131
 3333TIP3    H231415   6.868   2.674   4.119 -0.6463 -0.6900 -0.3213
 3334TIP3   OH231416   0.216   2.280   4.924  0.0223 -0.8144  0.0743
 3334TIP3    H131417   0.228   2.212   4.858  2.3792  0.1107 -0.5211
 3334TIP3    H231418   0.176   2.235   4.998  0.0054 -2.4874 -0.9360
 3335TIP3   OH231419   2.670   4.197   0.735 -0.1724  0.6091 -0.1930
 3335TIP3    H131420   2.585   4.170   0.700 -1.0540  0.7214  1.7716
 3335TIP3    H231421   2.720   4.115   0.740 -1.3060 -0.0249  1.6129
 3336TIP3   OH231422   5.564   1.273  12.595 -0.2450  0.3854  0.2888
 3336TIP3    H131423   5.556   1.335  12.667  2.0991  2.8910 -1.4774
 3336TIP3    H231424   5.633   1.213  12.623  0.9645  1.6132  0.0023
 3337TIP3   OH231425   4.703   6.477   1.239 -0.1561 -0.0158  0.1646
 3337TIP3    H131426   4.664   6.395   1.269  0.6734  0.2086  1.9209
 3337TIP3    H231427   4.755   6.507   1.313  1.7653  0.6951 -1.4178
 3338TIP3   OH231428   3.208   3.320   3.997  0.7663 -0.6039  0.2989
 3338TIP3    H131429   3.236   3.233   3.969  0.9359  0.1801 -2.1011
 3338TIP3    H231430   3.288   3.361   4.030  1.1275 -0.6529 -0.4951
 3339TIP3   OH231431   4.878   5.790  13.909  0.3945 -0.1386 -0.4929
 3339TIP3    H131432   4.911   5.733  13.978  4.2767  0.2522 -1.9458
 3339TIP3    H231433   4.923   5.761  13.830 -2.4507  0.7626 -2.5143
 3340TIP3   OH231434   4.248   0.072   4.389  0.1529 -0.3998 -0.3358
 3340TIP3    H131435   4.229   0.016   4.313 -1.0893 -2.0562  1.1698
 3340TIP3    H231436   4.343   0.066   4.401  0.3960  0.0610 -1.8831
 3341TIP3   OH231437   5.150   3.189  15.721  0.0491 -0.1414 -0.3535
 3341TIP3    H131438   5.069   3.178  15.772 -0.4583  1.0070 -0.9070
 3341TIP3    H231439   5.179   3.277  15.741 -0.6884  0.6850 -2.8035
 3342TIP3   OH231440   0.950   1.602  15.401 -0.1732 -0.2727 -0.1874
 3342TIP3    H131441   0.904   1.667  15.349  0.7392  0.4321 -0.1275
 3342TIP3    H231442   0.994   1.546  15.337 -0.5547 -0.5232 -0.2267
 3343TIP3   OH231443   3.037   5.451   4.455 -0.5721 -0.3007 -0.1850
 3343TIP3    H131444   3.036   5.470   4.549 -3.2461  1.3481 -0.4931
 3343TIP3    H231445   3.114   5.497   4.423  0.4395 -0.9789  1.2207
 3344TIP3   OH231446   5.344   2.738   4.303 -0.5637 -0.2317  0.0012
 3344TIP3    H131447   5.276   2.798   4.335 -1.5046 -1.1333 -0.2472
 3344TIP3    H231448   5.415   2.795   4.275 -1.9086  0.8476 -1.3325
 3345TIP3   OH231449   3.126   4.417   6.615 -0.0945 -0.3394 -0.4990
 3345TIP3    H131450   3.119   4.412   6.519  1.4271 -0.0099 -0.6404
 3345TIP3    H231451   3.162   4.505   6.632 -1.4633  0.0519  0.4425
 3346TIP3   OH231452   5.812   4.936  12.144  0.2793 -0.0711 -0.1745
 3346TIP3    H131453   5.865   4.912  12.220 -1.3268 -0.0057  0.9902
 3346TIP3    H231454   5.871   4.987  12.088  0.9156  1.5888  1.9724
 3347TIP3   OH231455   3.854   5.708  16.306 -0.1179 -0.0464  0.0040
 3347TIP3    H131456   3.918   5.755  16.359  0.4549  0.3242 -1.0003
 3347TIP3    H231457   3.891   5.620  16.296  0.3839  0.2470 -0.8040
 3348TIP3   OH231458   0.671   4.775  16.771  0.5179  0.0491  0.1207
 3348TIP3    H131459   0.764   4.798  16.773  0.5879 -0.0553 -1.3800
 3348TIP3    H231460   0.650   4.766  16.678 -0.0081 -3.8881  0.5385
 3349TIP3   OH231461   5.041   5.485  14.588 -0.4565  0.0412  0.5809
 3349TIP3    H131462   5.033   5.562  14.645  0.8346  0.7938 -0.2299
 3349TIP3    H231463   5.135   5.468  14.583 -0.6287 -0.6814 -0.4400
 3350TIP3   OH231464   5.145   1.245   3.543 -0.6109 -0.5069 -0.2333
 3350TIP3    H131465   5.153   1.152   3.522 -0.1978 -0.6125  0.3896
 3350TIP3    H231466   5.199   1.289   3.478  0.9343 -0.8565  0.8029
 3351TIP3   OH231467   3.381   4.429  12.466  0.1276 -0.3452  0.1719
 3351TIP3    H131468   3.335   4.368  12.523  1.7239 -1.9359 -0.1705
 3351TIP3    H231469   3.316   4.457  12.402 -0.2535 -2.9991 -0.6692
 3352TIP3   OH231470   2.463   2.057   5.424  0.2317 -0.0623  0.3577
 3352TIP3    H131471   2.378   2.078   5.463  0.5696 -0.1639  1.1553
 3352TIP3    H231472   2.442   2.021   5.338 -0.6363 -1.9289  1.3228
 3353TIP3   OH231473   5.321   2.877   3.487  0.9371  0.1273  0.0444
 3353TIP3    H131474   5.345   2.951   3.542 -1.5390  2.0053 -1.2839
 3353TIP3    H231475   5.290   2.810   3.548 -0.6776  1.7401  1.0266
 3354TIP3   OH231476   6.082   6.477   3.688 -0.0903  0.2841 -0.2774
 3354TIP3    H131477   6.064   6.393   3.647 -0.0183 -0.6279  1.5218
 3354TIP3    H231478   6.131   6.526   3.622 -2.8916  0.1365 -2.5582
 3355TIP3   OH231479   5.235   6.570   3.093 -0.8266  0.1722  0.6339
 3355TIP3    H131480   5.315   6.555   3.044 -0.8306 -0.0499  0.6932
 3355TIP3    H231481   5.237   6.505   3.163 -0.8101  0.5019  0.9405
 3356TIP3   OH231482   5.756   1.089   1.706  0.0064  0.0554  0.3683
 3356TIP3    H131483   5.757   1.177   1.742  0.4104  0.2450 -0.0998
 3356TIP3    H231484   5.710   1.036   1.772 -0.5086  0.6746  0.4999
 3357TIP3   OH231485   2.729   4.540  14.659 -0.8873 -0.5392  0.3700
 3357TIP3    H131486   2.643   4.507  14.686 -1.3923  0.4150 -0.0570
 3357TIP3    H231487   2.720   4.635  14.661 -0.2968 -0.4348 -1.1485
 3358TIP3   OH231488   5.938   5.719   4.353  0.0669  0.3105 -0.2046
 3358TIP3    H131489   5.861   5.765   4.321 -0.5050 -0.5655 -0.0886
 3358TIP3    H231490   5.930   5.720   4.448 -0.7431 -1.3961 -0.2554
 3359TIP3   OH231491   4.606   4.181   2.440  0.8566 -0.4858  0.0365
 3359TIP3    H131492   4.619   4.146   2.352  1.0911  0.5479 -0.3483
 3359TIP3    H231493   4.515   4.212   2.442  1.0605  0.1419 -0.0859
 3360TIP3   OH231494   0.952   6.348  13.285  0.0188  0.7601  0.4468
 3360TIP3    H131495   0.917   6.290  13.217 -1.6726  2.1746  0.0832
 3360TIP3    H231496   0.925   6.308  13.367  0.7474 -0.1334  0.2610
 3361TIP3   OH231497   1.853   1.901   5.464 -0.4850  0.1817  0.3629
 3361TIP3    H131498   1.892   1.813   5.467  2.6081  1.4698 -0.2071
 3361TIP3    H231499   1.890   1.946   5.539  1.8402  2.4886 -2.0486
 3362TIP3   OH231500   5.786   5.489   0.999  0.1177 -0.5403  0.8633
 3362TIP3    H131501   5.761   5.402   0.971  0.3190 -0.3509  0.0873
 3362TIP3    H231502   5.780   5.487   1.095 -0.4259 -1.2284  0.8084
 3363TIP3   OH231503   2.921   1.475   5.092 -0.1792  0.0569  0.0061
 3363TIP3    H131504   2.977   1.428   5.153  2.1368 -0.5168 -2.4321
 3363TIP3    H231505   2.966   1.558   5.077 -1.9532  1.2026  0.8841
 3364TIP3   OH231506   3.293   1.540  15.968  0.3718 -0.1341  0.1392
 3364TIP3    H131507   3.227   1.578  15.909 -0.6604 -1.3972  0.4551
 3364TIP3    H231508   3.243   1.512  16.045  0.8862 -3.3227 -0.6432
 3365TIP3   OH231509   6.641   4.055   5.751 -0.3108 -0.6166  0.0111
 3365TIP3    H131510   6.628   4.135   5.700  1.8796  0.8084  1.6199
 3365TIP3    H231511   6.562   4.046   5.803 -1.0740 -0.1658 -1.0567
 3366TIP3   OH231512   2.636   5.196  16.127 -0.7882  0.0251 -0.2007
 3366TIP3    H131513   2.566   5.167  16.185 -0.9697  0.9448  0.0460
 3366TIP3    H231514   2.608   5.169  16.040 -1.5849  0.6555 -0.1393
 3367TIP3   OH231515   5.987   2.378   5.586  0.8546 -0.3354 -0.2505
 3367TIP3    H131516   5.960   2.317   5.518 -1.0455  0.1458  0.0232
 3367TIP3    H231517   5.910   2.384   5.644  1.3057  1.6560  0.1712
 3368TIP3   OH231518   5.207   0.265   2.944  0.3777  0.0109 -0.1016
 3368TIP3    H131519   5.225   0.339   3.002 -0.5930  1.1375 -1.1944
 3368TIP3    H231520   5.134   0.295   2.889 -0.5420 -2.0609 -0.0486
 3369TIP3   OH231521   4.121   1.593   0.163 -0.9316  0.5161  0.1083
 3369TIP3    H131522   4.117   1.648   0.241 -0.5497  0.9012 -0.1441
 3369TIP3    H231523   4.150   1.651   0.093  1.7307 -0.4910  0.3124
 3370TIP3   OH231524   3.481   4.012  11.045 -0.1313 -0.0285 -0.0760
 3370TIP3    H131525   3.575   4.008  11.066 -0.3094  1.5637  1.0979
 3370TIP3    H231526   3.438   3.973  11.121 -0.5110  0.9421  0.2112
 3371TIP3   OH231527   2.680   3.581  11.943  0.1003  0.0191 -0.0370
 3371TIP3    H131528   2.762   3.582  11.991  1.3272  2.6226 -2.0444
 3371TIP3    H231529   2.616   3.618  12.004  0.4814 -1.4736  1.3215
 3372TIP3   OH231530   2.139   6.118  14.933 -0.5005  0.4519  0.0407
 3372TIP3    H131531   2.072   6.068  14.981 -0.1732  0.2550  0.2897
 3372TIP3    H231532   2.116   6.106  14.841 -1.3938  1.1901  0.1573
 3373TIP3   OH231533   0.938   5.992   3.921  0.1605  0.6556 -0.1237
 3373TIP3    H131534   0.992   5.990   3.843 -0.9549  0.5367 -0.9109
 3373TIP3    H231535   0.913   6.084   3.932  0.0703  0.6259 -0.0753
 3374TIP3   OH231536   2.943   3.472   1.843  0.3209  0.2280 -0.1109
 3374TIP3    H131537   2.959   3.382   1.871  0.5493  0.3084  0.0218
 3374TIP3    H231538   2.850   3.487   1.861  0.6842  0.6014  1.5308
 3375TIP3   OH231539   1.198   2.873   3.177  0.0890 -0.2747 -0.0291
 3375TIP3    H131540   1.133   2.899   3.112  0.2785 -0.8721 -0.4725
 3375TIP3    H231541   1.280   2.912   3.147  0.2726 -0.9425 -0.4203
 3376TIP3   OH231542   0.977   3.660   3.059 -0.1329  0.7953  0.0075
 3376TIP3    H131543   0.971   3.570   3.027  1.3890  0.6001  0.2226
 3376TIP3    H231544   0.895   3.700   3.033 -0.3648 -0.3435 -1.0878
 3377TIP3   OH231545   2.648   0.291  14.491 -0.0769 -0.1596 -0.2663
 3377TIP3    H131546   2.602   0.273  14.573 -2.6580  0.4132 -1.5467
 3377TIP3    H231547   2.720   0.348  14.516 -2.1534  1.8584  1.3291
 3378TIP3   OH231548   6.336   3.097  17.193  0.2372 -0.2863  0.0575
 3378TIP3    H131549   6.277   3.117  17.120  0.9786  0.0268 -0.4714
 3378TIP3    H231550   6.289   3.032  17.245  0.0920 -1.2541 -1.2453
 3379TIP3   OH231551   2.921   3.728   5.018 -0.2871 -0.2631  0.2388
 3379TIP3    H131552   2.961   3.644   5.042 -0.0285 -0.4404 -0.7860
 3379TIP3    H231553   2.928   3.781   5.097  0.8188 -0.7377  0.4755
 3380TIP3   OH231554   4.072   3.372  11.958 -0.0514  0.4031 -1.1286
 3380TIP3    H131555   4.017   3.360  11.880  0.3258 -1.8430 -1.0679
 3380TIP3    H231556   4.082   3.467  11.965 -0.3377  0.6668 -3.6651
 3381TIP3   OH231557   1.119   2.279   2.173  0.5319  0.2098  0.3377
 3381TIP3    H131558   1.124   2.370   2.202 -1.0931  1.1028 -2.0313
 3381TIP3    H231559   1.117   2.284   2.077 -2.4519 -2.1076  0.1840
 3382TIP3   OH231560   2.228   1.012   3.787 -0.1793 -0.4476 -0.5008
 3382TIP3    H131561   2.206   1.104   3.780 -2.0194 -0.9234 -1.1910
 3382TIP3    H231562   2.144   0.967   3.796  0.6591 -2.0907 -0.5680
 3383TIP3   OH231563   5.263   0.866   0.375 -0.0286 -0.4494 -0.1916
 3383TIP3    H131564   5.243   0.858   0.468  0.8455 -2.2810 -0.1518
 3383TIP3    H231565   5.316   0.789   0.355 -0.0855  0.0098 -2.1742
 3384TIP3   OH231566   1.657   1.633  11.336  0.5668  0.5350  0.6946
 3384TIP3    H131567   1.607   1.597  11.262 -0.6395  1.9353  0.7917
 3384TIP3    H231568   1.743   1.594  11.329  0.7638  1.3687 -2.0303
 3385TIP3   OH231569   6.442   0.221  15.302  0.0020 -0.6300  0.2066
 3385TIP3    H131570   6.347   0.211  15.314  0.1343 -1.3986  0.6117
 3385TIP3    H231571   6.481   0.153  15.357  0.8013 -0.1438  0.2462
 3386TIP3   OH231572   5.953   5.026   3.382 -0.6172 -0.0013  0.1449
 3386TIP3    H131573   6.007   5.104   3.394  1.4206 -1.4634  0.7864
 3386TIP3    H231574   5.951   5.011   3.288 -0.1176  0.2222  0.1004
 3387TIP3   OH231575   6.764   5.462   0.064  0.0292 -0.3051  0.0087
 3387TIP3    H131576   6.814   5.396   0.017 -0.0675  0.7317 -1.5630
 3387TIP3    H231577   6.818   5.483   0.141  0.9638 -0.7943 -0.5131
 3388TIP3   OH231578   2.464   2.087   0.218 -0.8916  0.1530 -0.0244
 3388TIP3    H131579   2.551   2.088   0.179 -1.1500  0.4828 -0.5892
 3388TIP3    H231580   2.412   2.031   0.160 -0.5645 -1.6685  1.3790
 3389TIP3   OH231581   4.777   5.845  11.251  0.0740  0.2018  0.4494
 3389TIP3    H131582   4.801   5.757  11.220 -3.0562 -0.4894 -0.1958
 3389TIP3    H231583   4.847   5.901  11.219  1.1717 -1.7843 -0.7711
 3390TIP3   OH231584   3.387   4.139   3.968  0.0911  0.0760 -0.6539
 3390TIP3    H131585   3.360   4.058   4.010  2.4296  0.7510  2.3359
 3390TIP3    H231586   3.322   4.203   3.996 -0.1747 -0.1602 -0.7272
 3391TIP3   OH231587   1.825   0.204   4.358 -0.3956  0.1893 -0.3255
 3391TIP3    H131588   1.826   0.187   4.452  0.3791  2.6409  0.1466
 3391TIP3    H231589   1.746   0.255   4.343 -0.0164  0.6389 -0.8330
 3392TIP3   OH231590   2.503   0.030  11.615 -0.0223 -0.1540 -0.3779
 3392TIP3    H131591   2.418   0.065  11.587 -0.1849 -0.2807 -0.0462
 3392TIP3    H231592   2.532   0.091  11.683  0.3896  0.1749 -0.8478
 3393TIP3   OH231593   5.682   5.142  16.682  0.2446  0.1068  0.6183
 3393TIP3    H131594   5.712   5.225  16.718  0.7463 -0.1854  0.9005
 3393TIP3    H231595   5.588   5.140  16.699  0.1699  0.7844  0.2559
 3394TIP3   OH231596   0.354   1.532   0.792 -0.0444  0.3272  0.2854
 3394TIP3    H131597   0.384   1.499   0.877  2.0478 -2.2281 -1.3656
 3394TIP3    H231598   0.312   1.457   0.750  0.4714  1.0667 -1.6133
 3395TIP3   OH231599   4.763   0.357   4.404  0.5393  0.1232  0.1068
 3395TIP3    H131600   4.699   0.385   4.339 -0.1110 -0.7258  0.3731
 3395TIP3    H231601   4.827   0.306   4.355  0.5530  0.2594 -0.0181
 3396TIP3   OH231602   5.333   1.358   4.400  0.2681  0.3850  0.2677
 3396TIP3    H131603   5.392   1.432   4.417  1.5204 -1.0503  2.3996
 3396TIP3    H231604   5.348   1.298   4.473  0.0275 -2.4543 -1.9198
 3397TIP3   OH231605   1.265   0.198  15.844  0.3308  0.4817 -0.9339
 3397TIP3    H131606   1.262   0.124  15.905  2.0531  0.1691 -1.2198
 3397TIP3    H231607   1.238   0.273  15.897  0.8497  0.0407 -0.0284
 3398TIP3   OH231608   2.701   1.814  11.459 -0.5770 -0.1252 -0.3240
 3398TIP3    H131609   2.611   1.785  11.472 -0.3745 -0.5401  0.1723
 3398TIP3    H231610   2.730   1.767  11.381 -0.3877 -0.9378  0.2341
 3399TIP3   OH231611   4.950   0.712   4.089  0.0553  0.2370 -0.1634
 3399TIP3    H131612   5.031   0.754   4.117 -1.9287  3.8336  0.4812
 3399TIP3    H231613   4.899   0.704   4.170 -1.1290  0.0453 -0.9259
 3400TIP3   OH231614   4.375   2.165   2.798 -0.3415 -0.0491 -0.2013
 3400TIP3    H131615   4.462   2.202   2.807  0.9533 -2.9043 -0.5589
 3400TIP3    H231616   4.355   2.128   2.884  0.2727 -2.4716 -1.0825
 3401TIP3   OH231617   3.879   4.599  15.089 -0.3859 -0.7652 -0.1330
 3401TIP3    H131618   3.906   4.653  15.163  0.1593 -2.5418  1.0041
 3401TIP3    H231619   3.951   4.608  15.026  0.1030 -0.8211  0.4095
 3402TIP3   OH231620   2.312   3.022  10.780  0.6939  0.5969 -0.0271
 3402TIP3    H131621   2.244   3.042  10.716  0.9223  0.9767 -0.1556
 3402TIP3    H231622   2.276   2.950  10.832  0.2752  0.6667 -0.2175
 3403TIP3   OH231623   0.607   6.059   3.826  0.0913 -0.3293  0.1378
 3403TIP3    H131624   0.556   5.986   3.860 -2.1872  0.6878 -0.9538
 3403TIP3    H231625   0.658   6.090   3.901 -0.1847 -1.9801  1.0162
 3404TIP3   OH231626   3.537   5.158  13.026  0.4091 -0.3279  0.4314
 3404TIP3    H131627   3.513   5.072  12.992 -0.8129  0.3442 -0.4595
 3404TIP3    H231628   3.594   5.196  12.959  1.8647 -0.8683  1.3338
 3405TIP3   OH231629   4.535   4.226   6.153  0.3164  0.0040  0.2149
 3405TIP3    H131630   4.474   4.299   6.153  0.3088  0.0060 -1.2710
 3405TIP3    H231631   4.579   4.232   6.238 -0.3837  1.1292  0.5138
 3406TIP3   OH231632   1.094   4.531   0.305 -0.6338  0.4078  0.6745
 3406TIP3    H131633   1.141   4.540   0.222  0.0944  0.4568  1.0831
 3406TIP3    H231634   1.120   4.445   0.338 -3.9220 -1.2876 -0.9766
 3407TIP3   OH231635   6.659   5.540   1.743 -0.1360  0.0919  0.0950
 3407TIP3    H131636   6.703   5.461   1.775 -1.2855 -0.5294  0.1448
 3407TIP3    H231637   6.690   5.610   1.802  0.0186 -0.5158  0.7410
 3408TIP3   OH231638   4.324   1.414  14.017 -0.3467  0.4510 -0.2038
 3408TIP3    H131639   4.268   1.484  13.981  0.7465  1.0229 -0.8230
 3408TIP3    H231640   4.338   1.355  13.943 -0.6493 -0.0353  0.1230
 3409TIP3   OH231641   2.851   2.150   2.916  0.1663  0.0830  0.2870
 3409TIP3    H131642   2.761   2.175   2.939  0.2929 -0.4565  1.4245
 3409TIP3    H231643   2.856   2.160   2.821 -1.3372 -0.6239  0.1228
 3410TIP3   OH231644   5.739   0.278   2.069  0.1460 -0.1788  0.3786
 3410TIP3    H131645   5.746   0.184   2.083  1.7130  0.2759  3.1833
 3410TIP3    H231646   5.732   0.289   1.974  0.6360 -3.0518 -0.0184
 3411TIP3   OH231647   2.321   6.061  16.928 -0.2026 -0.1821  0.1628
 3411TIP3    H131648   2.407   6.047  16.967  0.3183 -2.0510 -1.5610
 3411TIP3    H231649   2.266   5.992  16.964 -0.0031 -1.2363 -1.4938
 3412TIP3   OH231650   3.696   4.733   3.489  0.0253 -0.6372  0.2661
 3412TIP3    H131651   3.619   4.701   3.536 -0.5994  2.0738  1.2043
 3412TIP3    H231652   3.769   4.685   3.527 -0.7513 -0.2187  2.3715
 3413TIP3   OH231653   5.949   2.964   2.019 -0.0140 -0.2095 -0.2403
 3413TIP3    H131654   6.018   2.912   1.978  1.3916  2.5193 -1.5119
 3413TIP3    H231655   5.869   2.938   1.974  0.5969 -1.5006 -0.5976
 3414TIP3   OH231656   4.528   6.111   3.337 -0.3310 -0.0461 -0.2838
 3414TIP3    H131657   4.481   6.054   3.276  0.0109  0.3347 -0.9111
 3414TIP3    H231658   4.505   6.199   3.309  2.2617  0.1899 -1.8118
 3415TIP3   OH231659   0.819   5.176  12.917 -0.0090 -0.3124  0.1928
 3415TIP3    H131660   0.735   5.136  12.896  0.9218 -1.7989 -0.8570
 3415TIP3    H231661   0.871   5.164  12.837  0.3171  3.0161 -0.1285
 3416TIP3   OH231662   3.650   0.847   3.269  0.1311  0.3075 -0.7738
 3416TIP3    H131663   3.559   0.878   3.266 -0.4832 -1.3394 -0.1927
 3416TIP3    H231664   3.664   0.806   3.183 -1.0792 -3.0669  0.5369
 3417TIP3   OH231665   2.648   5.428  12.075 -0.3935  0.0829  0.1085
 3417TIP3    H131666   2.640   5.356  12.137 -3.9534 -1.2319 -1.7436
 3417TIP3    H231667   2.664   5.385  11.991 -0.2340  1.6019 -0.6545
 3418TIP3   OH231668   5.736   2.674   4.142  0.2618  0.9446  0.0265
 3418TIP3    H131669   5.681   2.602   4.172  0.1197  0.1405 -2.1206
 3418TIP3    H231670   5.749   2.728   4.220 -0.6475 -0.7336  1.3641
 3419TIP3   OH231671   6.389   2.488   3.926  0.0163 -0.6947  0.0838
 3419TIP3    H131672   6.358   2.577   3.940 -0.2729 -0.3810 -2.4210
 3419TIP3    H231673   6.309   2.437   3.912  0.3883 -0.6380 -2.3004
 3420TIP3   OH231674   1.032   5.191   3.990 -0.8787 -0.1923 -0.4851
 3420TIP3    H131675   0.981   5.236   3.923  0.9291  1.2393 -0.9377
 3420TIP3    H231676   1.065   5.113   3.946 -0.6898  0.1254 -0.9154
 3421TIP3   OH231677   0.264   5.680  14.046 -0.5301  0.1733  0.5673
 3421TIP3    H131678   0.287   5.727  13.966 -2.1267 -0.0434 -0.0478
 3421TIP3    H231679   0.170   5.664  14.037 -1.4740  3.1892  4.0442
 3422TIP3   OH231680   0.946   0.052  17.082 -0.1133  0.0017  0.1384
 3422TIP3    H131681   1.001   0.086  17.153 -0.0606  0.5939 -0.1826
 3422TIP3    H231682   0.940   0.124  17.020 -0.3794 -0.4256 -0.3360
 3423TIP3   OH231683   5.812   0.693   1.634  0.2900  0.0666 -0.2255
 3423TIP3    H131684   5.770   0.771   1.599  1.8821  0.2462 -1.7874
 3423TIP3    H231685   5.868   0.725   1.705  1.7434  0.5167 -1.5409
 3424TIP3   OH231686   2.874   5.904   5.137  0.3798  0.3866  0.2842
 3424TIP3    H131687   2.891   5.928   5.228  0.0783  0.5188  0.3083
 3424TIP3    H231688   2.848   5.986   5.095 -0.5769  0.1266  0.3451
 3425TIP3   OH231689   5.405   0.064   0.483 -0.1180 -0.6328 -0.2924
 3425TIP3    H131690   5.464   0.085   0.411 -0.0398 -2.3225 -0.7352
 3425TIP3    H231691   5.352  -0.009   0.451  0.5707 -2.0333  1.6823
 3426TIP3   OH231692   0.865   5.508   0.007 -0.0238 -0.0472 -0.3391
 3426TIP3    H131693   0.908   5.475   0.086 -2.0351 -0.4840  0.5965
 3426TIP3    H231694   0.854   5.602   0.023  0.5545  0.0626 -0.5751
 3427TIP3   OH231695   4.386   0.923   2.333  0.4882  0.0810 -0.0393
 3427TIP3    H131696   4.479   0.941   2.343  0.6489 -1.4581  1.5905
 3427TIP3    H231697   4.382   0.840   2.285 -0.0528  0.2857 -0.3617
 3428TIP3   OH231698   5.996   3.861   4.902  0.7443 -0.2469 -0.1729
 3428TIP3    H131699   5.919   3.805   4.899 -0.2934  1.1334 -0.0799
 3428TIP3    H231700   6.033   3.856   4.813  1.2280 -1.7991  0.0954
 3429TIP3   OH231701   4.144   5.755   0.571  0.1983  0.2840  0.1707
 3429TIP3    H131702   4.049   5.754   0.563  0.2574 -0.0100 -0.4905
 3429TIP3    H231703   4.162   5.825   0.634 -0.4868 -0.1078  0.8076
 3430TIP3   OH231704   3.568   5.423  11.572  0.2982 -0.4237  0.1375
 3430TIP3    H131705   3.661   5.434  11.555  0.5018 -0.0049  1.4850
 3430TIP3    H231706   3.559   5.333  11.600  0.3989 -0.2566  0.7004
 3431TIP3   OH231707   1.480   2.365   4.587 -0.4714 -0.1229  0.2502
 3431TIP3    H131708   1.477   2.427   4.514  0.4271 -0.6718 -0.2717
 3431TIP3    H231709   1.556   2.310   4.568  0.9169  0.9296  2.6070
 3432TIP3   OH231710   5.451   6.512  12.678  0.0284 -0.8676  0.2781
 3432TIP3    H131711   5.441   6.417  12.668  0.3878 -0.8336 -0.4650
 3432TIP3    H231712   5.545   6.527  12.664 -0.1512 -0.3151 -0.3544
 3433TIP3   OH231713   5.121   3.049  17.052 -0.6013  0.1023  0.5154
 3433TIP3    H131714   5.098   3.041  17.145  0.1487  0.3937  0.7315
 3433TIP3    H231715   5.205   3.005  17.045 -0.9223 -0.4034 -0.1425
 3434TIP3   OH231716   6.743   0.479  16.220  0.1338 -0.6100  0.2901
 3434TIP3    H131717   6.763   0.572  16.229 -0.0646 -0.5964  0.6140
 3434TIP3    H231718   6.723   0.468  16.127  1.2868 -0.5575  0.0331
 3435TIP3   OH231719   3.007   0.584  12.212 -0.2064  0.4306 -0.3093
 3435TIP3    H131720   3.078   0.646  12.192  0.1583 -0.0480 -0.5027
 3435TIP3    H231721   2.966   0.620  12.291  2.4715 -1.1207  1.8663
 3436TIP3   OH231722   2.152   1.568   6.092 -0.3329 -0.1015 -0.0001
 3436TIP3    H131723   2.061   1.551   6.116 -0.8726 -2.7459 -3.3742
 3436TIP3    H231724   2.153   1.658   6.060 -1.1510  0.8231  2.4621
 3437TIP3   OH231725   6.652   1.578   2.442  0.5257 -0.6169 -0.3073
 3437TIP3    H131726   6.605   1.661   2.455  1.3448  0.1182 -1.9664
 3437TIP3    H231727   6.598   1.513   2.488 -0.1326  0.8132  1.0091
 3438TIP3   OH231728   1.557   1.966  14.655 -0.3006 -0.6211 -0.8838
 3438TIP3    H131729   1.470   1.945  14.620 -0.2747  0.4954 -1.6282
 3438TIP3    H231730   1.611   1.890  14.633 -1.0057 -1.1830 -0.6987
 3439TIP3   OH231731   5.674   6.750  13.931  0.4133 -0.1683 -0.5928
 3439TIP3    H131732   5.636   6.838  13.936 -1.0884 -0.7610 -1.1220
 3439TIP3    H231733   5.726   6.742  14.011 -0.3705  0.7774  0.0333
 3440TIP3   OH231734   1.325   1.251  10.597  0.5956 -0.2674 -0.0770
 3440TIP3    H131735   1.367   1.328  10.558 -0.3190 -0.4085 -1.3591
 3440TIP3    H231736   1.394   1.185  10.600  0.5049 -0.4867 -2.1313
 3441TIP3   OH231737   1.488   1.884  11.264 -0.1303 -0.4202 -0.4706
 3441TIP3    H131738   1.530   1.925  11.188 -0.2944 -2.0685 -1.4638
 3441TIP3    H231739   1.561   1.865  11.324  0.0762  0.2283 -0.5070
 3442TIP3   OH231740   4.317   6.384   1.730  0.4084  0.1291 -0.2157
 3442TIP3    H131741   4.303   6.476   1.754 -2.5545 -0.4865  0.6268
 3442TIP3    H231742   4.327   6.385   1.635 -0.0353  1.2938 -0.2556
 3443TIP3   OH231743   1.074   2.769  12.634 -0.0308 -0.5447 -0.3801
 3443TIP3    H131744   1.168   2.771  12.615  0.1370 -0.2015  0.4929
 3443TIP3    H231745   1.046   2.683  12.602  0.5481 -0.5894 -0.7857
 3444TIP3   OH231746   6.608   5.099   0.410 -0.2890 -0.6329  0.6562
 3444TIP3    H131747   6.563   5.034   0.465 -0.6961 -0.1301  0.9163
 3444TIP3    H231748   6.611   5.178   0.464 -0.0165 -0.3598  0.2411
 3445TIP3   OH231749   5.410   5.485   0.912  0.3497  0.4241 -0.0973
 3445TIP3    H131750   5.322   5.497   0.877 -0.2290  1.2963  1.5684
 3445TIP3    H231751   5.458   5.562   0.883 -0.0741  1.0495  0.8166
 3446TIP3   OH231752   5.557   2.344  14.124 -0.2541  1.0485 -0.2443
 3446TIP3    H131753   5.483   2.311  14.072 -2.1945  2.3694  1.6153
 3446TIP3    H231754   5.596   2.266  14.162 -0.0589  0.2507 -2.0036
 3447TIP3   OH231755   1.009   6.659   5.504  0.0103  0.0705  0.3895
 3447TIP3    H131756   1.081   6.609   5.466 -1.9442 -0.9090 -2.1457
 3447TIP3    H231757   0.988   6.613   5.585 -0.1591 -1.8374 -0.7068
 3448TIP3   OH231758   4.541   4.320   6.427 -0.2821  0.2919  0.5990
 3448TIP3    H131759   4.622   4.272   6.445  0.1497  0.1976 -1.4850
 3448TIP3    H231760   4.564   4.412   6.437  0.1431  0.2749 -0.2262
 3449TIP3   OH231761   2.694   0.129  16.842  0.6881 -0.1424 -0.0732
 3449TIP3    H131762   2.658   0.146  16.929  0.1867 -2.3693  0.1861
 3449TIP3    H231763   2.771   0.185  16.837 -0.4256  1.5488  1.0005
 3450TIP3   OH231764   1.018   1.372   1.867  0.1499 -0.7393 -0.1051
 3450TIP3    H131765   1.066   1.383   1.785  0.9400  1.2062  0.5782
 3450TIP3    H231766   1.046   1.287   1.901  1.3899 -0.6350 -0.8354
 3451TIP3   OH231767   1.415   2.125   1.337  0.1779 -0.5443 -0.6093
 3451TIP3    H131768   1.465   2.206   1.322  2.7273 -2.0345 -0.4981
 3451TIP3    H231769   1.401   2.090   1.249  0.9053 -1.0298 -0.5353
 3452TIP3   OH231770   6.566   6.621   4.887  0.4176  0.1380 -0.0929
 3452TIP3    H131771   6.661   6.620   4.874  0.4788 -2.3109  0.3124
 3452TIP3    H231772   6.552   6.575   4.969 -1.0154  2.3364  0.9479
 3453TIP3   OH231773   1.409   5.229   4.634 -0.2328  0.1148 -0.3058
 3453TIP3    H131774   1.464   5.198   4.561 -0.5587 -2.1847  0.3701
 3453TIP3    H231775   1.471   5.261   4.699  0.1634  0.3376 -0.7899
 3454TIP3   OH231776   5.398   2.583  14.862 -0.0354  0.2953  0.2731
 3454TIP3    H131777   5.319   2.530  14.852 -0.9297  1.1301  2.5470
 3454TIP3    H231778   5.431   2.596  14.773 -2.0602 -0.6420 -0.6293
 3455TIP3   OH231779   0.589   0.460   6.135  0.1247  0.1625  0.3199
 3455TIP3    H131780   0.537   0.540   6.138  0.8343  0.6188  0.4814
 3455TIP3    H231781   0.526   0.390   6.154 -0.3247  0.7500  1.0211
 3456TIP3   OH231782   4.074   2.976  14.182 -0.1572  0.3444  0.2384
 3456TIP3    H131783   4.065   3.053  14.238 -1.5305  1.0647 -0.9442
 3456TIP3    H231784   3.985   2.953  14.158  0.4638  0.6838 -2.4896
 3457TIP3   OH231785   0.431   1.232   5.072  0.2481  0.4444  0.1950
 3457TIP3    H131786   0.499   1.166   5.066  0.1885  0.1396  2.4109
 3457TIP3    H231787   0.357   1.195   5.025  1.6904  0.9466 -2.5796
 3458TIP3   OH231788   6.708   6.235   5.344 -0.1149 -0.0369 -0.3063
 3458TIP3    H131789   6.620   6.266   5.321  0.9670  1.5868 -2.4548
 3458TIP3    H231790   6.767   6.303   5.312  1.8463  0.0632  3.2560
 3459TIP3   OH231791   3.510   5.335  11.200  0.1976  0.8123 -0.0308
 3459TIP3    H131792   3.576   5.356  11.133  0.9216 -2.3999 -0.4017
 3459TIP3    H231793   3.428   5.329  11.152  0.0252  2.4717  0.0418
 3460TIP3   OH231794   5.444   0.037   5.317 -0.2306  0.2271  0.2011
 3460TIP3    H131795   5.494   0.058   5.396 -0.9645  0.9539  0.4778
 3460TIP3    H231796   5.457  -0.057   5.305  0.5923  0.2757  0.6907
 3461TIP3   OH231797   4.524   3.445   1.928 -0.0395 -0.6928 -0.4746
 3461TIP3    H131798   4.612   3.480   1.916 -0.1925  0.2575  1.1116
 3461TIP3    H231799   4.538   3.355   1.957  0.4326 -0.2540  0.6790
 3462TIP3   OH231800   1.673   3.591  12.620 -0.0589 -0.3063 -0.3055
 3462TIP3    H131801   1.713   3.654  12.560  0.7832 -1.3770 -0.8811
 3462TIP3    H231802   1.743   3.566  12.680 -1.0384  1.1600  1.4882
 3463TIP3   OH231803   4.360   0.395  12.265  0.3208  0.2108 -0.0167
 3463TIP3    H131804   4.378   0.410  12.358  0.4886 -0.6083  0.0860
 3463TIP3    H231805   4.298   0.323  12.264 -1.8266  2.0102 -0.4331
 3464TIP3   OH231806   1.805   6.267  14.849  0.4353  0.0626 -0.1422
 3464TIP3    H131807   1.759   6.228  14.923  0.9350  0.7364  0.5288
 3464TIP3    H231808   1.863   6.197  14.818  0.1709 -0.2431  0.0464
 3465TIP3   OH231809   6.387   2.082  16.721 -0.6307  0.1372 -0.0138
 3465TIP3    H131810   6.380   2.065  16.627  2.0170 -0.6469 -0.1052
 3465TIP3    H231811   6.303   2.121  16.745 -1.5584 -0.2291 -2.5857
 3466TIP3   OH231812   6.304   0.763  15.141  0.0769  0.1730  0.3110
 3466TIP3    H131813   6.336   0.710  15.214 -0.2026 -0.7824 -0.2555
 3466TIP3    H231814   6.256   0.835  15.184  0.9260  0.2801  1.0901
 3467TIP3   OH231815   5.107   3.666  13.620 -0.3373  0.0739  0.3043
 3467TIP3    H131816   5.133   3.715  13.697  0.0586  0.3853 -0.0236
 3467TIP3    H231817   5.143   3.578  13.633 -0.0350  0.2041  0.3479
 3468TIP3   OH231818   0.724   2.013  16.352 -0.1587 -0.7439  0.0374
 3468TIP3    H131819   0.731   2.057  16.267 -0.4796  0.1689  0.4834
 3468TIP3    H231820   0.630   2.009  16.370 -0.1724 -2.1352 -0.2665
 3469TIP3   OH231821   5.923   0.931   3.092 -0.7347 -0.1045 -0.2185
 3469TIP3    H131822   5.875   0.900   3.169 -1.8832 -0.4616 -1.0586
 3469TIP3    H231823   5.897   1.022   3.082 -1.1725 -0.2669 -0.6077
 3470TIP3   OH231824   5.198   3.218   5.318  0.6030 -0.1106  0.6686
 3470TIP3    H131825   5.158   3.299   5.348  1.7708  0.5000  0.6241
 3470TIP3    H231826   5.265   3.199   5.385 -0.6294 -1.8077  1.4481
 3471TIP3   OH231827   6.786   2.629  15.748  0.0535 -0.6363  0.2494
 3471TIP3    H131828   6.736   2.591  15.820 -0.8072 -2.1972 -1.1331
 3471TIP3    H231829   6.854   2.681  15.791 -0.4340 -1.5410  2.1814
 3472TIP3   OH231830   0.456   4.891   4.289 -0.5532  0.0497  0.1442
 3472TIP3    H131831   0.490   4.841   4.363  3.1185 -0.3838 -1.7451
 3472TIP3    H231832   0.461   4.831   4.215  2.1475  2.5452 -1.7809
 3473TIP3   OH231833   1.976   1.065   1.185 -0.1352  0.0502  0.0378
 3473TIP3    H131834   1.922   1.125   1.134  0.1596 -1.2070 -1.8220
 3473TIP3    H231835   1.924   0.984   1.189  0.4375 -0.2944  0.5595
 3474TIP3   OH231836   2.449   1.068  12.830  0.3432  0.5560  0.0949
 3474TIP3    H131837   2.451   0.982  12.788 -1.6209  0.5332 -0.0037
 3474TIP3    H231838   2.541   1.089  12.847  0.8850 -1.2215 -0.5648
 3475TIP3   OH231839   2.270   4.679  15.802  0.0201  0.2406 -0.4530
 3475TIP3    H131840   2.214   4.706  15.874  0.3117  0.0551 -0.1514
 3475TIP3    H231841   2.351   4.650  15.845 -1.0238 -3.1434 -0.5865
 3476TIP3   OH231842   2.166   6.716  16.081  0.0127 -0.0425 -0.4792
 3476TIP3    H131843   2.115   6.792  16.107 -0.3589 -0.2814 -0.5209
 3476TIP3    H231844   2.251   6.729  16.124 -0.1251  0.2772 -0.2989
 3477TIP3   OH231845   1.812   4.994   2.795  0.5133 -0.3771 -0.5875
 3477TIP3    H131846   1.879   4.958   2.852  0.7597  1.0611  0.0424
 3477TIP3    H231847   1.847   5.078   2.765 -0.2166 -0.4590 -1.7147
 3478TIP3   OH231848   5.346   5.443  11.922  0.2170 -0.2711 -0.5292
 3478TIP3    H131849   5.284   5.371  11.934  1.3353 -1.4979 -1.9258
 3478TIP3    H231850   5.297   5.507  11.869 -0.4966 -0.3719 -0.0008
 3479TIP3   OH231851   1.201   5.296  13.196 -0.3523  0.6203  0.1876
 3479TIP3    H131852   1.195   5.278  13.289 -1.4269  1.1712  0.2310
 3479TIP3    H231853   1.126   5.253  13.157  1.4567 -1.7568 -0.7926
 3480TIP3   OH231854   3.548   0.047  14.951 -0.6237 -0.2636  0.4709
 3480TIP3    H131855   3.506   0.091  14.877 -0.9310 -1.5857 -0.1650
 3480TIP3    H231856   3.564  -0.042  14.920  2.1559  0.0386  0.9055
 3481TIP3   OH231857   1.234   0.537   5.003 -0.5595 -0.5882 -0.0861
 3481TIP3    H131858   1.158   0.570   5.053 -0.8444  0.0793 -0.9528
 3481TIP3    H231859   1.309   0.556   5.059 -0.9314 -0.2881  0.3197
 3482TIP3   OH231860   1.710   4.834  17.074  0.1655 -0.7503  0.3238
 3482TIP3    H131861   1.706   4.863  17.166 -0.3359 -0.9481  0.3609
 3482TIP3    H231862   1.777   4.766  17.074  1.0623  0.1257  0.3085
 3483TIP3   OH231863   6.340   6.381  11.419 -0.9116  0.0517 -0.2023
 3483TIP3    H131864   6.327   6.459  11.472  0.7741  1.6270 -2.0262
 3483TIP3    H231865   6.254   6.340  11.414 -1.4520  0.8207  2.2312
 3484TIP3   OH231866   4.766   0.999   5.438 -0.2910  0.4317 -0.6574
 3484TIP3    H131867   4.759   0.964   5.349  1.3913  0.4479 -0.8224
 3484TIP3    H231868   4.829   0.941   5.481 -2.2227 -0.4931  1.0101
 3485TIP3   OH231869   4.906   5.947  14.722 -0.5116  0.2561  0.2404
 3485TIP3    H131870   4.897   5.987  14.808 -2.1629 -0.0338  0.2015
 3485TIP3    H231871   4.978   5.885  14.732 -0.3442  0.6097  1.2615
 3486TIP3   OH231872   0.908   1.599   0.436  0.1368 -0.1567 -0.2143
 3486TIP3    H131873   0.960   1.620   0.358 -2.4290  0.4247 -1.8328
 3486TIP3    H231874   0.834   1.548   0.402  0.3147 -2.0923  2.1993
 3487TIP3   OH231875   1.078   4.545   4.241  0.1600 -0.2297 -0.0849
 3487TIP3    H131876   1.009   4.604   4.211  1.0213  0.1755 -1.3224
 3487TIP3    H231877   1.160   4.592   4.221  0.8352 -1.4314 -0.2039
 3488TIP3   OH231878   1.695   2.675  13.177 -0.3309  0.1786  0.2505
 3488TIP3    H131879   1.646   2.594  13.167 -2.1880  1.2353  0.6611
 3488TIP3    H231880   1.776   2.649  13.222 -0.1243 -1.6878 -1.1622
 3489TIP3   OH231881   5.699   1.167   5.414 -0.0911  0.2322 -0.2251
 3489TIP3    H131882   5.727   1.254   5.388  0.5097  0.2691  0.5186
 3489TIP3    H231883   5.742   1.152   5.499 -1.3168 -0.2117  0.3379
 3490TIP3   OH231884   3.821   2.186  13.733 -0.2543 -0.3547  0.3560
 3490TIP3    H131885   3.793   2.174  13.643 -0.3805 -1.2840  0.5204
 3490TIP3    H231886   3.784   2.112  13.781 -2.0881  1.3245  1.6165
 3491TIP3   OH231887   1.232   6.228   1.644 -0.0591  0.3968  0.3900
 3491TIP3    H131888   1.293   6.193   1.710  0.0405  0.7124  0.4664
 3491TIP3    H231889   1.289   6.271   1.580 -0.0481 -1.1611 -0.6706
 3492TIP3   OH231890   6.474   6.274   5.207  0.3388 -0.0445  0.3289
 3492TIP3    H131891   6.459   6.362   5.172  0.8146  0.5010  1.4656
 3492TIP3    H231892   6.416   6.268   5.283  0.2714 -0.7360  0.2293
 3493TIP3   OH231893   1.310   2.171  11.998  0.4101 -0.2306  0.1759
 3493TIP3    H131894   1.382   2.108  11.997  0.1481 -0.5258 -0.5319
 3493TIP3    H231895   1.231   2.118  11.993  0.1042  0.0530  1.7295
 3494TIP3   OH231896   1.800   4.310  16.509  0.5147  0.5624  0.2272
 3494TIP3    H131897   1.734   4.367  16.471 -0.7434 -0.9047  0.1680
 3494TIP3    H231898   1.848   4.275  16.434  0.3933  0.4778  0.1878
 3495TIP3   OH231899   4.620   4.833  12.452 -0.0014  0.9671 -0.0465
 3495TIP3    H131900   4.683   4.865  12.517  0.4687 -0.4326  0.2127
 3495TIP3    H231901   4.673   4.780  12.392 -0.9110 -0.1168  0.1022
 3496TIP3   OH231902   4.698   5.391  10.760 -0.5324 -0.0551 -0.1360
 3496TIP3    H131903   4.697   5.330  10.687 -0.0842 -0.5533  0.2684
 3496TIP3    H231904   4.687   5.477  10.720 -3.4171 -0.5672 -0.5348
 3497TIP3   OH231905   4.244   5.462   1.321  0.1736 -0.3363  0.4717
 3497TIP3    H131906   4.176   5.397   1.338 -0.3757  0.0857 -0.0487
 3497TIP3    H231907   4.209   5.543   1.358  0.7577 -0.2988  0.9307
 3498TIP3   OH231908   4.264   1.682   0.724  0.2427  0.5623  0.1239
 3498TIP3    H131909   4.192   1.640   0.677  1.0186 -0.2097 -0.4096
 3498TIP3    H231910   4.262   1.643   0.811  2.1583 -2.1288 -0.9419
 3499TIP3   OH231911   4.303   1.254  10.620  0.4640 -0.4086 -0.2753
 3499TIP3    H131912   4.361   1.198  10.672  0.3252 -0.1591  0.1599
 3499TIP3    H231913   4.290   1.207  10.538  0.8510 -0.7179 -0.1616
 3500TIP3   OH231914   1.177   4.658  14.775  0.2079  0.1853 -0.9655
 3500TIP3    H131915   1.266   4.636  14.747  0.0627 -1.1193 -0.4510
 3500TIP3    H231916   1.131   4.574  14.776 -0.0935  0.3460  2.0544
 3501TIP3   OH231917   5.988   2.321   4.188 -0.3034 -1.2203 -0.0472
 3501TIP3    H131918   6.083   2.324   4.177 -0.2432 -1.3145  0.4488
 3501TIP3    H231919   5.970   2.382   4.260 -0.5627 -1.6045  0.2151
 3502TIP3   OH231920   0.731   5.902  13.860 -0.0537  0.5859  0.5482
 3502TIP3    H131921   0.778   5.870  13.937 -1.7848  0.0017  1.3843
 3502TIP3    H231922   0.786   5.878  13.786  0.9725 -0.0566  1.5129
 3503TIP3   OH231923   2.628   1.088  10.450  0.0931 -0.3678  0.0354
 3503TIP3    H131924   2.687   1.017  10.423 -0.4710 -2.0082  2.8627
 3503TIP3    H231925   2.684   1.147  10.501 -0.0383 -0.2543  0.0461
 3504TIP3   OH231926   3.538   4.326   3.184 -0.1836 -0.3585  0.0032
 3504TIP3    H131927   3.599   4.257   3.206  0.6968 -0.0064 -1.2853
 3504TIP3    H231928   3.591   4.406   3.182 -0.7932  0.0446 -0.4897
 3505TIP3   OH231929   5.532   0.258  14.768  0.2861 -0.6164  0.0514
 3505TIP3    H131930   5.578   0.341  14.761 -0.5031 -0.1757  0.1172
 3505TIP3    H231931   5.441   0.281  14.787  0.6393 -1.5562  3.1133
 3506TIP3   OH231932   4.261   4.049   2.784  0.1507 -0.0472  0.5609
 3506TIP3    H131933   4.248   4.090   2.870  0.5435  0.5825  0.3189
 3506TIP3    H231934   4.174   4.047   2.745  0.2050  1.0733  0.3475
 3507TIP3   OH231935   4.259   5.018   1.993 -0.0743  1.0194  0.0600
 3507TIP3    H131936   4.347   4.979   1.990 -0.5389  0.0730 -3.3565
 3507TIP3    H231937   4.269   5.095   2.049  3.3690  1.8597 -1.5662
 3508TIP3   OH231938   0.461   5.986   5.771  0.2609 -0.7974 -0.4117
 3508TIP3    H131939   0.526   5.920   5.746  0.7470  0.6018 -3.0036
 3508TIP3    H231940   0.461   5.985   5.867  1.0146 -3.7989 -0.4132
 3509TIP3   OH231941   4.910   6.270  12.488 -0.1639 -0.8220 -0.2796
 3509TIP3    H131942   4.958   6.350  12.468  0.6513 -1.0599  0.7158
 3509TIP3    H231943   4.901   6.226  12.403  0.0215 -0.0276 -0.7120
 3510TIP3   OH231944   4.446   3.814  14.090 -0.1831  0.4668 -0.5765
 3510TIP3    H131945   4.360   3.776  14.074  0.3339 -0.0390 -2.1444
 3510TIP3    H231946   4.506   3.767  14.032  1.2715  0.3794  0.9490
 3511TIP3   OH231947   0.399   3.081  13.846  0.3213  0.2633 -0.2598
 3511TIP3    H131948   0.392   2.985  13.848  0.8456  0.2216 -0.3930
 3511TIP3    H231949   0.309   3.112  13.857  0.3100 -0.2315  1.0468
 3512TIP3   OH231950   3.055   4.684   5.064 -0.4578 -0.3220  0.1409
 3512TIP3    H131951   3.049   4.591   5.084 -1.5145 -0.1676  0.5669
 3512TIP3    H231952   3.005   4.695   4.983 -0.3474 -0.1180  0.0989
 3513TIP3   OH231953   0.215   4.472  16.492 -0.1425 -0.5881 -0.7299
 3513TIP3    H131954   0.159   4.549  16.502 -0.1792 -0.6196 -0.6963
 3513TIP3    H231955   0.285   4.501  16.433  0.2039 -0.3360 -0.1984
 3514TIP3   OH231956   4.617   0.321   2.266 -0.1458  0.3414  0.1072
 3514TIP3    H131957   4.533   0.338   2.223 -0.8750  2.7225  2.3202
 3514TIP3    H231958   4.651   0.407   2.288  1.5251 -0.6890  1.7744
 3515TIP3   OH231959   6.620   2.791  13.197 -0.2782 -0.7844  0.1820
 3515TIP3    H131960   6.537   2.775  13.241  0.0522 -2.0001  0.3895
 3515TIP3    H231961   6.668   2.709  13.207  0.9659 -0.0785  0.1115
 3516TIP3   OH231962   6.512   1.786  15.715  0.1968  0.4058  0.5110
 3516TIP3    H131963   6.441   1.724  15.703 -1.5509  2.6973 -1.4331
 3516TIP3    H231964   6.587   1.746  15.671 -0.4246 -1.0479  0.7336
 3517TIP3   OH231965   0.016   5.612   3.784 -0.0912 -0.5178 -0.0169
 3517TIP3    H131966   0.109   5.592   3.772 -0.3557 -1.5076 -0.4854
 3517TIP3    H231967  -0.024   5.527   3.800 -0.8057 -0.0024  0.9593
 3518TIP3   OH231968   6.278   2.945   6.522  0.7203 -0.3602 -0.3237
 3518TIP3    H131969   6.197   2.918   6.479  0.2422 -0.3032  0.5257
 3518TIP3    H231970   6.341   2.876   6.501  0.2998 -0.6816 -0.5284
 3519TIP3   OH231971   4.568   3.563  14.556  0.0175  0.2208 -0.2934
 3519TIP3    H131972   4.564   3.637  14.495  1.6503  0.6415  0.0820
 3519TIP3    H231973   4.543   3.488  14.503  0.5397  0.7181 -1.2579
 3520TIP3   OH231974   5.816   3.029   1.156  0.2664 -0.2557 -0.1159
 3520TIP3    H131975   5.755   3.040   1.228  1.2641 -2.2293  1.0822
 3520TIP3    H231976   5.784   2.953   1.108 -0.2050  0.8445 -1.5877
 3521TIP3   OH231977   1.449   4.091  17.108 -0.6589 -0.7846 -0.1180
 3521TIP3    H131978   1.384   4.153  17.074 -0.8421 -0.9868 -0.1366
 3521TIP3    H231979   1.400   4.037  17.170 -0.3178 -0.3953  0.4964
 3522TIP3   OH231980   3.680   2.055  16.964  0.3551 -0.5308  0.1968
 3522TIP3    H131981   3.607   2.022  17.017  1.6034 -1.0485  1.6419
 3522TIP3    H231982   3.648   2.137  16.928 -0.9208 -0.7074  0.8656
 3523TIP3   OH231983   0.622   0.755   2.809  0.2723 -0.1707  1.0110
 3523TIP3    H131984   0.653   0.763   2.718 -0.3032  0.3127  0.8490
 3523TIP3    H231985   0.585   0.667   2.814 -0.5210  0.1266  0.5099
 3524TIP3   OH231986   2.787   2.665  13.537  0.0896  0.1555  0.2907
 3524TIP3    H131987   2.780   2.638  13.628 -0.0806 -0.1365  0.1918
 3524TIP3    H231988   2.717   2.729  13.524  0.4423  0.5935  0.5030
 3525TIP3   OH231989   4.382   4.893  14.894 -0.1012 -0.3359 -0.4313
 3525TIP3    H131990   4.381   4.859  14.983 -0.4522  0.6697 -0.0421
 3525TIP3    H231991   4.307   4.953  14.890 -0.4802 -0.8522 -1.5935
 3526TIP3   OH231992   3.295   0.446  13.583  0.1020  0.4589  0.1226
 3526TIP3    H131993   3.327   0.477  13.667  1.0015  0.0704 -0.0699
 3526TIP3    H231994   3.269   0.526  13.536  0.6764  0.7745  0.3342
 3527TIP3   OH231995   0.911   3.908   1.451  0.6648 -0.2526 -1.0705
 3527TIP3    H131996   0.858   3.931   1.527 -1.2983  0.8828 -2.6961
 3527TIP3    H231997   1.001   3.916   1.480 -0.0123  2.7219  0.4437
 3528TIP3   OH231998   2.657   0.988   0.855  0.1143 -0.4493 -0.0681
 3528TIP3    H131999   2.643   1.054   0.787  0.2497 -0.7883 -0.4254
 3528TIP3    H232000   2.680   0.908   0.807 -2.2777 -1.3810  0.2269
 3529TIP3   OH232001   2.361   2.008   2.701  0.0079 -0.2718 -0.4073
 3529TIP3    H132002   2.294   1.972   2.642 -0.7488  0.2095  0.1563
 3529TIP3    H232003   2.351   2.103   2.693  0.8066 -0.1966 -0.5226
 3530TIP3   OH232004   6.737   2.357  12.606  0.2634 -0.4719 -0.2442
 3530TIP3    H132005   6.810   2.296  12.619  1.1227  0.5630 -0.2197
 3530TIP3    H232006   6.712   2.384  12.694 -2.0756 -3.0415 -0.0384
 3531TIP3   OH232007   4.715   5.098  13.850  0.0197 -0.2862  0.0633
 3531TIP3    H132008   4.671   5.086  13.765 -0.4134  2.8910 -0.2056
 3531TIP3    H232009   4.787   5.158  13.832  0.9220 -0.8536  1.6668
 3532TIP3   OH232010   2.770   1.576  15.605  0.0260 -0.1491  0.0421
 3532TIP3    H132011   2.726   1.653  15.568  0.3647  0.0831  0.1250
 3532TIP3    H232012   2.700   1.529  15.651 -0.2121  0.0305 -0.1378
 3533TIP3   OH232013   4.996   4.771  12.649  0.2971 -0.0374  0.1971
 3533TIP3    H132014   5.012   4.728  12.565  0.4039  0.4276 -0.0206
 3533TIP3    H232015   4.938   4.710  12.695  0.6276 -0.5218 -0.0177
 3534TIP3   OH232016   6.457   2.981   2.165 -0.2906  0.2550 -0.2412
 3534TIP3    H132017   6.381   2.924   2.153 -0.8493  0.7013  1.0756
 3534TIP3    H232018   6.489   2.961   2.253  0.4016  0.9117 -0.3385
 3535TIP3   OH232019   3.909   5.509  17.214  0.2167  0.0901 -0.1957
 3535TIP3    H132020   3.878   5.555  17.291  0.0954  0.6931 -0.6025
 3535TIP3    H232021   3.862   5.549  17.141 -0.7281 -1.4294 -0.4502
 3536TIP3   OH232022   3.181   5.448  14.896  0.2419 -0.2037  0.5154
 3536TIP3    H132023   3.162   5.355  14.891  0.1035 -0.1638  0.3098
 3536TIP3    H232024   3.099   5.488  14.925  0.7818 -0.3348  2.2711
 3537TIP3   OH232025   5.156   0.614   3.894  0.0479 -0.0258  0.4783
 3537TIP3    H132026   5.122   0.652   3.813  0.6939  0.1562  0.2867
 3537TIP3    H232027   5.085   0.623   3.957  0.1276  1.3125  0.3775
 3538TIP3   OH232028   2.333   6.008   2.574  0.1705 -0.3414  0.1875
 3538TIP3    H132029   2.335   6.079   2.511  0.5185  0.8442  1.5221
 3538TIP3    H232030   2.423   5.975   2.576  0.0746 -0.6380 -0.2060
 3539TIP3   OH232031   0.059   0.142   0.715 -0.5300  0.0761 -0.1798
 3539TIP3    H132032   0.099   0.216   0.761  0.3662 -0.0876 -0.6765
 3539TIP3    H232033  -0.033   0.144   0.740 -0.0456 -0.0479  1.6844
 3540TIP3   OH232034   4.002   0.954  11.982 -0.4801  0.3133  0.1399
 3540TIP3    H132035   4.007   0.860  11.996  1.5864 -0.3049 -4.0280
 3540TIP3    H232036   3.958   0.963  11.897  0.4838  3.0724 -0.1139
 3541TIP3   OH232037   6.382   4.861   5.662  0.7103  0.4595  0.1851
 3541TIP3    H132038   6.463   4.910   5.646  0.4543  1.5247  1.9568
 3541TIP3    H232039   6.320   4.927   5.692 -0.1746 -0.6892  0.9237
 3542TIP3   OH232040   1.448   2.097  14.045  0.3179 -0.4099  0.3912
 3542TIP3    H132041   1.373   2.153  14.063  0.3905 -0.4114  0.6971
 3542TIP3    H232042   1.496   2.142  13.976 -0.2384 -0.6582 -0.1607
 3543TIP3   OH232043   2.382   5.399   3.266 -0.1973  0.3871 -0.2508
 3543TIP3    H132044   2.397   5.337   3.337  0.8495 -0.0884 -0.8779
 3543TIP3    H232045   2.429   5.478   3.294 -0.3385  0.4202 -0.1072
 3544TIP3   OH232046   5.497   0.223   3.707 -0.1709  0.1348 -0.1363
 3544TIP3    H132047   5.455   0.265   3.632  0.9633 -1.6389 -1.8118
 3544TIP3    H232048   5.548   0.292   3.748  0.1980  0.8398 -1.7543
 3545TIP3   OH232049   2.044   5.114  12.399 -0.4068  0.3156  0.1251
 3545TIP3    H132050   1.948   5.124  12.398 -0.3940  1.0721 -5.2663
 3545TIP3    H232051   2.077   5.200  12.424 -1.0899  0.7291 -0.3788
 3546TIP3   OH232052   6.752   0.076  16.051 -0.3677  0.1806  0.2295
 3546TIP3    H132053   6.836   0.119  16.036 -0.0246 -0.0216  1.5044
 3546TIP3    H232054   6.727   0.041  15.965  1.1354 -0.2823 -0.0296
 3547TIP3   OH232055   3.815   6.062   0.548 -0.0425  0.4457 -0.0374
 3547TIP3    H132056   3.767   6.052   0.466  0.7104  0.2107 -0.4595
 3547TIP3    H232057   3.760   6.019   0.614 -0.9868  1.2537 -0.2885
 3548TIP3   OH232058   0.171   2.298  14.127 -0.5870 -0.1520  0.1922
 3548TIP3    H132059   0.244   2.270  14.182 -0.3063 -0.8810 -0.5380
 3548TIP3    H232060   0.187   2.256  14.043 -2.4537 -1.2643  0.3587
 3549TIP3   OH232061   1.287   0.414  16.921  0.0629 -0.5619 -0.2512
 3549TIP3    H132062   1.236   0.493  16.904 -0.0344 -0.3984  0.7557
 3549TIP3    H232063   1.231   0.361  16.978  0.5858 -0.8547 -0.0024
 3550TIP3   OH232064   1.988   0.066   4.175  0.2569 -0.1834 -0.0822
 3550TIP3    H132065   2.050   0.134   4.151 -1.9190  1.6956 -0.5246
 3550TIP3    H232066   1.927   0.109   4.235 -0.7656 -1.9307  0.1713
 3551TIP3   OH232067   3.377   5.044  14.802  0.3196 -0.0699  0.2351
 3551TIP3    H132068   3.463   5.068  14.835 -0.6381  2.9604  0.7221
 3551TIP3    H232069   3.392   5.013  14.713  1.8855  0.4759  0.3026
 3552TIP3   OH232070   0.213   6.522  15.878 -0.0842 -0.2750 -0.0535
 3552TIP3    H132071   0.265   6.479  15.811 -0.8060 -2.6332  0.8346
 3552TIP3    H232072   0.276   6.570  15.931  0.7804 -0.4846 -0.8851
 3553TIP3   OH232073   5.365   1.674   5.546  0.5424  0.1897 -0.0331
 3553TIP3    H132074   5.305   1.610   5.508  0.1970  1.7587 -2.2291
 3553TIP3    H232075   5.309   1.734   5.595  0.6731 -0.1565  0.5450
 3554TIP3   OH232076   1.499   0.674   5.447 -0.0200 -0.1838 -0.1503
 3554TIP3    H132077   1.571   0.627   5.489 -1.0510 -0.7642  0.9797
 3554TIP3    H232078   1.470   0.737   5.513 -3.1596 -2.6480  0.8987
 3555TIP3   OH232079   3.890   6.135  15.542  0.4885 -0.0493  0.9995
 3555TIP3    H132080   3.892   6.107  15.450 -0.6718  3.9352 -0.3905
 3555TIP3    H232081   3.896   6.054  15.592 -0.8823 -2.5578 -2.6057
 3556TIP3   OH232082   3.654   0.115   0.631 -0.3423 -0.5062  0.4216
 3556TIP3    H132083   3.749   0.102   0.639 -0.4967 -1.3210  1.0761
 3556TIP3    H232084   3.645   0.198   0.585  0.6920 -1.2406 -1.1320
 3557TIP3   OH232085   6.607   0.145   4.240  0.2529 -0.0291 -0.1268
 3557TIP3    H132086   6.548   0.115   4.170 -1.1366  0.8134  0.6429
 3557TIP3    H232087   6.557   0.131   4.320  0.3226  2.4538  0.4019
 3558TIP3   OH232088   4.916   2.741  15.034  1.0669  0.2153 -0.3146
 3558TIP3    H132089   4.919   2.833  15.011 -0.3468  0.1496 -0.8024
 3558TIP3    H232090   5.007   2.716  15.047  1.5159  1.4519 -1.0792
 3559TIP3   OH232091   1.327   2.696  13.150 -0.3166 -0.1343  0.3570
 3559TIP3    H132092   1.367   2.778  13.121  0.2575 -0.4474  0.2643
 3559TIP3    H232093   1.322   2.643  13.071  0.8780 -0.8352  0.7407
 3560TIP3   OH232094   5.268   6.783   2.565  0.2482 -0.2390  0.0875
 3560TIP3    H132095   5.360   6.765   2.545 -0.8419 -1.1995 -4.5234
 3560TIP3    H232096   5.264   6.777   2.661  4.5572 -2.1281  0.3095
 3561TIP3   OH232097   1.304   5.282   3.079 -0.3071 -0.0180 -0.1584
 3561TIP3    H132098   1.308   5.216   3.148 -1.2595 -0.3074 -0.3761
 3561TIP3    H232099   1.212   5.285   3.053 -0.0596  0.4963 -1.0169
 3562TIP3   OH232100   4.882   5.379   3.187 -0.5459  0.1003  0.2295
 3562TIP3    H132101   4.906   5.472   3.180  0.9866 -0.4312 -1.9706
 3562TIP3    H232102   4.949   5.341   3.244 -1.9220  0.5496  2.2287
 3563TIP3   OH232103   5.437   6.292   2.306 -0.5784 -0.2922  0.1809
 3563TIP3    H132104   5.379   6.290   2.382 -0.9099 -0.6193 -0.0795
 3563TIP3    H232105   5.380   6.274   2.231 -0.0159 -1.3877  0.0013
 3564TIP3   OH232106   1.920   6.119  15.455  0.2077 -0.0350  0.2903
 3564TIP3    H132107   1.985   6.160  15.512 -0.9344 -0.5617  1.9919
 3564TIP3    H232108   1.896   6.187  15.392 -0.3514  1.3463  1.9839
 3565TIP3   OH232109   0.454   1.861   2.538  0.1659  0.4938 -0.0516
 3565TIP3    H132110   0.389   1.914   2.491 -0.1952 -0.5931 -0.7987
 3565TIP3    H232111   0.533   1.867   2.486 -0.2674 -0.8054 -0.8779
 3566TIP3   OH232112   0.470   1.292  16.576  0.0532  0.2981 -0.4689
 3566TIP3    H132113   0.481   1.386  16.590 -0.2722  0.3852 -0.7939
 3566TIP3    H232114   0.474   1.280  16.481  1.8554 -0.2496 -0.3494
 3567TIP3   OH232115   0.141   5.929   4.723  0.4865 -0.7702 -0.7312
 3567TIP3    H132116   0.049   5.938   4.749 -0.0879 -1.7558 -2.3341
 3567TIP3    H232117   0.153   5.993   4.654  0.9010 -0.9202 -0.8004
 3568TIP3   OH232118   2.050   1.350   1.370 -0.0605 -0.6735 -0.0891
 3568TIP3    H132119   2.002   1.348   1.453  0.8624 -2.3854  0.4467
 3568TIP3    H232120   1.988   1.384   1.306 -0.7702  0.7489  1.3057
 3569TIP3   OH232121   4.695   2.720   0.724  0.0432 -0.2275 -0.2688
 3569TIP3    H132122   4.614   2.765   0.702 -0.5260 -0.7482  0.7194
 3569TIP3    H232123   4.764   2.775   0.686 -0.7101  0.8355 -0.1285
 3570TIP3   OH232124   5.614   4.165   1.889 -0.1731 -0.0532 -0.3168
 3570TIP3    H132125   5.708   4.156   1.908  0.0185 -0.4216 -1.4554
 3570TIP3    H232126   5.591   4.250   1.927  0.5624 -0.0595  0.1710
 3571TIP3   OH232127   5.784   6.665  14.552  0.2980 -0.1066 -0.0168
 3571TIP3    H132128   5.866   6.711  14.536  0.2967 -0.5526 -1.3278
 3571TIP3    H232129   5.717   6.734  14.554  0.2679 -0.0490 -2.1756
 3572TIP3   OH232130   1.134   3.519  12.707  0.5505 -0.3516 -0.0286
 3572TIP3    H132131   1.131   3.449  12.773 -1.6885  0.8717  1.2288
 3572TIP3    H232132   1.160   3.474  12.626  1.4872 -2.2080  1.2419
 3573TIP3   OH232133   0.529   3.153  14.088 -0.5300 -0.6043  0.1907
 3573TIP3    H132134   0.439   3.136  14.115 -1.1583  0.4166 -1.1376
 3573TIP3    H232135   0.578   3.075  14.113 -1.3139 -0.2505  2.9679
 3574TIP3   OH232136   3.039   0.498   5.482 -0.3122 -0.3838  0.1687
 3574TIP3    H132137   2.980   0.533   5.415 -0.0963  0.1475  0.2548
 3574TIP3    H232138   3.058   0.573   5.539 -0.7819 -0.9140  1.0314
 3575TIP3   OH232139   5.234   3.247   3.763  0.5169  0.3911 -0.0605
 3575TIP3    H132140   5.231   3.307   3.689  0.3669 -1.9029 -1.9895
 3575TIP3    H232141   5.318   3.265   3.805  0.1484  2.4257 -0.1672
 3576TIP3   OH232142   1.263   3.560   3.955 -0.4554  0.5389  0.5651
 3576TIP3    H132143   1.258   3.633   4.017 -0.1757  2.0192 -1.0880
 3576TIP3    H232144   1.193   3.578   3.892  1.7505  1.2755 -1.7718
 3577TIP3   OH232145   4.841   1.643   4.888 -0.2019 -0.0695  0.5800
 3577TIP3    H132146   4.862   1.603   4.972  4.2805  0.0777 -0.3832
 3577TIP3    H232147   4.803   1.571   4.837  3.9991 -2.1836  0.2419
 3578TIP3   OH232148   4.951   2.904  16.365  0.4934 -0.0077 -0.2511
 3578TIP3    H132149   4.924   2.826  16.316 -0.3214 -0.0299  0.2197
 3578TIP3    H232150   5.016   2.871  16.427  1.7664  0.0753 -1.5077
 3579TIP3   OH232151   4.295   2.057  11.677  0.3694  0.5546 -0.2095
 3579TIP3    H132152   4.390   2.059  11.689  0.2671 -2.1801  1.5759
 3579TIP3    H232153   4.283   2.024  11.588  1.1013  0.7823 -0.3924
 3580TIP3   OH232154   1.442   5.122  11.766 -0.5763  0.5100  0.0669
 3580TIP3    H132155   1.482   5.209  11.755 -0.3870  0.5688  1.1759
 3580TIP3    H232156   1.432   5.089  11.677  2.3975  0.2923 -0.2398
 3581TIP3   OH232157   0.047   4.187   2.752  0.2066 -0.9679 -0.1334
 3581TIP3    H132158   0.023   4.255   2.814  0.4423 -0.5673 -0.4811
 3581TIP3    H232159   0.084   4.234   2.677 -0.6422 -1.4100 -0.8356
 3582TIP3   OH232160   1.139   6.668  14.069  0.1662 -0.1108 -0.5804
 3582TIP3    H132161   1.182   6.753  14.055  0.1697  0.3683  2.2048
 3582TIP3    H232162   1.129   6.661  14.164 -2.5072 -1.9167 -0.9519
 3583TIP3   OH232163   6.138   2.733   3.321  0.0900 -0.4355  0.2893
 3583TIP3    H132164   6.090   2.657   3.354  0.5922 -0.4810  0.9337
 3583TIP3    H232165   6.198   2.696   3.256  0.7590 -0.6848  1.0366
 3584TIP3   OH232166   2.865   2.510  16.528  0.7925 -0.4252 -0.3869
 3584TIP3    H132167   2.837   2.418  16.533 -2.1920  0.5117  1.1833
 3584TIP3    H232168   2.833   2.540  16.443 -1.8311  0.2519  0.8092
 3585TIP3   OH232169   3.915   5.109   1.559 -0.0292 -0.1134  0.4053
 3585TIP3    H132170   3.903   5.015   1.549  0.1107 -0.1985  1.0185
 3585TIP3    H232171   3.921   5.122   1.654  0.8257  0.4025  0.2821
 3586TIP3   OH232172   5.724   6.110  16.800  0.5632 -0.4651 -0.3392
 3586TIP3    H132173   5.687   6.073  16.720 -3.4774 -1.3724  1.8447
 3586TIP3    H232174   5.691   6.200  16.802 -1.0745 -1.0766  1.2909
 3587TIP3   OH232175   3.409   0.362  15.907 -0.2173 -0.3325 -0.4225
 3587TIP3    H132176   3.378   0.452  15.921 -0.1777 -0.2799 -0.6860
 3587TIP3    H232177   3.415   0.353  15.812  1.1023 -0.1611 -0.3588
 3588TIP3   OH232178   2.944   2.781   1.217  1.1261 -0.0337 -0.4124
 3588TIP3    H132179   2.893   2.808   1.141  1.2044  0.1463 -0.4017
 3588TIP3    H232180   3.013   2.726   1.182 -0.8495 -2.7890 -0.1199
 3589TIP3   OH232181   5.970   6.050  11.157 -0.2076 -0.1523  0.1083
 3589TIP3    H132182   5.948   6.086  11.071  0.7345  0.0696 -0.0375
 3589TIP3    H232183   5.887   6.052  11.205 -0.8620 -0.7968 -0.9756
 3590TIP3   OH232184   1.136   1.586   5.573  0.2419 -0.7162  0.4136
 3590TIP3    H132185   1.222   1.615   5.605 -0.3794  0.5774  0.9674
 3590TIP3    H232186   1.092   1.553   5.651 -0.8261  1.3003  0.6809
 3591TIP3   OH232187   6.090   5.696   1.041 -0.3016 -0.2837 -0.0273
 3591TIP3    H132188   6.107   5.607   1.010 -2.9962 -1.2425  1.0801
 3591TIP3    H232189   6.009   5.721   0.997  0.7266  1.8813 -0.7734
 3592TIP3   OH232190   0.756   1.949   5.328  0.1250  0.2283  0.4465
 3592TIP3    H132191   0.837   1.920   5.287 -0.5146  0.6605 -1.1756
 3592TIP3    H232192   0.751   2.042   5.308 -1.4003 -0.0499 -0.6011
 3593TIP3   OH232193   3.383   4.350  14.986  0.1981  0.1476 -0.3320
 3593TIP3    H132194   3.358   4.442  14.998 -1.2318 -0.0752 -1.5198
 3593TIP3    H232195   3.330   4.320  14.912  1.2151 -1.4253 -0.4389
 3594TIP3   OH232196   3.200   2.373   0.840  0.3892 -0.1339 -0.3501
 3594TIP3    H132197   3.193   2.278   0.835 -0.0520 -0.1452  0.4241
 3594TIP3    H232198   3.139   2.405   0.773 -0.2689 -0.3774  0.1300
 3595TIP3   OH232199   2.496   2.154   0.629 -0.1104  0.6721 -0.0216
 3595TIP3    H132200   2.451   2.193   0.553 -1.6298 -0.1819  0.4081
 3595TIP3    H232201   2.580   2.199   0.633 -1.0818  2.5837 -0.6448
 3596TIP3   OH232202   1.616   0.297   0.393 -0.1967 -0.0539  0.0359
 3596TIP3    H132203   1.542   0.239   0.374 -0.6491  0.0820  1.3686
 3596TIP3    H232204   1.690   0.257   0.348 -1.0365 -0.2907 -1.1624
 3597TIP3   OH232205   0.916   1.298  13.177 -0.1210 -0.6969  0.1762
 3597TIP3    H132206   0.917   1.206  13.153  4.1214 -0.7504  0.1364
 3597TIP3    H232207   0.881   1.299  13.266  1.2824 -2.5916  0.7859
 3598TIP3   OH232208   1.957   3.400  14.824 -0.3198  0.1403 -0.2937
 3598TIP3    H132209   1.967   3.488  14.787  1.3414  0.6219  1.1925
 3598TIP3    H232210   1.911   3.414  14.907 -0.0754 -0.3954 -0.0646
 3599TIP3   OH232211   0.203   2.473  13.572 -0.5132  0.0399 -0.6668
 3599TIP3    H132212   0.227   2.380  13.574  2.0460  0.6506 -0.7468
 3599TIP3    H232213   0.258   2.510  13.503 -0.2854  1.9057  0.4730
 3600TIP3   OH232214   6.609   4.590   5.326 -0.2774 -0.4970  0.0114
 3600TIP3    H132215   6.543   4.605   5.394 -1.3456 -0.6567 -0.9804
 3600TIP3    H232216   6.692   4.584   5.374 -1.0151 -0.5809  1.2970
 3601TIP3   OH232217   5.300   1.247   0.761 -0.1767 -0.0464 -0.1433
 3601TIP3    H132218   5.262   1.171   0.804 -2.1486 -0.2159 -2.1046
 3601TIP3    H232219   5.344   1.211   0.684  0.5293  0.6001 -0.0479
 3602TIP3   OH232220   2.507   4.928   0.322  1.2081  0.1521  0.0962
 3602TIP3    H132221   2.502   4.888   0.409 -1.3764  0.2896  0.0446
 3602TIP3    H232222   2.546   5.014   0.337 -0.3264  0.6538  1.3022
 3603TIP3   OH232223   1.081   4.105   5.520  0.1650 -0.1652  0.2460
 3603TIP3    H132224   1.041   4.140   5.440  1.1449  0.0237 -0.1670
 3603TIP3    H232225   1.011   4.055   5.562 -1.3395  2.4183  0.9364
 3604TIP3   OH232226   5.501   4.715  13.864  0.1780 -0.7399  0.4938
 3604TIP3    H132227   5.474   4.649  13.801 -0.5764  0.4356 -0.4272
 3604TIP3    H232228   5.463   4.686  13.947 -1.0497 -0.9017 -0.1154
 3605TIP3   OH232229   2.206   1.685   5.670  0.0250  0.3749  0.1522
 3605TIP3    H132230   2.293   1.722   5.656  0.9252 -1.9575 -0.7329
 3605TIP3    H232231   2.206   1.658   5.762  1.2078 -1.8925 -0.4617
 3606TIP3   OH232232   1.202   5.570   1.824  0.0508 -0.6797 -0.9084
 3606TIP3    H132233   1.240   5.483   1.816 -0.1571 -0.7230 -1.4558
 3606TIP3    H232234   1.235   5.618   1.748  0.6532 -0.0987 -0.2795
 3607TIP3   OH232235   0.343   5.892   4.939  0.2820  0.1953  0.6416
 3607TIP3    H132236   0.288   5.922   4.866 -1.4320  0.6241  2.0668
 3607TIP3    H232237   0.413   5.842   4.897 -1.4775 -0.8135 -1.2314
 3608TIP3   OH232238   6.150   2.552  14.295  0.8889 -0.4788  0.0901
 3608TIP3    H132239   6.148   2.616  14.224  0.5571 -1.5303 -0.8556
 3608TIP3    H232240   6.106   2.475  14.260 -0.5583 -0.5270  1.9091
 3609TIP3   OH232241   4.136   0.681   4.987 -0.1085  0.0908  0.2087
 3609TIP3    H132242   4.158   0.615   4.922  1.5865  0.2758  0.5522
 3609TIP3    H232243   4.101   0.632   5.061 -1.0218 -0.2105 -0.4198
 3610TIP3   OH232244   5.901   3.266  14.289 -0.0059  0.3849  0.5761
 3610TIP3    H132245   5.984   3.313  14.277 -0.3643  1.3702  1.8667
 3610TIP3    H232246   5.900   3.242  14.381  0.2067 -2.2756 -0.0768
 3611TIP3   OH232247   0.897   2.779  16.166 -0.3137 -0.5561  0.2189
 3611TIP3    H132248   0.924   2.866  16.195 -1.1812  0.3344 -1.5256
 3611TIP3    H232249   0.976   2.726  16.173  0.1144  0.2426  1.7444
 3612TIP3   OH232250   5.987   5.505  11.842 -0.0080  0.0282 -0.6290
 3612TIP3    H132251   6.076   5.517  11.809 -1.2811  1.1160 -3.8633
 3612TIP3    H232252   5.967   5.586  11.888  0.1077  0.4347 -1.2900
 3613TIP3   OH232253   0.812   0.319   5.393  0.0678 -0.4612 -0.0514
 3613TIP3    H132254   0.854   0.392   5.439  1.3956 -1.2170 -0.0333
 3613TIP3    H232255   0.737   0.297   5.448 -0.6968  1.2659 -0.3592
 3614TIP3   OH232256   5.181   6.615  10.752  0.4117  0.1650  0.4558
 3614TIP3    H132257   5.267   6.574  10.744  0.1099 -0.3765 -0.1563
 3614TIP3    H232258   5.126   6.548  10.793  0.1953  0.3707  0.5045
 3615TIP3   OH232259   4.618   1.351   5.315  0.6033  0.0821  0.3078
 3615TIP3    H132260   4.575   1.424   5.270  0.5491 -0.2811 -0.2408
 3615TIP3    H232261   4.607   1.277   5.255  0.8759 -0.3143  0.7478
 3616TIP3   OH232262   6.422   5.273   6.011 -0.0186  0.0896  0.0125
 3616TIP3    H132263   6.427   5.350   6.068  0.4274 -0.5549  0.8614
 3616TIP3    H232264   6.345   5.225   6.042  0.9644 -0.9311  0.9548
 3617TIP3   OH232265   5.424   4.258   3.966  0.4290 -0.1950  0.2180
 3617TIP3    H132266   5.501   4.305   3.934 -1.1687  1.0927 -1.8694
 3617TIP3    H232267   5.393   4.309   4.041  0.9748 -0.1075  0.3828
 3618TIP3   OH232268   2.739   1.887   0.500  0.0773 -0.0514  0.6825
 3618TIP3    H132269   2.731   1.949   0.428 -0.0285 -0.0875  0.6632
 3618TIP3    H232270   2.762   1.940   0.576 -1.6417  0.2176  1.0294
 3619TIP3   OH232271   2.337   2.482  17.143  0.3489  0.1991  0.4514
 3619TIP3    H132272   2.362   2.504  17.053  0.4949 -1.0876  0.1588
 3619TIP3    H232273   2.366   2.557  17.196  4.3990 -0.9738  0.0746
 3620TIP3   OH232274   1.012   1.542   5.320  0.2484 -0.0628  0.0535
 3620TIP3    H132275   1.075   1.547   5.391 -0.4240  0.6709  0.6014
 3620TIP3    H232276   0.928   1.565   5.360 -0.6502 -2.5781 -0.3177
 3621TIP3   OH232277   5.503   6.496  11.265 -0.8418  0.2380 -0.2460
 3621TIP3    H132278   5.533   6.418  11.311 -0.3640  0.2842 -0.4796
 3621TIP3    H232279   5.419   6.471  11.226 -0.4594 -0.3027 -0.7228
 3622TIP3   OH232280   3.405   0.436   4.648 -0.4071 -0.1641 -0.0418
 3622TIP3    H132281   3.452   0.353   4.655 -0.1585 -0.0516 -0.3849
 3622TIP3    H232282   3.313   0.412   4.661 -0.1121 -0.1626  2.1324
 3623TIP3   OH232283   0.120   0.833  16.112  0.0356 -0.0217 -0.2525
 3623TIP3    H132284   0.103   0.877  16.028 -0.9539 -0.7849 -0.4602
 3623TIP3    H232285   0.105   0.900  16.178  1.2095  0.6978 -0.6970
 3624TIP3   OH232286   1.382   3.988  12.064 -0.0838  0.0656 -0.8056
 3624TIP3    H132287   1.375   3.952  11.976 -1.2765  0.4205 -0.8646
 3624TIP3    H232288   1.309   3.949  12.112  0.0458  0.5424 -0.2113
 3625TIP3   OH232289   3.432   2.995  16.024  0.6889  0.1809 -0.1229
 3625TIP3    H132290   3.464   3.081  16.052  0.6037  0.4642 -0.8883
 3625TIP3    H232291   3.488   2.971  15.950  0.0771  0.0160 -0.5368
 3626TIP3   OH232292   0.934   0.859  11.539 -0.2596  0.0774  0.2954
 3626TIP3    H132293   0.909   0.821  11.455 -0.7029  0.1993  0.3729
 3626TIP3    H232294   0.984   0.937  11.517 -1.2264  0.6648  0.1474
 3627TIP3   OH232295   2.317   1.419   0.748  0.0585  0.1336 -0.4909
 3627TIP3    H132296   2.309   1.435   0.654  0.5830 -0.2838 -0.6066
 3627TIP3    H232297   2.407   1.390   0.760 -0.1962 -0.4412  0.0486
 3628TIP3   OH232298   1.839   1.934  14.000  0.0258 -0.3956  0.0174
 3628TIP3    H132299   1.794   1.876  14.062  1.4838  0.0078  1.4928
 3628TIP3    H232300   1.842   2.018  14.045 -2.8062  1.0908 -2.4541
 3629TIP3   OH232301   4.079   5.297  11.681 -0.4088 -0.2228  0.4623
 3629TIP3    H132302   4.040   5.214  11.710 -1.9264 -0.3722 -1.9027
 3629TIP3    H232303   4.145   5.270  11.617 -0.0336  0.3610  0.5995
 3630TIP3   OH232304   0.407   0.518  13.207 -0.2608  0.6102  0.1577
 3630TIP3    H132305   0.488   0.556  13.173  0.0194  2.3200  2.6120
 3630TIP3    H232306   0.353   0.505  13.129  3.2544 -3.0620 -1.9430
 3631TIP3   OH232307   5.754   2.582   2.139  0.3086  0.2974 -0.3704
 3631TIP3    H132308   5.799   2.606   2.058 -0.4844 -0.2520 -0.9833
 3631TIP3    H232309   5.680   2.643   2.144  1.3831  1.5473  0.9031
 3632TIP3   OH232310   5.365   0.881  13.023  0.4481  0.1002  0.5976
 3632TIP3    H132311   5.411   0.801  13.048 -0.8095 -0.2262  1.9707
 3632TIP3    H232312   5.276   0.852  13.003  0.2095  1.0345  0.2685
 3633TIP3   OH232313   1.624   1.664  13.727 -0.5241 -0.0737  0.5073
 3633TIP3    H132314   1.712   1.646  13.693 -0.8550  1.3771 -1.1865
 3633TIP3    H232315   1.640   1.700  13.815  0.4488 -1.7490  1.0473
 3634TIP3   OH232316   4.075   5.108   5.030  0.1034 -0.1634 -0.2635
 3634TIP3    H132317   4.074   5.120   5.125  1.1773  2.3314 -0.5090
 3634TIP3    H232318   4.164   5.080   5.010  0.1317  0.1518 -0.5982
 3635TIP3   OH232319   4.814   2.981  12.812  0.1645 -0.2918 -0.3305
 3635TIP3    H132320   4.900   2.971  12.770 -0.1900 -2.4114 -0.5993
 3635TIP3    H232321   4.829   3.044  12.883  2.7506 -3.1742  1.7954
 3636TIP3   OH232322   2.258   4.798   0.808  0.0231 -0.1404 -0.4475
 3636TIP3    H132323   2.300   4.867   0.756 -0.9240  1.0254  0.2909
 3636TIP3    H232324   2.298   4.717   0.778  1.0875  0.7281 -1.4187
 3637TIP3   OH232325   5.952   6.197   3.043 -0.1063 -0.2343 -0.4300
 3637TIP3    H132326   5.881   6.201   2.979 -0.8523 -2.2939  0.2227
 3637TIP3    H232327   6.006   6.124   3.015  0.2015 -0.4308  0.6280
 3638TIP3   OH232328   4.595   5.949  11.056  0.0492  0.0949 -0.6221
 3638TIP3    H132329   4.586   5.873  10.999  0.3995  0.4609 -1.1760
 3638TIP3    H232330   4.639   5.915  11.134 -0.1024 -0.3383 -0.7239
 3639TIP3   OH232331   0.724   6.350   1.861 -0.0304  0.2296 -0.2424
 3639TIP3    H132332   0.804   6.353   1.809  0.6842  0.8305  0.8412
 3639TIP3    H232333   0.716   6.439   1.897 -0.4649 -0.1764  0.6983
 3640TIP3   OH232334   0.606   0.738  12.635 -0.0575  0.1784 -0.2297
 3640TIP3    H132335   0.520   0.708  12.664  0.2765 -2.0272 -1.4406
 3640TIP3    H232336   0.642   0.785  12.711 -1.2406 -1.1320  1.1659
 3641TIP3   OH232337   3.413   6.280  12.414  0.6699 -0.3863 -0.1215
 3641TIP3    H132338   3.337   6.221  12.415  0.8150 -0.5775  1.3981
 3641TIP3    H232339   3.435   6.289  12.321 -0.1611 -1.6800 -0.4645
 3642TIP3   OH232340   6.370   5.903  16.002 -0.1180  0.4434  0.3957
 3642TIP3    H132341   6.360   5.954  16.082 -1.4592  1.6088 -0.5037
 3642TIP3    H232342   6.319   5.823  16.018 -1.2337  1.1355  0.3093
 3643TIP3   OH232343   4.125   4.473  12.233 -0.1064 -0.3705  0.0016
 3643TIP3    H132344   4.181   4.532  12.182 -0.2711  0.0169  0.2622
 3643TIP3    H232345   4.053   4.450  12.175 -0.6070  0.5414  0.2534
 3644TIP3   OH232346   6.584   5.913  13.315  0.1798  0.2162 -0.7291
 3644TIP3    H132347   6.657   5.897  13.255  1.9658  0.1724  1.3953
 3644TIP3    H232348   6.517   5.851  13.288  1.0676 -0.0158 -2.4784
 3645TIP3   OH232349   3.949   5.328  15.626  0.1366  0.0224  0.7651
 3645TIP3    H132350   3.870   5.305  15.576  0.2329  3.1944 -0.9410
 3645TIP3    H232351   4.019   5.277  15.585 -0.4102 -0.0999 -0.0206
 3646TIP3   OH232352   3.717   3.740  16.068 -0.6079  0.3416 -0.6303
 3646TIP3    H132353   3.765   3.727  15.986  0.0139  0.1509 -0.2419
 3646TIP3    H232354   3.730   3.833  16.089 -0.8277  0.4070 -0.7870
 3647TIP3   OH232355   2.154   1.292  12.318 -0.0953 -0.2134 -0.2126
 3647TIP3    H132356   2.186   1.257  12.235  1.9348 -0.2409  0.5731
 3647TIP3    H232357   2.201   1.244  12.385 -1.0064  0.4889  0.9590
 3648TIP3   OH232358   3.393   3.055  10.756 -0.3144 -0.3802  0.2403
 3648TIP3    H132359   3.414   2.962  10.753  0.7336 -0.1649  0.7993
 3648TIP3    H232360   3.351   3.067  10.841 -3.1582 -0.8903 -1.0441
 3649TIP3   OH232361   2.918   6.736  11.661 -0.2909 -0.3250  0.9296
 3649TIP3    H132362   2.873   6.718  11.744  3.1631  1.2251  3.2675
 3649TIP3    H232363   2.863   6.803  11.619 -1.0462  0.3759  2.9438
 3650TIP3   OH232364   3.916   4.837  16.385  0.2220 -0.4865 -0.6504
 3650TIP3    H132365   3.903   4.745  16.408 -0.0458 -1.2844 -3.7770
 3650TIP3    H232366   3.840   4.881  16.423  0.7629 -1.3980  1.5674
 3651TIP3   OH232367   5.841   4.104  17.037  0.7213 -0.1899  0.3888
 3651TIP3    H132368   5.776   4.033  17.041 -0.0994  0.5469  0.2936
 3651TIP3    H232369   5.858   4.126  17.128  1.1663 -0.6803  0.4268
 3652TIP3   OH232370   1.532   1.195   0.039  0.5270 -0.4839  0.1168
 3652TIP3    H132371   1.579   1.143   0.104  1.1474 -1.4086 -1.0512
 3652TIP3    H232372   1.444   1.155   0.036  0.0906  0.3606  1.2844
 3653TIP3   OH232373   3.081   1.213  17.226  0.6933  0.1753  0.4004
 3653TIP3    H132374   3.139   1.284  17.199  1.5785 -0.2252  1.2376
 3653TIP3    H232375   3.126   1.134  17.197 -0.2447 -0.0534 -0.4436
 3654TIP3   OH232376   3.655   5.184  11.798  0.7117  0.2448  0.1624
 3654TIP3    H132377   3.716   5.110  11.806  0.7990  0.2755 -0.2343
 3654TIP3    H232378   3.587   5.152  11.739  0.6306  0.4023  0.1715
 3655TIP3   OH232379   0.733   1.720  11.912  0.0471 -0.4099  0.0828
 3655TIP3    H132380   0.695   1.681  11.991 -1.0500  0.2909 -0.0957
 3655TIP3    H232381   0.691   1.805  11.904  1.6577  0.3940 -0.1235
 3656TIP3   OH232382   6.001   2.346  14.880 -0.3434  0.9509  0.3171
 3656TIP3    H132383   6.083   2.297  14.875 -0.4559  0.6035  1.7459
 3656TIP3    H232384   5.991   2.367  14.973 -3.2815 -1.4112  0.5828
 3657TIP3   OH232385   6.721   0.663   5.383  0.3317  0.2983  0.1637
 3657TIP3    H132386   6.802   0.614   5.368  0.5314  0.6405  0.1163
 3657TIP3    H232387   6.748   0.738   5.437 -0.2824 -0.6680  1.8560
 3658TIP3   OH232388   5.396   2.996  16.984  0.1282 -0.4263 -0.1614
 3658TIP3    H132389   5.446   2.959  16.912  0.2299  0.7123 -0.6921
 3658TIP3    H232390   5.447   2.972  17.062  0.5852 -0.7519 -0.5535
 3659TIP3   OH232391   3.684   3.152   0.915  0.3451 -0.3976  0.1421
 3659TIP3    H132392   3.689   3.057   0.905  0.7529 -0.4524  0.7928
 3659TIP3    H232393   3.648   3.165   1.003 -0.2507  0.0506 -0.1640
 3660TIP3   OH232394   4.262   1.992   5.986 -0.4233 -0.0027  0.2117
 3660TIP3    H132395   4.338   1.935   5.972 -1.0459 -1.1037  1.2276
 3660TIP3    H232396   4.219   1.996   5.901  0.1334 -0.2985 -0.0866
 3661TIP3   OH232397   1.898   3.277  15.709  0.0659  0.5273 -0.5360
 3661TIP3    H132398   1.873   3.365  15.736 -0.4852  0.1869  0.0700
 3661TIP3    H232399   1.902   3.282  15.614 -2.6343  0.5114 -0.6775
 3662TIP3   OH232400   3.879   2.809   5.249 -0.1723  0.1980 -0.5756
 3662TIP3    H132401   3.833   2.849   5.322  3.1173 -0.2254  1.8715
 3662TIP3    H232402   3.876   2.715   5.268 -0.1529  0.0162 -1.4791
 3663TIP3   OH232403   3.220   3.847   5.517  0.9385  0.9450 -0.0785
 3663TIP3    H132404   3.128   3.873   5.530  0.0908 -2.0370  0.3515
 3663TIP3    H232405   3.257   3.846   5.605  0.8231  0.3092 -0.0305
 3664TIP3   OH232406   1.235   4.135   5.075  0.5161 -0.6988 -0.0563
 3664TIP3    H132407   1.243   4.188   5.154  0.9656 -1.7516  0.6046
 3664TIP3    H232408   1.199   4.196   5.009 -1.5255 -0.2690  1.4021
 3665TIP3   OH232409   2.285   5.498  15.030 -0.2069  0.3583 -0.0065
 3665TIP3    H132410   2.362   5.450  14.998 -2.1103 -0.3650 -3.8147
 3665TIP3    H232411   2.279   5.474  15.122  1.3226 -3.5360 -0.8083
 3666TIP3   OH232412   2.553   3.626   3.318  0.0130 -0.5450  0.1796
 3666TIP3    H132413   2.599   3.548   3.346 -2.4109 -2.2540 -0.3754
 3666TIP3    H232414   2.520   3.604   3.230 -0.4815  1.1866 -0.0978
 3667TIP3   OH232415   6.034   3.660   5.731  0.2292 -0.3876  0.1733
 3667TIP3    H132416   5.946   3.699   5.725  0.1420 -0.4573  0.9306
 3667TIP3    H232417   6.093   3.734   5.744  0.1689 -0.4177  0.6476
 3668TIP3   OH232418   4.137   3.523   2.813 -0.0877  0.1153  0.3869
 3668TIP3    H132419   4.202   3.564   2.756 -0.5885 -0.6517 -0.7511
 3668TIP3    H232420   4.159   3.430   2.812  1.0297  0.3078  2.9443
 3669TIP3   OH232421   2.205   0.121  16.916 -0.0447 -0.5075  0.0372
 3669TIP3    H132422   2.292   0.160  16.924 -0.3451  0.0898  0.4477
 3669TIP3    H232423   2.222   0.031  16.888  0.6431  0.0171 -1.2445
 3670TIP3   OH232424   5.055   5.125  10.551 -0.0281 -0.3241 -0.1916
 3670TIP3    H132425   5.073   5.160  10.464  1.7679 -2.1944 -0.6012
 3670TIP3    H232426   4.959   5.128  10.557 -0.1309  0.7988 -1.8023
 3671TIP3   OH232427   1.141   5.109  16.804  0.3577 -1.0151 -0.0930
 3671TIP3    H132428   1.230   5.120  16.838  1.6317  0.8938 -3.7479
 3671TIP3    H232429   1.140   5.021  16.767  1.2021 -0.5516 -1.2510
 3672TIP3   OH232430   0.985   1.299  12.821  0.5639 -0.8276  0.4867
 3672TIP3    H132431   0.902   1.346  12.814  1.3611  0.8310  1.8505
 3672TIP3    H232432   1.008   1.275  12.731 -0.8403 -0.3491  0.0001
 3673TIP3   OH232433   6.596   6.198  15.467  0.2740 -0.1836  0.8436
 3673TIP3    H132434   6.619   6.156  15.549  0.7141 -0.2582  0.6842
 3673TIP3    H232435   6.535   6.268  15.491  2.4844  1.5307  1.5245
 3674TIP3   OH232436   1.731   2.662   1.697  0.0797  0.0193  0.4042
 3674TIP3    H132437   1.756   2.753   1.678  0.4698 -0.4388 -1.3983
 3674TIP3    H232438   1.694   2.630   1.614  2.3695 -2.2667  0.1874
 3675TIP3   OH232439   1.672   2.212  12.640 -0.1618  0.6070 -0.2113
 3675TIP3    H132440   1.673   2.213  12.544 -2.7594 -1.3530 -0.2859
 3675TIP3    H232441   1.605   2.275  12.664 -2.0957 -1.5502  0.1940
 3676TIP3   OH232442   3.782   3.438  11.764  0.0281  0.4544 -0.2677
 3676TIP3    H132443   3.765   3.377  11.835  0.4117 -0.3295 -0.8362
 3676TIP3    H232444   3.695   3.458  11.728 -0.0867  0.1449 -0.1632
 3677TIP3   OH232445   5.050   6.272   4.274 -0.5314  0.5352  0.1850
 3677TIP3    H132446   5.021   6.299   4.187  2.4872  1.0150 -0.7369
 3677TIP3    H232447   5.119   6.335   4.296  1.8582 -2.2676  0.9572
 3678TIP3   OH232448   1.679   2.480   0.784  0.0078  0.5928 -0.5150
 3678TIP3    H132449   1.645   2.393   0.805  0.2484  0.4742 -0.6086
 3678TIP3    H232450   1.734   2.466   0.706  0.5501  0.7153 -0.1622
 3679TIP3   OH232451   6.774   4.158   0.816 -0.0483 -0.0727  0.4340
 3679TIP3    H132452   6.766   4.129   0.907 -0.7510 -3.2598 -0.5749
 3679TIP3    H232453   6.707   4.108   0.769  1.0063  0.7420 -2.0182
 3680TIP3   OH232454   1.701   2.005  12.124  0.7637 -0.4440  0.3222
 3680TIP3    H132455   1.631   2.008  12.059  1.2569  0.9946 -0.1749
 3680TIP3    H232456   1.673   2.067  12.192  1.2987 -0.2556  0.3740
 3681TIP3   OH232457   2.672   2.551  14.402 -0.0159  0.0474 -0.0653
 3681TIP3    H132458   2.697   2.637  14.369  0.7908  0.0449  0.5122
 3681TIP3    H232459   2.624   2.511  14.330  1.2820  0.2347 -1.0628
 3682TIP3   OH232460   1.949   0.234  16.919  0.0941 -0.4738 -0.2771
 3682TIP3    H132461   2.031   0.186  16.907  0.6866  0.1778  1.0792
 3682TIP3    H232462   1.973   0.325  16.903 -0.5599 -0.3882 -0.7489
 3683TIP3   OH232463   6.650   3.765   2.244 -0.0784  0.4073  0.1814
 3683TIP3    H132464   6.644   3.842   2.300  0.5033 -0.5502  1.6005
 3683TIP3    H232465   6.611   3.695   2.296  0.5355 -0.5248 -0.5854
 3684TIP3   OH232466   6.678   6.176   1.898  0.0630 -0.5078 -0.4191
 3684TIP3    H132467   6.718   6.099   1.940  0.9134 -0.4018 -1.0183
 3684TIP3    H232468   6.753   6.227   1.867 -0.4624  1.0244  0.7822
 3685TIP3   OH232469   3.685   6.253  13.209  0.3862 -0.4601 -0.0294
 3685TIP3    H132470   3.705   6.225  13.120 -0.4799  1.8150 -0.9796
 3685TIP3    H232471   3.713   6.344  13.212 -1.4833  0.1073  1.3701
 3686TIP3   OH232472   5.350   6.272  14.144 -0.1338  0.5518  0.4374
 3686TIP3    H132473   5.298   6.329  14.087 -1.4615 -0.9636  0.0946
 3686TIP3    H232474   5.342   6.312  14.231 -0.2892  1.4017  0.0459
 3687TIP3   OH232475   1.954   0.832   3.156 -0.2032 -0.5943  0.3676
 3687TIP3    H132476   1.949   0.748   3.201  1.8697 -0.6008  0.6628
 3687TIP3    H232477   1.871   0.876   3.176 -1.2782 -2.5342  0.2496
 3688TIP3   OH232478   3.646   5.960   2.544 -0.3883 -0.0777 -0.1331
 3688TIP3    H132479   3.623   5.939   2.634  1.9282  0.4913  0.6148
 3688TIP3    H232480   3.564   5.991   2.505 -1.5668 -0.9990  1.5547
 3689TIP3   OH232481   5.246   0.837   0.640  0.0357  0.5654  0.4254
 3689TIP3    H132482   5.328   0.841   0.690 -0.3591 -2.2844  1.3820
 3689TIP3    H232483   5.204   0.756   0.669 -2.9160  1.7472 -0.4147
 3690TIP3   OH232484   4.479   2.634  16.251  0.0077  0.4454 -0.2606
 3690TIP3    H132485   4.443   2.722  16.250 -0.8435  0.0980 -0.9907
 3690TIP3    H232486   4.509   2.621  16.341 -1.3309  0.8850  0.2610
 3691TIP3   OH232487   1.734   5.843   1.802 -0.0783  0.7620  0.1565
 3691TIP3    H132488   1.696   5.806   1.882  0.0460  0.3832  0.0413
 3691TIP3    H232489   1.817   5.881   1.831  1.0625 -1.4088 -0.2014
 3692TIP3   OH232490   6.776   3.680  15.039  0.2308  0.0156  0.4481
 3692TIP3    H132491   6.792   3.676  14.945  0.7680  0.6841  0.5080
 3692TIP3    H232492   6.681   3.682  15.048  0.1913  1.4519 -0.1509
 3693TIP3   OH232493   1.567   5.257   3.001 -0.3903  0.0702  0.0008
 3693TIP3    H132494   1.544   5.172   2.964 -0.7060  0.0807  0.1785
 3693TIP3    H232495   1.484   5.294   3.031  0.1105 -0.7922  2.5659
 3694TIP3   OH232496   2.053   1.310   5.569 -0.0811  0.0502  0.1604
 3694TIP3    H132497   2.141   1.342   5.592  0.2393  1.8644 -3.1318
 3694TIP3    H232498   2.001   1.390   5.559 -0.7426 -0.6795 -2.7830
 3695TIP3   OH232499   4.863   2.336   3.651  0.3488  0.6696  0.1556
 3695TIP3    H132500   4.784   2.284   3.664 -0.0473  0.9861 -0.9730
 3695TIP3    H232501   4.919   2.313   3.726 -0.7424  0.3460  0.8843
 3696TIP3   OH232502   6.124   4.662  16.540  0.1031  0.6463  0.2051
 3696TIP3    H132503   6.107   4.585  16.595  1.3795 -0.4354 -0.9255
 3696TIP3    H232504   6.210   4.693  16.568  0.7652  0.0798 -1.2116
 3697TIP3   OH232505   4.609   6.590  15.865 -0.1581  0.4279 -0.6511
 3697TIP3    H132506   4.588   6.498  15.879 -1.3703  0.9374  0.9957
 3697TIP3    H232507   4.648   6.619  15.947 -1.3592  1.8094 -0.5440
 3698TIP3   OH232508   3.545   3.016  13.604 -0.3473 -0.2939  0.1379
 3698TIP3    H132509   3.574   3.107  13.606 -1.6129  0.1639 -1.0996
 3698TIP3    H232510   3.502   3.002  13.688 -2.3171  1.0273 -0.6156
 3699TIP3   OH232511   5.757   6.482  12.659  0.4929  0.5578  0.0663
 3699TIP3    H132512   5.844   6.443  12.671  0.3711  0.6252  1.2519
 3699TIP3    H232513   5.714   6.472  12.744 -1.2456 -0.8861 -0.9514
 3700TIP3   OH232514   1.748   2.689   3.205  0.0940 -0.2943  0.4823
 3700TIP3    H132515   1.688   2.755   3.240  1.1208  0.6977  0.3663
 3700TIP3    H232516   1.801   2.736   3.141  0.5661 -1.3236  0.1141
 3701TIP3   OH232517   0.027   1.585  15.771  0.2432  0.1386  0.0538
 3701TIP3    H132518   0.005   1.503  15.815  1.0220  0.9021  1.9169
 3701TIP3    H232519   0.016   1.566  15.678 -0.6677 -1.7489  0.5233
 3702TIP3   OH232520   3.717   1.694  12.457 -0.1630 -0.0327 -0.0232
 3702TIP3    H132521   3.747   1.755  12.524 -0.3776  0.4016 -0.3147
 3702TIP3    H232522   3.622   1.689  12.468 -0.3979  1.2444 -1.2659
 3703TIP3   OH232523   2.364   6.139   6.503 -0.2577 -0.1192 -0.6122
 3703TIP3    H132524   2.352   6.206   6.571 -1.1275 -0.3981 -0.4838
 3703TIP3    H232525   2.331   6.180   6.423  0.6744  0.1731 -0.8601
 3704TIP3   OH232526   2.230   1.566   2.566 -0.1615 -0.4166  0.6082
 3704TIP3    H132527   2.178   1.583   2.645  1.1887  2.3982  0.9690
 3704TIP3    H232528   2.309   1.523   2.598  0.7898  1.5307  0.9459
 3705TIP3   OH232529   4.139   6.173  15.331  0.0182  0.3629 -0.1986
 3705TIP3    H132530   4.179   6.216  15.255 -2.3492  0.3045 -1.5351
 3705TIP3    H232531   4.065   6.229  15.354  0.0071 -0.2655  1.3384
 3706TIP3   OH232532   5.579   0.784   2.773 -0.0447  0.4915  0.4169
 3706TIP3    H132533   5.545   0.712   2.825  0.7941 -1.0216 -1.0892
 3706TIP3    H232534   5.673   0.786   2.792  0.0371  0.7985 -0.0043
 3707TIP3   OH232535   1.361   3.535  11.586 -0.3406  0.2144  0.4647
 3707TIP3    H132536   1.380   3.452  11.630 -0.5557 -0.0658  0.0282
 3707TIP3    H232537   1.393   3.523  11.496 -1.5242  0.1580  0.0480
 3708TIP3   OH232538   6.172   4.379  16.546  0.3840 -0.0769  0.7213
 3708TIP3    H132539   6.199   4.319  16.615  0.2703 -0.1558  0.6977
 3708TIP3    H232540   6.243   4.374  16.481 -0.7478 -1.9720 -0.3972
 3709TIP3   OH232541   6.764   4.147  11.147 -0.7353  0.1708  0.3562
 3709TIP3    H132542   6.724   4.230  11.172 -0.2027  0.5519 -0.0587
 3709TIP3    H232543   6.717   4.121  11.067 -0.5489  0.3326  0.1931
 3710TIP3   OH232544   0.708   4.596   2.648  0.0991 -0.1807 -0.0926
 3710TIP3    H132545   0.704   4.548   2.731  2.8130  0.0780  0.2195
 3710TIP3    H232546   0.677   4.684   2.670 -2.0222 -0.9282 -0.0172
 3711TIP3   OH232547   4.060   2.951  14.994  0.3434  0.2927 -0.4176
 3711TIP3    H132548   4.046   2.885  14.926 -0.8952  0.5115 -0.3855
 3711TIP3    H232549   4.137   3.000  14.966  0.2953 -0.1236 -1.2641
 3712TIP3   OH232550   3.096   2.812  14.712  0.4577  0.4812  0.0960
 3712TIP3    H132551   3.140   2.740  14.757  2.2173  0.2260 -1.9568
 3712TIP3    H232552   3.009   2.817  14.753  1.2808 -1.0124  2.1104
 3713TIP3   OH232553   3.734   6.428   0.582  0.0186  0.9776  0.2411
 3713TIP3    H132554   3.819   6.458   0.551  0.1658  0.3166 -0.0132
 3713TIP3    H232555   3.676   6.503   0.571  0.2713  1.0251 -0.8237
 3714TIP3   OH232556   6.703   4.028   4.822 -0.3863  0.8249  0.0424
 3714TIP3    H132557   6.784   3.978   4.812  0.3541  1.8765  0.6107
 3714TIP3    H232558   6.648   3.975   4.879 -0.2924 -0.1166 -0.7377
 3715TIP3   OH232559   5.237   4.536  15.852  0.2971  0.0926  0.3169
 3715TIP3    H132560   5.218   4.500  15.939  0.0928  0.7977  0.5648
 3715TIP3    H232561   5.228   4.630  15.863  1.5887  0.2828 -0.1484
 3716TIP3   OH232562   2.308   1.287   0.054  0.2464 -0.0009  0.1337
 3716TIP3    H132563   2.360   1.232  -0.005  1.2910 -0.0974  1.1323
 3716TIP3    H232564   2.236   1.318  -0.001 -0.1974 -2.0955 -0.5352
 3717TIP3   OH232565   3.255   1.297   5.510  0.2815 -0.4101 -0.0555
 3717TIP3    H132566   3.322   1.364   5.498  0.6147 -0.5595  0.9560
 3717TIP3    H232567   3.219   1.313   5.598 -0.2219 -1.0314 -0.1385
 3718TIP3   OH232568   4.275   2.840   4.118 -0.4741  0.3498 -0.1719
 3718TIP3    H132569   4.231   2.910   4.070  0.0859  0.4491 -0.5530
 3718TIP3    H232570   4.365   2.841   4.084  0.0061  0.6186  1.0879
 3719TIP3   OH232571   5.837   2.645  12.477 -0.1985 -0.0184  0.0252
 3719TIP3    H132572   5.924   2.616  12.452 -0.6163 -1.1683 -0.1281
 3719TIP3    H232573   5.779   2.574  12.450 -1.0480  0.2162  1.1586
 3720TIP3   OH232574   5.420   2.216  13.113 -0.0312 -0.0058  0.6888
 3720TIP3    H132575   5.403   2.261  13.195  0.2224 -0.4607  0.9922
 3720TIP3    H232576   5.412   2.123  13.134 -1.6288 -0.0878 -0.1663
 3721TIP3   OH232577   0.589   4.263   4.465  0.2543 -0.0510  0.2960
 3721TIP3    H132578   0.655   4.289   4.401 -1.7774  1.0183 -1.4332
 3721TIP3    H232579   0.625   4.185   4.507  2.0774 -0.1709 -1.4277
 3722TIP3   OH232580   4.371   0.978  15.853  0.2970  0.2258  0.2663
 3722TIP3    H132581   4.370   0.883  15.848 -0.2385  0.0637  2.6410
 3722TIP3    H232582   4.336   1.007  15.769 -2.2704 -1.7550  0.5839
 3723TIP3   OH232583   2.888   0.240  14.117 -0.6355 -0.1615  0.1638
 3723TIP3    H132584   2.808   0.217  14.164 -1.6397  0.8910 -0.9970
 3723TIP3    H232585   2.898   0.334  14.131  1.1241 -0.4860  1.3614
 3724TIP3   OH232586   6.360   1.682  11.801  0.2401 -0.1893 -0.1478
 3724TIP3    H132587   6.299   1.660  11.872  1.3459  1.8183  1.4843
 3724TIP3    H232588   6.436   1.626  11.816 -0.2764 -1.1095 -0.8868
 3725TIP3   OH232589   4.346   4.599  11.347  0.7714 -0.0639 -0.0494
 3725TIP3    H132590   4.287   4.611  11.421  0.1090  0.5841 -0.6793
 3725TIP3    H232591   4.299   4.541  11.287  0.9093  0.1766 -0.3966
 3726TIP3   OH232592   0.904   1.676   1.555 -0.3330 -0.4918  0.3989
 3726TIP3    H132593   0.809   1.667   1.561 -0.6850 -1.0179 -4.0928
 3726TIP3    H232594   0.920   1.770   1.554 -0.6609 -0.3970  2.2365
 3727TIP3   OH232595   1.895   4.664  12.754 -0.3798 -0.1353  0.3823
 3727TIP3    H132596   1.804   4.684  12.729  0.4910  2.0983 -1.1926
 3727TIP3    H232597   1.914   4.581  12.711 -0.7194  0.9194 -1.8987
 3728TIP3   OH232598   6.537   5.613  15.059  0.5349  0.1593 -0.1781
 3728TIP3    H132599   6.541   5.520  15.083  1.7738 -0.6855 -3.4993
 3728TIP3    H232600   6.628   5.640  15.052  0.1885  1.0303 -1.4382
 3729TIP3   OH232601   0.647   1.811  16.773  0.6101 -0.4312 -0.3891
 3729TIP3    H132602   0.719   1.863  16.809  0.7901 -0.1920 -1.0782
 3729TIP3    H232603   0.598   1.873  16.719 -1.1529 -0.1438  1.4730
 3730TIP3   OH232604   4.790   2.617  10.963  0.0561  0.5643  0.1249
 3730TIP3    H132605   4.843   2.680  11.012 -1.5505 -0.4849  3.3027
 3730TIP3    H232606   4.705   2.660  10.953 -0.9213 -0.8893  1.9604
 3731TIP3   OH232607   4.464   0.715  14.251  0.0028  0.1666  0.3324
 3731TIP3    H132608   4.554   0.685  14.240 -0.0878  0.1667 -0.5089
 3731TIP3    H232609   4.420   0.685  14.171 -0.5798  0.7671  0.4285
 3732TIP3   OH232610   2.932   5.165  14.109 -0.2024 -0.1706  0.5959
 3732TIP3    H132611   3.022   5.136  14.118  0.2287  1.1036  0.4724
 3732TIP3    H232612   2.883   5.113  14.172  0.9029  0.3734  1.9112
 3733TIP3   OH232613   4.257   4.585   1.391  0.0495  0.3538  0.1661
 3733TIP3    H132614   4.176   4.557   1.434  1.1934 -0.0442  2.1433
 3733TIP3    H232615   4.313   4.508   1.392  0.3477  0.5371 -1.4802
 3734TIP3   OH232616   6.409   2.779  15.681  0.8927 -0.1052 -0.8297
 3734TIP3    H132617   6.479   2.808  15.739  0.8771 -0.5782 -0.5688
 3734TIP3    H232618   6.361   2.859  15.659 -1.3219 -0.3124  2.7163
 3735TIP3   OH232619   5.263   5.287  13.713 -0.2454  0.2659 -0.9121
 3735TIP3    H132620   5.310   5.258  13.791 -3.0139  0.1893  0.8004
 3735TIP3    H232621   5.330   5.329  13.658  1.9768 -0.8232  0.9041
 3736TIP3   OH232622   3.043   3.756  11.085 -0.0566  0.1669 -0.5259
 3736TIP3    H132623   3.052   3.729  10.993  1.0906  0.5200 -0.5243
 3736TIP3    H232624   2.953   3.733  11.108  0.4184 -2.2291 -0.9790
 3737TIP3   OH232625   2.951   4.862  15.230 -0.1957 -0.3585 -0.0719
 3737TIP3    H132626   2.945   4.829  15.320  0.0234 -0.4450 -0.0889
 3737TIP3    H232627   2.978   4.786  15.179  1.3064  0.0682  0.0421
 3738TIP3   OH232628   2.641   5.230   5.624  0.0096 -0.2018 -0.3676
 3738TIP3    H132629   2.707   5.280   5.576  0.0793 -1.4045 -1.5356
 3738TIP3    H232630   2.659   5.248   5.716 -0.0039  1.9858 -0.7631
 3739TIP3   OH232631   4.137   6.076   3.907 -0.0824  0.0739 -0.5195
 3739TIP3    H132632   4.217   6.126   3.890  0.1159 -0.4134 -1.0261
 3739TIP3    H232633   4.168   5.989   3.932 -0.4577 -0.1208 -0.7287
 3740TIP3   OH232634   1.239   4.566  15.150 -0.1346 -0.3799 -0.1126
 3740TIP3    H132635   1.151   4.531  15.164 -0.4305  0.1285 -0.6816
 3740TIP3    H232636   1.226   4.639  15.089  0.7809 -0.8387 -0.8665
 3741TIP3   OH232637   1.557   3.658   4.697  0.1636 -0.4197  0.1966
 3741TIP3    H132638   1.555   3.715   4.621 -1.1510 -1.2430 -0.4047
 3741TIP3    H232639   1.561   3.718   4.772 -0.4637  0.4334 -0.4453
 3742TIP3   OH232640   2.050   1.461  14.988  0.1201  0.1165  0.1359
 3742TIP3    H132641   2.117   1.502  14.934 -0.4705  2.0011  0.7895
 3742TIP3    H232642   1.970   1.463  14.934 -0.1619  0.8107  0.5753
 3743TIP3   OH232643   5.060   6.221  14.023  0.1370 -0.4659  0.3057
 3743TIP3    H132644   5.102   6.305  14.002  0.1061 -0.3486  0.7002
 3743TIP3    H232645   5.004   6.241  14.098 -0.4469 -0.6736 -0.0671
 3744TIP3   OH232646   3.664   0.326  16.031  0.0343  0.0084  0.3904
 3744TIP3    H132647   3.650   0.232  16.040  0.1952  0.0169  0.7223
 3744TIP3    H232648   3.604   0.353  15.960  1.0043 -0.5858 -0.6740
 3745TIP3   OH232649   2.116   3.649   4.002  0.2827  0.1708  0.7269
 3745TIP3    H132650   2.185   3.647   3.935  1.6082  1.2179  2.0481
 3745TIP3    H232651   2.039   3.614   3.957  1.8525 -1.7865 -0.5476
 3746TIP3   OH232652   5.540   3.403  16.455 -0.6299  0.1366 -0.4871
 3746TIP3    H132653   5.579   3.382  16.370  0.2803 -1.8088  0.3767
 3746TIP3    H232654   5.610   3.447  16.503 -1.2876  1.6427 -0.9019
 3747TIP3   OH232655   2.817   3.822   0.116  0.2163  0.5399 -0.0986
 3747TIP3    H132656   2.825   3.753   0.050  1.9497 -0.5529  1.1971
 3747TIP3    H232657   2.837   3.902   0.068 -2.2769  0.2541 -1.7315
 3748TIP3   OH232658   6.159   6.337   4.249  0.0390  0.0729 -0.3654
 3748TIP3    H132659   6.114   6.321   4.333 -0.2527 -2.4882 -0.9599
 3748TIP3    H232660   6.093   6.317   4.183  0.8463  0.2119 -1.2199
 3749TIP3   OH232661   1.696   5.355  12.106 -0.0325 -0.0459  0.4636
 3749TIP3    H132662   1.716   5.407  12.184 -0.6344  0.9238 -0.0061
 3749TIP3    H232663   1.750   5.277  12.114 -0.9418 -0.5120  2.4456
 3750TIP3   OH232664   1.108   3.311  13.455  0.5387  0.3969 -0.9728
 3750TIP3    H132665   1.133   3.401  13.437 -0.8297  0.8240 -0.8105
 3750TIP3    H232666   1.056   3.316  13.536 -1.6738 -0.1849 -2.3208
 3751TIP3   OH232667   5.692   3.219  12.090 -0.1122  0.8855 -0.0865
 3751TIP3    H132668   5.725   3.269  12.166 -0.1982 -2.7165  2.4701
 3751TIP3    H232669   5.606   3.256  12.072 -0.3188  1.4694  1.9525
 3752TIP3   OH232670   0.054   2.166  11.392  0.0767 -0.3627 -0.4848
 3752TIP3    H132671   0.011   2.084  11.368  0.1756 -0.4379 -0.4058
 3752TIP3    H232672  -0.018   2.227  11.411  0.0176 -0.7875  0.6658
 3753TIP3   OH232673   2.716   4.583  16.737 -0.1462 -0.1700  0.1669
 3753TIP3    H132674   2.806   4.605  16.712 -0.2646  0.4042  0.2355
 3753TIP3    H232675   2.663   4.610  16.662 -0.3098 -0.0746  0.3159
 3754TIP3   OH232676   0.091   2.776  11.664 -0.2004  0.2346  0.4625
 3754TIP3    H132677   0.116   2.839  11.731  1.4489 -0.6102  0.6781
 3754TIP3    H232678   0.011   2.735  11.697 -0.4978  1.2265  0.9631
 3755TIP3   OH232679   4.884   4.714  15.613  0.0455 -0.5983  0.2133
 3755TIP3    H132680   4.966   4.673  15.587 -0.7802 -2.0850 -0.0792
 3755TIP3    H232681   4.834   4.723  15.532 -0.2443 -0.0713  0.4487
 3756TIP3   OH232682   0.799   2.738   4.792 -0.0493 -0.0319 -0.0774
 3756TIP3    H132683   0.795   2.648   4.759 -2.4321 -0.2174  0.6300
 3756TIP3    H232684   0.816   2.728   4.886 -0.1258  0.2584 -0.0342
 3757TIP3   OH232685   2.404   1.681  14.671 -0.1650  0.0786 -0.8015
 3757TIP3    H132686   2.358   1.756  14.633 -1.5684 -0.8768 -1.0321
 3757TIP3    H232687   2.390   1.610  14.608  0.5674 -0.5659 -0.2474
 3758TIP3   OH232688   6.106   4.331   0.747  0.4442  0.5170  0.0414
 3758TIP3    H132689   6.032   4.287   0.705 -0.2869  0.9886  0.8372
 3758TIP3    H232690   6.182   4.300   0.698 -0.1667 -0.7725 -0.1230
 3759TIP3   OH232691   4.304   1.493   3.081  0.1307 -0.3702  0.3920
 3759TIP3    H132692   4.379   1.538   3.042 -0.9434  0.4484 -0.7496
 3759TIP3    H232693   4.309   1.404   3.046  1.0206 -0.5559  0.9601
 3760TIP3   OH232694   5.597   5.216  14.675 -0.5603 -0.1329  0.4420
 3760TIP3    H132695   5.654   5.213  14.752 -0.7030 -0.9116  0.5249
 3760TIP3    H232696   5.647   5.265  14.610 -0.2060  0.0405  0.8422
 3761TIP3   OH232697   6.138   4.860  16.995 -0.1703  0.3966 -0.4547
 3761TIP3    H132698   6.088   4.783  16.967  0.7628 -1.2512  2.2603
 3761TIP3    H232699   6.215   4.824  17.039 -0.3469  2.8763  1.9868
 3762TIP3   OH232700   4.387   5.048   4.049  0.1860 -0.1774  0.2210
 3762TIP3    H132701   4.383   5.054   4.144  2.9169 -1.5186  0.4753
 3762TIP3    H232702   4.476   5.020   4.030 -0.6101 -0.9786 -2.6906
 3763TIP3   OH232703   0.696   5.828  12.308 -0.3574  0.3615  0.4563
 3763TIP3    H132704   0.720   5.825  12.215 -2.4948  0.6394 -0.1284
 3763TIP3    H232705   0.761   5.886  12.347  2.3887 -2.0856 -0.2594
 3764TIP3   OH232706   4.359   1.014   1.267 -0.1178  0.2941 -0.0821
 3764TIP3    H132707   4.386   1.054   1.185  0.9959  0.1261  0.2029
 3764TIP3    H232708   4.374   0.920   1.254  1.0843  0.3769  0.7062
 3765TIP3   OH232709   2.448   4.814  12.575 -0.2960  0.1378  0.7682
 3765TIP3    H132710   2.392   4.736  12.567 -0.2026  0.1158  0.3504
 3765TIP3    H232711   2.396   4.885  12.540 -0.2796  0.2195  0.9076
 3766TIP3   OH232712   4.853   4.971  16.991 -0.6456 -0.1068 -0.1489
 3766TIP3    H132713   4.909   5.048  17.004  0.4185 -1.0877  1.1872
 3766TIP3    H232714   4.888   4.928  16.913 -0.2732 -0.0794  0.0025
 3767TIP3   OH232715   6.482   0.978  11.491 -0.1458 -0.0365 -0.6458
 3767TIP3    H132716   6.442   0.980  11.404  0.3422 -0.6287 -0.8882
 3767TIP3    H232717   6.547   0.908  11.486  2.3015  2.1843 -0.8449
 3768TIP3   OH232718   0.179   6.502   2.760 -0.4931  0.2431 -0.0558
 3768TIP3    H132719   0.141   6.589   2.775  1.5567  1.2348 -0.4078
 3768TIP3    H232720   0.264   6.520   2.721  0.7533 -1.8778  1.5885
 3769TIP3   OH232721   4.597   1.231  16.106 -0.1801  0.1341 -0.2528
 3769TIP3    H132722   4.673   1.239  16.163 -0.0346  1.0391 -0.5702
 3769TIP3    H232723   4.526   1.204  16.164 -0.1155  1.3976  0.4195
 3770TIP3   OH232724   4.211   3.340  13.019 -0.1254  0.2781  0.0251
 3770TIP3    H132725   4.138   3.392  12.986  0.2810  0.6861 -0.2315
 3770TIP3    H232726   4.180   3.305  13.103 -1.1876 -0.8286 -0.8197
 3771TIP3   OH232727   1.154   3.059   5.715  0.2553 -0.7488 -0.2980
 3771TIP3    H132728   1.162   3.149   5.683 -0.9171 -1.3590 -2.3555
 3771TIP3    H232729   1.171   3.004   5.638  0.6241 -2.3063  0.8572
 3772TIP3   OH232730   4.290   6.306  11.801 -0.6305  0.5110  0.5716
 3772TIP3    H132731   4.306   6.381  11.858 -1.2914  0.3843  0.9390
 3772TIP3    H232732   4.291   6.342  11.713  1.6982  0.4881  0.5570
 3773TIP3   OH232733   2.848   3.472  15.109  0.1930 -0.0452 -0.5095
 3773TIP3    H132734   2.891   3.449  15.191  0.9924 -2.3963 -1.5275
 3773TIP3    H232735   2.903   3.540  15.071 -1.3973  2.7197  1.8752
 3774TIP3   OH232736   5.527   5.540   3.342  0.4985  0.6894  0.1941
 3774TIP3    H132737   5.617   5.524   3.312  1.0478  0.9098  1.7142
 3774TIP3    H232738   5.476   5.471   3.300  1.1692  1.2433 -1.6157
 3775TIP3   OH232739   3.117   6.725  17.083  0.1736  0.3621  0.2087
 3775TIP3    H132740   3.066   6.643  17.076  1.1552 -0.3626  1.4830
 3775TIP3    H232741   3.082   6.768  17.161  1.0713  0.1580  0.7308
 3776TIP3   OH232742   1.844   0.898  17.114 -0.5586 -0.1312  0.1416
 3776TIP3    H132743   1.896   0.833  17.161 -0.8863 -0.6643 -0.2256
 3776TIP3    H232744   1.899   0.976  17.111 -0.3074 -0.2798  0.9016
 3777TIP3   OH232745   6.617   0.033   3.541 -0.8558  0.2974 -0.5085
 3777TIP3    H132746   6.604   0.057   3.633  0.6183  2.5386 -0.8476
 3777TIP3    H232747   6.704  -0.007   3.539 -1.3987 -0.8723 -0.7257
 3778TIP3   OH232748   4.462   5.770   1.474  0.0438 -0.1879  0.1831
 3778TIP3    H132749   4.369   5.783   1.456 -0.0023  0.3568  0.8057
 3778TIP3    H232750   4.486   5.692   1.423 -0.2409  0.9035 -1.6666
 3779TIP3   OH232751   1.640   5.777  12.421  0.1108  0.5917 -0.5312
 3779TIP3    H132752   1.718   5.828  12.443 -0.6376  0.7937  1.8598
 3779TIP3    H232753   1.591   5.833  12.361  1.2516  0.9564 -1.1300
 3780TIP3   OH232754   4.375   2.625  17.111 -0.5414 -0.2902  0.1736
 3780TIP3    H132755   4.357   2.652  17.021  0.0048  0.1766  0.2057
 3780TIP3    H232756   4.469   2.605  17.111 -0.3039  0.7894  0.9103
 3781TIP3   OH232757   6.769   4.730   1.922 -0.4494 -0.4368  0.3975
 3781TIP3    H132758   6.836   4.798   1.930 -0.6304 -0.0940 -0.9495
 3781TIP3    H232759   6.686   4.778   1.927 -0.5784 -0.5921 -0.2536
 3782TIP3   OH232760   3.219   1.604  11.898  0.4087  0.1407  0.7225
 3782TIP3    H132761   3.218   1.510  11.912  1.6730 -0.0729 -0.5385
 3782TIP3    H232762   3.297   1.635  11.943  0.3845  0.4828  0.5373
 3783TIP3   OH232763   0.657   6.642  11.928  0.5286 -0.1278 -0.1080
 3783TIP3    H132764   0.707   6.694  11.990 -1.1849 -0.3743  1.5173
 3783TIP3    H232765   0.613   6.706  11.873  0.5884  0.1182  0.1289
 3784TIP3   OH232766   4.134   6.120   3.385 -0.7350 -0.0195 -0.5026
 3784TIP3    H132767   4.134   6.167   3.468  0.0071 -0.8174 -0.0385
 3784TIP3    H232768   4.141   6.188   3.318  0.3189  0.5288  0.1581
 3785TIP3   OH232769   1.782   6.028  12.139 -0.1862 -0.1513 -0.7071
 3785TIP3    H132770   1.690   6.023  12.113 -0.1339  0.7618 -1.0763
 3785TIP3    H232771   1.793   6.118  12.172  0.2169 -0.6961  0.6801
 3786TIP3   OH232772   5.843   1.681  13.844 -0.1818  0.5661  0.8877
 3786TIP3    H132773   5.926   1.728  13.833  0.3444 -0.8608 -1.6546
 3786TIP3    H232774   5.785   1.719  13.777 -0.3203 -1.1165  0.0329
 3787TIP3   OH232775   2.852   2.427  14.848 -0.1380  0.2409  0.3474
 3787TIP3    H132776   2.817   2.503  14.800  1.4464 -0.3374 -1.8200
 3787TIP3    H232777   2.818   2.351  14.801  0.7377 -0.3568  0.6667
 3788TIP3   OH232778   0.104   4.151  13.917  0.4943 -0.0394  0.3264
 3788TIP3    H132779   0.145   4.065  13.931  1.3098  0.4413  1.0007
 3788TIP3    H232780   0.143   4.183  13.836  0.1821 -0.3143  0.0694
 3789TIP3   OH232781   5.005   3.166  12.600  0.2688 -0.1292 -0.4260
 3789TIP3    H132782   5.023   3.078  12.633  0.1810  0.8979  2.5307
 3789TIP3    H232783   5.091   3.207  12.592  0.2851 -0.3381 -1.4841
 3790TIP3   OH232784   5.856   5.008   5.158 -1.0375 -0.2087  0.4943
 3790TIP3    H132785   5.939   5.056   5.150 -1.5222  0.6731  0.7202
 3790TIP3    H232786   5.876   4.936   5.218  0.1462 -1.3087 -1.1540
 3791TIP3   OH232787   2.533   2.475   3.643 -0.0227 -0.0984  0.4160
 3791TIP3    H132788   2.599   2.406   3.653 -0.2273 -0.3479  0.0813
 3791TIP3    H232789   2.584   2.556   3.635  0.2455 -0.2956  0.1036
 3792TIP3   OH232790   2.436   4.148  11.972 -0.6438 -0.6140  1.1828
 3792TIP3    H132791   2.524   4.112  11.964  0.2294  1.2076  2.3748
 3792TIP3    H232792   2.413   4.136  12.064 -0.6746  1.0767  1.4026
 3793TIP3   OH232793   1.113   4.071  16.684  0.6502  0.2355  0.3985
 3793TIP3    H132794   1.161   4.018  16.748 -1.9282  0.6994  2.7857
 3793TIP3    H232795   1.067   4.007  16.630  0.2875 -0.0679  1.0623
 3794TIP3   OH232796   2.188   1.066   1.365 -0.0737 -0.0321 -0.3037
 3794TIP3    H132797   2.119   1.074   1.300 -0.4189 -0.2068  0.0374
 3794TIP3    H232798   2.170   0.982   1.408 -0.6621  0.7245  0.9452
 3795TIP3   OH232799   4.661   2.871   4.803  0.2604  0.3505  0.3146
 3795TIP3    H132800   4.692   2.952   4.762  0.3507  0.2843  0.2535
 3795TIP3    H232801   4.647   2.895   4.895 -3.2567  1.4583 -0.4197
 3796TIP3   OH232802   4.981   2.144  12.195 -0.6080  0.0253  0.0259
 3796TIP3    H132803   5.002   2.133  12.103  3.3861  1.9749  0.5803
 3796TIP3    H232804   5.022   2.069  12.238 -0.7201  0.2034  0.4451
 3797TIP3   OH232805   1.134   0.095   5.859 -0.3905  0.4594  0.4038
 3797TIP3    H132806   1.223   0.061   5.866 -0.9653 -1.6693 -1.7862
 3797TIP3    H232807   1.094   0.074   5.943  0.6015 -0.3859  0.6748
 3798TIP3   OH232808   6.603   1.114   2.159  0.1306  0.4056 -0.1159
 3798TIP3    H132809   6.510   1.098   2.170  0.1164  0.4834 -0.1223
 3798TIP3    H232810   6.629   1.162   2.238  0.2897 -0.1443  0.1739
 3799TIP3   OH232811   2.469   6.756  12.723  0.0392  0.2785 -0.6034
 3799TIP3    H132812   2.482   6.715  12.637  0.3962 -1.0276  0.0508
 3799TIP3    H232813   2.540   6.818  12.732 -1.2656  2.0448 -2.1825
 3800TIP3   OH232814   6.761   5.569   3.057  0.3224  0.4438 -0.2189
 3800TIP3    H132815   6.840   5.531   3.096  0.3739 -3.0152 -3.5260
 3800TIP3    H232816   6.794   5.628   2.989  0.0575  0.6263 -0.1901
 3801TIP3   OH232817   6.213   5.398   1.322  0.3063  0.2813  0.0938
 3801TIP3    H132818   6.154   5.378   1.248 -1.8329  1.1292  1.5216
 3801TIP3    H232819   6.292   5.433   1.281 -0.0727 -1.1085 -1.8930
 3802TIP3   OH232820   6.189   6.590  17.002  0.2113 -0.4000 -0.1854
 3802TIP3    H132821   6.199   6.655  16.932  2.4619  1.2286  1.5671
 3802TIP3    H232822   6.229   6.510  16.967  1.4565  0.4454 -0.7310
 3803TIP3   OH232823   3.641   2.185  12.191 -0.6974 -0.2753  0.0256
 3803TIP3    H132824   3.656   2.178  12.097  0.8877  0.8053  0.1845
 3803TIP3    H232825   3.717   2.233  12.224 -1.3659 -0.4214  1.8200
 3804TIP3   OH232826   4.049   5.765  15.465 -0.6521 -0.3270 -0.2604
 3804TIP3    H132827   3.963   5.807  15.457 -0.9672 -0.9155 -0.0091
 3804TIP3    H232828   4.041   5.708  15.542  0.4724  0.8391  0.7405
 3805TIP3   OH232829   4.723   3.478   1.645  0.2411 -0.5315 -0.4723
 3805TIP3    H132830   4.641   3.522   1.625  0.0051 -0.6587  0.2185
 3805TIP3    H232831   4.729   3.481   1.741  1.5034  0.3407 -0.5602
 3806TIP3   OH232832   5.857   4.552   3.145  0.3820 -0.1835 -0.3955
 3806TIP3    H132833   5.845   4.607   3.068  3.0504  0.8817 -0.1084
 3806TIP3    H232834   5.874   4.614   3.216 -0.8418 -1.2099  0.8218
 3807TIP3   OH232835   0.287   4.913   1.842  0.2559 -0.0031  0.4530
 3807TIP3    H132836   0.307   4.823   1.820 -1.7819 -0.0566 -1.2881
 3807TIP3    H232837   0.236   4.908   1.923  1.9366 -0.2361  1.5300
 3808TIP3   OH232838   3.950   0.353  11.344 -0.5964 -0.0048 -0.8786
 3808TIP3    H132839   3.965   0.264  11.313  0.4473 -0.3493  0.5560
 3808TIP3    H232840   3.919   0.342  11.434 -2.9179  0.9907 -1.5412
 3809TIP3   OH232841   2.645   6.525   1.932  0.4860  0.2599 -0.1435
 3809TIP3    H132842   2.566   6.498   1.980  0.7089 -0.1745 -0.0247
 3809TIP3    H232843   2.710   6.542   2.000  0.7242 -0.1103 -0.2763
 3810TIP3   OH232844   0.214   6.519  11.830  0.2243  0.5576 -0.1786
 3810TIP3    H132845   0.203   6.558  11.743 -0.6438  0.4020 -0.1444
 3810TIP3    H232846   0.252   6.589  11.883  1.6584  0.3632 -0.9152
 3811TIP3   OH232847   5.482   0.721  14.443  0.7761 -0.4285 -0.0716
 3811TIP3    H132848   5.518   0.754  14.526 -1.7756  0.6110  0.6601
 3811TIP3    H232849   5.388   0.711  14.459  0.9229 -5.0133 -1.3060
 3812TIP3   OH232850   6.308   4.110  11.675  0.2523 -0.4285  0.5138
 3812TIP3    H132851   6.330   4.018  11.682 -0.3990 -0.6794 -0.6654
 3812TIP3    H232852   6.328   4.134  11.584 -1.4981  0.0552  0.2233
 3813TIP3   OH232853   3.006   0.141  13.183  0.3182  0.2106 -0.0964
 3813TIP3    H132854   2.959   0.069  13.141  0.0308  0.5975 -0.4534
 3813TIP3    H232855   3.029   0.108  13.269  2.6568 -1.3251 -1.2583
 3814TIP3   OH232856   3.400   0.531  12.253 -0.2316 -0.1945 -0.5026
 3814TIP3    H132857   3.402   0.444  12.293  0.3658  0.0997  0.1183
 3814TIP3    H232858   3.333   0.578  12.302 -0.8586 -0.4308 -1.1222
 3815TIP3   OH232859   1.960   2.715  11.248  0.2505  0.1665  0.2402
 3815TIP3    H132860   1.974   2.646  11.312  1.5109 -1.1989 -1.4407
 3815TIP3    H232861   2.044   2.760  11.242 -0.4344  1.5649  0.9951
 3816TIP3   OH232862   0.284   5.589   3.026 -0.2370 -0.1599 -0.0106
 3816TIP3    H132863   0.339   5.516   2.997 -1.3706 -0.1844 -2.2517
 3816TIP3    H232864   0.341   5.642   3.082  1.7600 -0.7495 -1.4124
 3817TIP3   OH232865   0.695   1.693   4.334 -0.1958  0.3460 -0.1214
 3817TIP3    H132866   0.656   1.613   4.301  1.3168 -0.0989 -0.8984
 3817TIP3    H232867   0.651   1.763   4.286  0.6906 -0.1978 -1.7669
 3818TIP3   OH232868   3.113   5.130  14.413 -0.1309 -0.0439 -0.2812
 3818TIP3    H132869   3.018   5.125  14.405 -0.0023 -1.9168 -0.9489
 3818TIP3    H232870   3.146   5.072  14.343  1.4553 -1.0407  1.2484
 3819TIP3   OH232871   6.318   2.756   3.941 -0.7089  0.0707 -0.1230
 3819TIP3    H132872   6.385   2.823   3.953 -0.4629  0.5491 -3.8337
 3819TIP3    H232873   6.239   2.796   3.979  0.1302  1.2158  0.4686
 3820TIP3   OH232874   4.165   5.614   2.143  0.8207 -0.2394  0.2041
 3820TIP3    H132875   4.216   5.555   2.088 -1.6813 -1.1054 -1.2967
 3820TIP3    H232876   4.140   5.686   2.085  0.0077 -0.0446  0.7835
 3821TIP3   OH232877   0.383   0.807   4.798 -0.0366 -0.5614  0.6125
 3821TIP3    H132878   0.421   0.721   4.816 -0.8055 -1.0223  0.0473
 3821TIP3    H232879   0.457   0.861   4.770  0.7602 -0.5340  2.6511
 3822TIP3   OH232880   2.239   3.259  10.998 -0.4758 -0.2124  0.1297
 3822TIP3    H132881   2.299   3.216  10.937 -1.0082  0.8505 -1.1685
 3822TIP3    H232882   2.188   3.319  10.943  0.3446  2.1777  1.8721
 3823TIP3   OH232883   3.479   3.201  16.604 -0.2960 -0.3094  0.0920
 3823TIP3    H132884   3.415   3.250  16.553 -0.7493  1.3111  2.1454
 3823TIP3    H232885   3.544   3.172  16.540 -1.7322  0.2052 -1.6368
 3824TIP3   OH232886   5.122   4.265  14.744  0.1501 -0.2147  0.1993
 3824TIP3    H132887   5.175   4.343  14.729  1.3911 -1.1263 -0.3038
 3824TIP3    H232888   5.178   4.208  14.797 -0.3160 -1.1958 -0.3424
 3825TIP3   OH232889   2.354   5.012   2.171  0.7197  0.6701  0.1703
 3825TIP3    H132890   2.320   4.941   2.224  1.1771  0.9959  0.9050
 3825TIP3    H232891   2.363   5.086   2.231  1.7714  0.8808 -0.2229
 3826TIP3   OH232892   4.471   2.752  10.699  0.1217 -0.4987 -0.5642
 3826TIP3    H132893   4.501   2.769  10.789  0.2341 -0.9342 -0.5214
 3826TIP3    H232894   4.535   2.797  10.644 -1.3970  2.0070 -0.3658
 3827TIP3   OH232895   0.182   5.505   4.229 -0.2461 -0.3321  0.4747
 3827TIP3    H132896   0.104   5.508   4.173 -2.4903  0.7368  3.5275
 3827TIP3    H232897   0.163   5.437   4.293 -0.1742  2.1708  3.2795
 3828TIP3   OH232898   5.046   4.607   2.175  0.5604 -0.9170  0.8385
 3828TIP3    H132899   4.955   4.634   2.186  0.6175 -1.6215  3.4715
 3828TIP3    H232900   5.061   4.544   2.246  3.3534 -0.1502  0.9910
 3829TIP3   OH232901   1.228   5.746  12.418 -0.4735 -0.4053 -0.5718
 3829TIP3    H132902   1.146   5.697  12.414 -1.4410  1.0983  0.3025
 3829TIP3    H232903   1.288   5.699  12.360 -1.3231 -2.6803  0.3343
 3830TIP3   OH232904   6.677   0.311   5.907 -0.3728 -0.2154  0.0084
 3830TIP3    H132905   6.605   0.360   5.866 -0.7288 -1.6263 -1.1020
 3830TIP3    H232906   6.658   0.220   5.887  1.7355 -0.6148 -0.3178
 3831TIP3   OH232907   4.260   4.987  11.831 -1.1288  0.0652  0.0265
 3831TIP3    H132908   4.183   4.973  11.776 -0.8147 -0.3619 -0.3073
 3831TIP3    H232909   4.322   4.920  11.803 -0.8947 -0.0357  0.7678
 3832TIP3   OH232910   0.357   2.726   5.504 -0.2090 -0.6028 -0.0276
 3832TIP3    H132911   0.284   2.756   5.451  0.9375 -2.1194 -2.5297
 3832TIP3    H232912   0.320   2.714   5.592 -2.0498  2.2042 -0.3801
 3833TIP3   OH232913   3.635   3.251  11.247 -0.3808  0.5336 -0.0925
 3833TIP3    H132914   3.602   3.166  11.218  2.2110 -0.5488  0.0344
 3833TIP3    H232915   3.688   3.283  11.174  0.4089  1.0475  0.6897
 3834TIP3   OH232916   3.206   6.637  11.680  0.3259 -0.2147 -0.1920
 3834TIP3    H132917   3.265   6.562  11.690  0.0856 -0.6178 -1.6911
 3834TIP3    H232918   3.119   6.599  11.687  0.0852 -0.7551 -4.7722
 3835TIP3   OH232919   2.966   6.757  15.643  0.7036  0.5078 -0.1827
 3835TIP3    H132920   3.009   6.843  15.640  0.8336  0.4196 -0.9754
 3835TIP3    H232921   2.969   6.732  15.736  1.5233  0.9260 -0.0880
 3836TIP3   OH232922   5.445   3.610   3.414  0.1251  0.4162  0.2094
 3836TIP3    H132923   5.527   3.582   3.456  0.8988  1.1433 -0.7865
 3836TIP3    H232924   5.422   3.692   3.458 -0.0521  0.2235  0.4742
 3837TIP3   OH232925   6.489   2.857  11.455  0.6536  0.4306 -0.2692
 3837TIP3    H132926   6.409   2.901  11.427  1.5446  2.4634  0.2553
 3837TIP3    H232927   6.559   2.900  11.405  1.5009 -0.7769 -0.1455
 3838TIP3   OH232928   6.454   1.642  12.850 -0.5121  0.2056  0.2716
 3838TIP3    H132929   6.532   1.633  12.904 -0.1380 -0.7455 -0.4116
 3838TIP3    H232930   6.480   1.609  12.764 -1.1818  1.4249 -0.4170
 3839TIP3   OH232931   2.783   5.945  12.951  0.4845 -0.0228 -0.2426
 3839TIP3    H132932   2.741   5.887  13.014  1.0326  0.3794  0.5029
 3839TIP3    H232933   2.715   5.963  12.886 -0.2548 -0.0068  0.5315
 3840TIP3   OH232934   1.877   2.539  16.338 -0.6602  0.4480 -0.5399
 3840TIP3    H132935   1.804   2.574  16.287 -0.5731 -0.9626 -1.6617
 3840TIP3    H232936   1.852   2.449  16.357  0.3312  0.2767 -0.0381
 3841TIP3   OH232937   2.669   5.685   6.374  0.0535  0.3915 -0.2695
 3841TIP3    H132938   2.746   5.655   6.326 -0.5944  1.9074 -2.4013
 3841TIP3    H232939   2.689   5.776   6.397 -0.3409  0.2055  0.8282
 3842TIP3   OH232940   2.223   4.502  11.840 -0.0163  0.0761  0.2533
 3842TIP3    H132941   2.188   4.572  11.894 -0.8760  0.0633 -0.2666
 3842TIP3    H232942   2.168   4.503  11.761 -0.0363 -1.1641  0.2409
 3843TIP3   OH232943   2.722   3.748   2.355 -0.0032 -0.0303 -0.4798
 3843TIP3    H132944   2.766   3.752   2.270  1.7496 -0.3583  0.3990
 3843TIP3    H232945   2.788   3.779   2.417 -1.2591  0.1560  0.7777
 3844TIP3   OH232946   0.844   3.242  11.542 -0.1441 -0.0381 -0.3294
 3844TIP3    H132947   0.914   3.300  11.512  0.2842 -1.4387 -2.0861
 3844TIP3    H232948   0.880   3.154  11.535 -0.2079 -0.4982  3.8809
 3845TIP3   OH232949   0.114   0.241  14.027  0.1416  0.6247 -0.3812
 3845TIP3    H132950   0.156   0.175  13.972 -0.6697 -0.6184  0.4611
 3845TIP3    H232951   0.116   0.204  14.116 -1.3637  1.1968 -0.0854
 3846TIP3   OH232952   6.692   4.172  15.376  0.1489  0.3182  0.0791
 3846TIP3    H132953   6.668   4.203  15.289  0.5114  0.3277 -0.0207
 3846TIP3    H232954   6.634   4.098  15.393 -0.2231  0.5995  0.0124
 3847TIP3   OH232955   5.322   5.907  11.955  0.5290 -0.0098  0.1348
 3847TIP3    H132956   5.396   5.894  12.014 -0.5811  0.1639  1.5855
 3847TIP3    H232957   5.282   5.989  11.983 -0.1726 -0.0618 -0.6809
 3848TIP3   OH232958   1.113   5.619  15.478 -0.4451  0.2262  0.4088
 3848TIP3    H132959   1.086   5.711  15.478 -1.0154  0.0610  0.7288
 3848TIP3    H232960   1.031   5.570  15.474 -0.0827 -0.2634 -1.7361
 3849TIP3   OH232961   3.118   4.778   0.381  0.1680  0.4868  1.1368
 3849TIP3    H132962   3.028   4.751   0.402 -0.6403  0.3075 -2.2158
 3849TIP3    H232963   3.171   4.740   0.450 -1.8855 -2.9461  0.9664
 3850TIP3   OH232964   6.322   3.653   5.575 -0.3988  0.3187 -1.1210
 3850TIP3    H132965   6.243   3.680   5.621  1.1547 -1.5231  2.8082
 3850TIP3    H232966   6.389   3.715   5.604  1.1108 -2.1846  0.9347
 3851TIP3   OH232967   1.398   5.417  14.742  0.8157  0.3182  0.2208
 3851TIP3    H132968   1.386   5.462  14.825 -2.1848  0.1181 -0.0162
 3851TIP3    H232969   1.402   5.487  14.677  2.1398  0.4390  0.4304
 3852TIP3   OH232970   5.395   4.440  14.708 -0.3559  1.0952 -0.1216
 3852TIP3    H132971   5.437   4.375  14.766  0.0359  1.6741  0.2513
 3852TIP3    H232972   5.433   4.523  14.735  1.0813  1.1756 -2.3559
 3853TIP3   OH232973   0.689   0.954  10.888 -0.1852 -0.4219  0.3431
 3853TIP3    H132974   0.726   0.882  10.837  1.8414  0.8990 -0.1400
 3853TIP3    H232975   0.608   0.977  10.842  0.3551 -0.8711 -0.8604
 3854TIP3   OH232976   0.606   6.099  12.110  0.9237 -0.1414  0.0410
 3854TIP3    H132977   0.571   6.010  12.102  2.4683 -0.8237  0.5882
 3854TIP3    H232978   0.626   6.125  12.020 -0.8161  0.2081 -0.2611
 3855TIP3   OH232979   6.541   3.324   1.850  0.6353 -0.1308  0.6232
 3855TIP3    H132980   6.473   3.307   1.786 -0.6603  0.8911  1.6943
 3855TIP3    H232981   6.622   3.333   1.799 -0.0785 -1.0688 -0.6751
 3856TIP3   OH232982   3.579   5.962   4.641  0.5543  0.9184  0.5432
 3856TIP3    H132983   3.555   5.974   4.549  0.1479  0.4192  0.5810
 3856TIP3    H232984   3.675   5.972   4.642  0.7275 -0.5532 -0.1753
 3857TIP3   OH232985   1.461   1.997  12.669 -0.0303  0.0887  0.0512
 3857TIP3    H132986   1.375   2.039  12.668 -0.8078 -1.2717  2.8817
 3857TIP3    H232987   1.521   2.064  12.701 -0.8114 -0.1011  2.0205
 3858TIP3   OH232988   3.534   2.088   3.213 -0.7404 -0.0040  0.2798
 3858TIP3    H132989   3.555   2.133   3.131 -1.6900 -2.1446 -1.1852
 3858TIP3    H232990   3.619   2.060   3.247 -0.1730  2.4721  0.9986
 3859TIP3   OH232991   0.388   5.989  16.571  0.1767 -0.4484 -0.1577
 3859TIP3    H132992   0.405   5.943  16.489  0.4088  0.3337 -0.5517
 3859TIP3    H232993   0.303   5.955  16.600  0.8879 -1.9874  0.1646
 3860TIP3   OH232994   1.893   5.786  11.215 -0.0216  0.2869  0.3262
 3860TIP3    H132995   1.851   5.844  11.279 -0.8400 -0.0155  0.0751
 3860TIP3    H232996   1.823   5.728  11.186  0.5137 -0.0491 -0.3156
 3861TIP3   OH232997   3.869   4.113   1.178  0.0102 -0.1217 -0.0800
 3861TIP3    H132998   3.790   4.064   1.201 -0.1919  0.6508  0.9039
 3861TIP3    H232999   3.874   4.106   1.082 -1.0647 -0.4518 -0.1236
 3862TIP3   OH233000   0.948   2.532   5.876 -0.5803 -0.2505 -0.5145
 3862TIP3    H133001   0.855   2.555   5.875 -0.4751  0.1933 -0.4680
 3862TIP3    H233002   0.956   2.465   5.943 -0.5887  0.9771  0.7461
 3863TIP3   OH233003   4.886   3.734   3.770 -0.0881 -0.0117  0.1346
 3863TIP3    H133004   4.918   3.657   3.816  1.3869  1.3748  1.5087
 3863TIP3    H233005   4.890   3.710   3.678  1.0183 -1.3431  0.5046
 3864TIP3   OH233006   5.318   4.273  14.377 -0.4591 -0.1196  0.1788
 3864TIP3    H133007   5.378   4.274  14.303  0.1521  0.7767  0.6746
 3864TIP3    H233008   5.366   4.230  14.447 -0.9926 -0.8602  0.0933
 3865TIP3   OH233009   6.697   4.881   5.952  0.2709  0.0542 -0.6105
 3865TIP3    H133010   6.644   4.885   5.873 -1.3200  0.4653  0.4446
 3865TIP3    H233011   6.670   4.800   5.996  1.9287 -0.7356 -1.0138
 3866TIP3   OH233012   3.978   2.529  10.469  0.3450  0.0114  0.1143
 3866TIP3    H133013   3.884   2.546  10.474 -0.0975 -2.1229 -0.5335
 3866TIP3    H233014   3.994   2.464  10.538  1.2964  0.1387  0.0179
 3867TIP3   OH233015   2.055   3.914   5.507  0.3069  0.9482 -0.1636
 3867TIP3    H133016   2.008   3.883   5.430  0.4525 -0.9545  0.4911
 3867TIP3    H233017   2.000   3.889   5.581  2.0258 -0.7869  0.5716
 3868TIP3   OH233018   2.229   0.600   5.692 -0.3126 -0.1847  0.2329
 3868TIP3    H133019   2.193   0.649   5.617  1.9328  2.1436  0.5916
 3868TIP3    H233020   2.274   0.526   5.652 -0.9272 -0.1433 -0.5720
 3869TIP3   OH233021   6.712   1.451   4.038  0.3552  0.0094 -0.0850
 3869TIP3    H133022   6.737   1.464   3.946 -1.4923  0.2486 -0.5788
 3869TIP3    H233023   6.751   1.367   4.062  1.1673  0.1264 -0.9817
 3870TIP3   OH233024   4.946   1.362  14.412 -1.0044  0.1953 -0.3100
 3870TIP3    H133025   5.025   1.371  14.359  0.8118  0.0737  2.2792
 3870TIP3    H233026   4.943   1.442  14.464 -3.2927  0.7540 -1.2679
 3871TIP3   OH233027   4.189   3.337   1.246  0.4087  0.6037  0.0933
 3871TIP3    H133028   4.102   3.371   1.267  1.4146  0.6960  4.6609
 3871TIP3    H233029   4.247   3.412   1.259  1.4560 -0.1310 -0.3153
 3872TIP3   OH233030   5.669   0.260   5.750 -0.0197 -0.1612 -0.4753
 3872TIP3    H133031   5.575   0.278   5.759 -0.2588 -0.3426 -2.3864
 3872TIP3    H233032   5.680   0.172   5.787 -0.6424 -0.2326 -0.4457
 3873TIP3   OH233033   5.577   4.615  12.894  0.3191  0.1680  0.0126
 3873TIP3    H133034   5.542   4.701  12.870  0.5844  0.7041  1.4513
 3873TIP3    H233035   5.541   4.599  12.982 -0.8049 -1.8050 -0.7785
 3874TIP3   OH233036   3.137   6.777   6.402 -0.6947 -0.6910  0.3148
 3874TIP3    H133037   3.232   6.780   6.391 -0.2808 -3.0997  2.4629
 3874TIP3    H233038   3.121   6.816   6.488 -1.7120  0.1715 -0.2494
 3875TIP3   OH233039   1.818   4.897   0.895  0.3869  0.0757 -0.5536
 3875TIP3    H133040   1.723   4.893   0.894  0.3764 -1.4762  2.1589
 3875TIP3    H233041   1.846   4.805   0.892  1.7193  0.3791  1.7876
 3876TIP3   OH233042   3.283   3.298   4.615 -0.8772 -0.2942 -0.8819
 3876TIP3    H133043   3.271   3.228   4.679 -1.1538  1.1359  0.6564
 3876TIP3    H233044   3.196   3.335   4.602 -0.7077 -0.1190 -1.5467
 3877TIP3   OH233045   4.377   2.860  12.456  0.1665  0.4242 -0.4331
 3877TIP3    H133046   4.434   2.908  12.516 -0.0932 -0.0191  0.1660
 3877TIP3    H233047   4.313   2.816  12.512  1.1817 -1.6747 -0.8633
 3878TIP3   OH233048   4.090   5.171   4.552  0.3634 -0.7040 -0.0060
 3878TIP3    H133049   4.080   5.135   4.464 -1.0822 -0.4182  0.0301
 3878TIP3    H233050   4.002   5.167   4.589  0.4711  1.4545  0.5462
 3879TIP3   OH233051   1.491   5.341   4.084  0.2577  0.1090  0.2553
 3879TIP3    H133052   1.407   5.386   4.094  0.2747  0.2666 -0.2727
 3879TIP3    H233053   1.531   5.345   4.171 -0.5042 -0.4235  0.6299
 3880TIP3   OH233054   6.353   2.484  13.710  0.3681  0.5220 -0.7794
 3880TIP3    H133055   6.442   2.485  13.744  0.3384  0.9069 -0.7131
 3880TIP3    H233056   6.298   2.468  13.786  0.4697 -1.0212 -1.0221
 3881TIP3   OH233057   1.487   3.752   0.358 -0.0579  0.1070  0.4067
 3881TIP3    H133058   1.559   3.763   0.295 -1.0198 -0.8306 -0.8716
 3881TIP3    H233059   1.432   3.684   0.320 -0.7862 -0.3039  2.1630
 3882TIP3   OH233060   0.963   0.154   2.739  0.1111 -0.7472  0.1511
 3882TIP3    H133061   1.010   0.193   2.666  1.2216  0.9600  1.7562
 3882TIP3    H233062   0.974   0.059   2.726  2.1263 -0.4244 -0.7081
 3883TIP3   OH233063   5.934   4.678   2.302  0.2068  0.1724  0.2921
 3883TIP3    H133064   5.916   4.665   2.396 -0.8155 -1.8461 -0.1445
 3883TIP3    H233065   5.907   4.768   2.284 -2.0722 -0.2729  1.3878
 3884TIP3   OH233066   5.533   3.101  11.213 -0.2059  0.3879  0.3535
 3884TIP3    H133067   5.438   3.114  11.223 -0.1028  0.8398  0.7978
 3884TIP3    H233068   5.545   3.081  11.120 -0.5191  2.3982 -0.1446
 3885TIP3   OH233069   3.799   0.383  14.355 -0.8376 -0.9670  0.1973
 3885TIP3    H133070   3.744   0.461  14.352 -0.4694 -0.6754  0.8550
 3885TIP3    H233071   3.841   0.380  14.269 -0.7800 -0.3838  0.2029
 3886TIP3   OH233072   2.596   5.468  14.596 -0.3833 -0.0788  0.2043
 3886TIP3    H133073   2.627   5.443  14.683 -2.8867 -0.1754  1.1047
 3886TIP3    H233074   2.543   5.394  14.567  0.1627  0.0939 -1.2843
 3887TIP3   OH233075   0.409   6.218   1.179 -0.1335  0.3731 -0.1310
 3887TIP3    H133076   0.452   6.142   1.140 -0.1581 -0.4347  1.3891
 3887TIP3    H233077   0.473   6.289   1.170  0.0229  0.0953 -1.2503
 3888TIP3   OH233078   0.613   2.842  15.687 -0.8196  0.0048  0.2847
 3888TIP3    H133079   0.680   2.895  15.731 -1.5152 -0.2488  1.6697
 3888TIP3    H233080   0.536   2.850  15.743 -1.9730  0.3576 -1.3420
 3889TIP3   OH233081   0.648   5.566   4.665 -0.0086 -0.7609 -0.4267
 3889TIP3    H133082   0.655   5.522   4.579  1.3019 -3.1519  0.8416
 3889TIP3    H233083   0.603   5.503   4.720 -1.0784  0.8805  0.6041
 3890TIP3   OH233084   4.067   1.984   5.772  0.0061 -0.6022 -0.0721
 3890TIP3    H133085   4.098   1.933   5.698 -1.1892 -0.5386 -0.6195
 3890TIP3    H233086   3.978   1.954   5.787 -0.2495  0.3887  0.4365
 3891TIP3   OH233087   0.041   3.050  14.678  0.3597 -0.3234 -0.2068
 3891TIP3    H133088  -0.017   3.115  14.638  1.1194 -0.3312 -1.3511
 3891TIP3    H233089   0.112   3.102  14.717  0.4917 -0.4101 -0.3304
 3892TIP3   OH233090   5.906   1.425   2.980 -0.0116  0.7324  0.0402
 3892TIP3    H133091   5.908   1.473   3.063 -1.1412  2.3740 -0.8616
 3892TIP3    H233092   5.991   1.444   2.940 -0.3996  1.8855 -0.2500
 3893TIP3   OH233093   0.281   3.143  14.197 -0.2622  0.1336 -0.6491
 3893TIP3    H133094   0.319   3.105  14.276  0.3653  0.5603 -0.7426
 3893TIP3    H233095   0.223   3.075  14.163  0.0747 -0.3495 -0.2591
 3894TIP3   OH233096   0.180   5.690   5.610 -0.0694 -0.5744 -0.2877
 3894TIP3    H133097   0.171   5.755   5.680  1.2983  0.1224 -0.7509
 3894TIP3    H233098   0.123   5.618   5.637  1.5222 -0.9233  2.2650
 3895TIP3   OH233099   3.839   4.485   2.502  0.8618  0.4247  0.1214
 3895TIP3    H133100   3.857   4.439   2.420  2.1572  0.3956  0.4081
 3895TIP3    H233101   3.756   4.530   2.487  2.2278  2.3511 -2.0713
 3896TIP3   OH233102   5.139   6.373   0.240 -0.4212  0.0234 -0.4125
 3896TIP3    H133103   5.197   6.301   0.218  0.1798  0.6227 -0.7956
 3896TIP3    H233104   5.077   6.335   0.303 -0.2809 -0.8909 -0.8143
 3897TIP3   OH233105   0.662   6.437  15.150  0.4310 -0.0600  0.6574
 3897TIP3    H133106   0.676   6.363  15.090  0.0289  0.9311 -0.6713
 3897TIP3    H233107   0.636   6.509  15.094  1.3053  1.2468  1.8988
 3898TIP3   OH233108   5.276   0.369  14.798  0.3296 -0.2704  0.6149
 3898TIP3    H133109   5.189   0.331  14.788  0.5913 -0.7128 -0.0022
 3898TIP3    H233110   5.266   0.432  14.869 -0.1170 -1.4397  1.6112
 3899TIP3   OH233111   4.146   4.047  11.776  0.1555  0.4685 -0.4153
 3899TIP3    H133112   4.113   4.036  11.687  1.7539  1.9621 -1.2349
 3899TIP3    H233113   4.076   4.093  11.822  0.0159  1.3065 -1.4260
 3900TIP3   OH233114   6.123   6.133  15.457  0.0001 -0.2938  0.1804
 3900TIP3    H133115   6.129   6.050  15.505  0.1054 -0.7844 -0.6805
 3900TIP3    H233116   6.178   6.120  15.380  2.0261  1.4389  1.2779
 3901TIP3   OH233117   2.724   3.706   3.076 -0.2024  0.1498  0.7185
 3901TIP3    H133118   2.755   3.660   2.999  0.4938  1.9221 -0.0751
 3901TIP3    H233119   2.745   3.648   3.149  1.3536 -0.4373 -0.1917
 3902TIP3   OH233120   4.323   6.177  14.247  0.4066  0.2757 -0.8810
 3902TIP3    H133121   4.320   6.138  14.160 -0.1060 -1.4101 -0.1271
 3902TIP3    H233122   4.387   6.123  14.295 -0.6068  0.0920  0.2966
 3903TIP3   OH233123   1.622   6.098   0.622  0.1283  0.7880 -0.2804
 3903TIP3    H133124   1.702   6.089   0.674  0.4557  0.2670 -0.8603
 3903TIP3    H233125   1.573   6.169   0.665  0.3039  0.2449  0.8299
 3904TIP3   OH233126   0.975   2.591   3.040 -0.3063  0.1914 -0.6781
 3904TIP3    H133127   1.014   2.509   3.069  0.3677  0.3255 -1.1786
 3904TIP3    H233128   0.929   2.625   3.117  0.8588  0.1874  0.0277
 3905TIP3   OH233129   2.146   5.300  12.212  0.1704 -0.2469  0.1882
 3905TIP3    H133130   2.163   5.215  12.171  1.5534 -0.1256  0.4986
 3905TIP3    H233131   2.119   5.356  12.139  1.0980 -0.4497 -0.3208
 3906TIP3   OH233132   6.443   3.395  15.345  0.2078 -0.8374  0.2647
 3906TIP3    H133133   6.389   3.461  15.302 -1.9861 -2.0521  1.0875
 3906TIP3    H233134   6.432   3.316  15.292  1.5856 -0.9688  0.1602
 3907TIP3   OH233135   1.205   4.670  14.446  0.1985  0.4642  0.0003
 3907TIP3    H133136   1.118   4.703  14.427  0.2127  1.5319  1.7188
 3907TIP3    H233137   1.191   4.583  14.483 -0.1114  0.4737 -0.0992
 3908TIP3   OH233138   2.194   3.295  13.171  0.1926 -0.4230  0.4739
 3908TIP3    H133139   2.190   3.285  13.076  1.7366  1.3321  0.2009
 3908TIP3    H233140   2.234   3.214  13.202 -2.2579 -1.9436 -0.1196
 3909TIP3   OH233141   4.106   4.931   2.837  0.3281  0.2638  0.1512
 3909TIP3    H133142   4.193   4.971   2.844  0.3231  0.4109 -0.5622
 3909TIP3    H233143   4.120   4.839   2.860  1.2548 -0.4057 -2.9312
 3910TIP3   OH233144   3.127   1.899   4.497 -0.4910 -0.2406 -0.3988
 3910TIP3    H133145   3.144   1.811   4.532 -0.8989 -0.8583 -1.7358
 3910TIP3    H233146   3.047   1.889   4.445 -0.1059  0.7612 -1.1859
 3911TIP3   OH233147   3.351   0.439  11.984 -0.4604  0.0948 -0.5616
 3911TIP3    H133148   3.320   0.524  11.955 -1.5658 -0.3262 -0.6509
 3911TIP3    H233149   3.383   0.454  12.073 -0.9160  0.5394 -0.4747
 3912TIP3   OH233150   4.332   1.961   0.164  0.4510  0.3933 -0.3355
 3912TIP3    H133151   4.361   2.003   0.083  0.6457  0.0802 -0.4304
 3912TIP3    H233152   4.237   1.965   0.161  0.4525  0.2186 -0.6688
 3913TIP3   OH233153   1.967   3.402  11.458  0.4432 -0.2289 -0.0677
 3913TIP3    H133154   1.948   3.309  11.470  1.1023 -0.5789 -1.5450
 3913TIP3    H233155   2.042   3.403  11.398  0.2526  1.2528 -0.2954
 3914TIP3   OH233156   1.666   2.018   4.764 -0.0482  0.3816  0.0452
 3914TIP3    H133157   1.644   2.020   4.671  0.0255  0.5340  0.0319
 3914TIP3    H233158   1.610   2.084   4.804 -1.2059 -0.7571  0.3457
 3915TIP3   OH233159   4.594   2.796  15.737 -0.4403  0.5225  0.0889
 3915TIP3    H133160   4.574   2.706  15.709  1.3384  0.6343 -1.7101
 3915TIP3    H233161   4.544   2.808  15.817 -4.3076 -0.5180 -2.0256
 3916TIP3   OH233162   2.087   3.514   4.268  0.2252  0.1590  0.0743
 3916TIP3    H133163   2.097   3.577   4.197 -0.0549 -1.2046 -1.1874
 3916TIP3    H233164   2.013   3.548   4.320 -0.3295  0.5394 -0.9474
 3917TIP3   OH233165   5.973   6.288   1.458 -0.2798 -0.0599  0.6609
 3917TIP3    H133166   6.065   6.314   1.458 -0.5953  1.0977  0.1174
 3917TIP3    H233167   5.966   6.224   1.529  0.5941  1.0631  1.7856
 3918TIP3   OH233168   2.855   4.075  17.174  0.3336 -0.5589  0.2057
 3918TIP3    H133169   2.851   4.148  17.112  1.8574  0.8817  1.7475
 3918TIP3    H233170   2.857   3.997  17.119 -1.3958  0.5251 -1.4844
 3919TIP3   OH233171   3.881   5.105   2.833 -0.3395 -0.2180  0.5619
 3919TIP3    H133172   3.950   5.039   2.839 -1.2144 -1.1958 -0.1430
 3919TIP3    H233173   3.871   5.121   2.739  0.5069  1.6113  0.7433
 3920TIP3   OH233174   1.823   6.499  13.770 -0.7036  0.2615 -0.3797
 3920TIP3    H133175   1.772   6.468  13.844 -0.4288  0.7954  0.0332
 3920TIP3    H233176   1.761   6.549  13.716 -0.4237  1.6630  0.5734
 3921TIP3   OH233177   6.162   2.053   3.895  0.9819 -0.4676  0.4857
 3921TIP3    H133178   6.111   1.988   3.943  1.0541  0.0562  1.2779
 3921TIP3    H233179   6.110   2.071   3.817 -0.1302  0.1883  1.3720
 3922TIP3   OH233180   3.567   2.313   3.545 -0.1748  0.4951 -0.5780
 3922TIP3    H133181   3.601   2.300   3.457 -1.3540  0.7941 -1.0808
 3922TIP3    H233182   3.524   2.399   3.543  0.2860  0.7577  0.4384
 3923TIP3   OH233183   6.686   4.325  16.934  0.7065 -0.1876  0.0055
 3923TIP3    H133184   6.651   4.341  16.846 -0.5369  2.7932  0.9726
 3923TIP3    H233185   6.776   4.297  16.918  0.2488 -0.5227 -2.2545
 3924TIP3   OH233186   1.178   6.546   0.843  0.0028 -0.3000 -0.3558
 3924TIP3    H133187   1.146   6.568   0.756  0.3588 -0.0230 -0.4189
 3924TIP3    H233188   1.273   6.539   0.832 -0.0358 -1.1637 -0.1830
 3925TIP3   OH233189   3.217   0.650  12.415  0.0030  0.0373  0.0476
 3925TIP3    H133190   3.223   0.622  12.507  0.4451  1.6502  0.5167
 3925TIP3    H233191   3.181   0.738  12.419  0.1366  0.1674 -1.3424
 3926TIP3   OH233192   4.551   0.073  15.785 -0.1025  0.1770 -0.2870
 3926TIP3    H133193   4.540   0.001  15.723 -1.3700  0.0163  0.1235
 3926TIP3    H233194   4.607   0.038  15.854 -0.7869 -0.4409 -0.0445
 3927TIP3   OH233195   0.405   2.571   3.296  0.2448 -0.2469  0.0488
 3927TIP3    H133196   0.432   2.491   3.341 -1.4357 -0.0900  1.3737
 3927TIP3    H233197   0.441   2.642   3.349 -0.4361 -0.0871  0.3044
 3928TIP3   OH233198   2.589   2.053   4.706  0.1096 -0.0253  0.2429
 3928TIP3    H133199   2.537   2.128   4.737 -1.2404 -1.3625  1.2800
 3928TIP3    H233200   2.561   2.041   4.615  0.2491  0.6309  0.1032
 3929TIP3   OH233201   5.971   4.016  11.901  0.2836 -0.1494 -0.2377
 3929TIP3    H133202   5.989   4.084  11.966  0.5032 -0.0983 -0.3533
 3929TIP3    H233203   5.934   4.064  11.826 -0.3102 -0.2482 -0.0144
 3930TIP3   OH233204   6.736   1.120   0.357  0.1404 -0.1972  0.2299
 3930TIP3    H133205   6.641   1.125   0.367  0.3857  0.9908  2.1883
 3930TIP3    H233206   6.767   1.085   0.440  1.4687 -0.0952 -0.2162
 3931TIP3   OH233207   0.319   3.727  16.335  0.1300  0.7633 -0.0545
 3931TIP3    H133208   0.357   3.669  16.402 -0.9106  1.5077  1.2253
 3931TIP3    H233209   0.330   3.680  16.253  1.8288  0.0178  0.5911
 3932TIP3   OH233210   5.146   2.861   5.436  0.5029 -0.0116  0.4602
 3932TIP3    H133211   5.116   2.909   5.359 -1.2340 -2.1180 -0.2493
 3932TIP3    H233212   5.238   2.842   5.418 -0.1455 -1.3826 -1.6386
 3933TIP3   OH233213   5.832   3.252  14.010 -0.4631 -0.2211  0.4566
 3933TIP3    H133214   5.799   3.275  14.097  0.9051 -1.8384  1.4528
 3933TIP3    H233215   5.814   3.158  14.002  0.3523 -0.3011 -0.5623
 3934TIP3   OH233216   3.518   6.207  13.800 -0.3412 -0.3578  0.2335
 3934TIP3    H133217   3.450   6.167  13.854 -0.8596  1.0704  0.6668
 3934TIP3    H233218   3.493   6.299  13.795  0.9054 -0.0545 -0.6243
 3935TIP3   OH233219   4.750   3.374  14.343 -1.0790  0.0469  0.0916
 3935TIP3    H133220   4.770   3.295  14.293 -0.1424  0.3251  0.0160
 3935TIP3    H233221   4.712   3.434  14.279 -0.9707 -0.0224 -0.0372
 3936TIP3   OH233222   6.402   0.946  12.958  1.1033  0.2066 -0.3319
 3936TIP3    H133223   6.483   0.970  13.003  0.4693 -1.8391  1.9944
 3936TIP3    H233224   6.426   0.870  12.905  0.3584 -1.4279  1.6352
 3937TIP3   OH233225   0.770   0.326   2.820 -0.1291 -0.9450  0.6412
 3937TIP3    H133226   0.839   0.264   2.794 -0.4547 -1.8128  1.7610
 3937TIP3    H233227   0.816   0.409   2.833  0.4161 -1.0963 -0.3084
 3938TIP3   OH233228   3.931   4.549  10.859  0.1576  0.1276 -0.3129
 3938TIP3    H133229   3.980   4.622  10.896 -0.6413  0.3404  0.3351
 3938TIP3    H233230   3.991   4.474  10.863  1.3850  0.9852 -2.0290
 3939TIP3   OH233231   2.412   1.810   0.934 -0.6088 -0.2845 -0.0876
 3939TIP3    H133232   2.410   1.811   0.839 -1.1378  0.0989 -0.0706
 3939TIP3    H233233   2.372   1.893   0.961 -0.6577 -0.4822  0.4671
 3940TIP3   OH233234   4.263   1.444   0.906  0.1693  0.3430 -0.2456
 3940TIP3    H133235   4.306   1.401   0.832 -1.6083 -0.0098 -1.0847
 3940TIP3    H233236   4.325   1.433   0.978 -0.3071 -3.9706 -0.3389
 3941TIP3   OH233237   5.202   3.884   1.221  0.2955 -0.0709 -0.3588
 3941TIP3    H133238   5.293   3.912   1.237  0.3180 -0.3713  0.0591
 3941TIP3    H233239   5.178   3.837   1.301 -0.2197 -0.0148 -0.4850
 3942TIP3   OH233240   6.739   4.801   2.286  0.0052  0.0585  0.0184
 3942TIP3    H133241   6.695   4.737   2.342  0.0753  0.7884  0.9121
 3942TIP3    H233242   6.668   4.852   2.247 -0.0183  0.0495  0.0493
 3943TIP3   OH233243   4.800   5.520  12.716  0.5014  0.4890 -0.2951
 3943TIP3    H133244   4.863   5.485  12.779 -1.3190 -0.5459  0.9781
 3943TIP3    H233245   4.736   5.566  12.769 -1.3105 -0.7848 -1.3323
 3944TIP3   OH233246   3.907   3.490  10.876 -0.7480 -0.0957  0.6437
 3944TIP3    H133247   3.908   3.534  10.791 -0.5726  0.7531  1.0802
 3944TIP3    H233248   3.979   3.529  10.925 -1.0393 -0.3577  1.2910
 3945TIP3   OH233249   2.287   4.358   2.527 -0.0640  0.4016 -0.1549
 3945TIP3    H133250   2.247   4.320   2.448  0.5540  2.1308 -1.3511
 3945TIP3    H233251   2.377   4.327   2.525  0.1079  0.9171 -0.4524
 3946TIP3   OH233252   3.107   4.182  10.971  0.2907 -0.2725 -0.9504
 3946TIP3    H133253   3.136   4.138  10.891  1.6889  0.2792 -0.7695
 3946TIP3    H233254   3.189   4.209  11.013 -0.5178  1.4638 -0.4845
 3947TIP3   OH233255   3.333   2.113  15.952  0.3644 -0.2832 -0.4688
 3947TIP3    H133256   3.365   2.101  16.042 -0.4412 -1.8763 -0.3889
 3947TIP3    H233257   3.284   2.195  15.956  1.8966  0.6404  0.1014
 3948TIP3   OH233258   2.421   0.378   6.715  0.5135 -0.6059 -0.4419
 3948TIP3    H133259   2.493   0.383   6.778  0.3138 -1.2096 -0.1613
 3948TIP3    H233260   2.463   0.385   6.630  0.8515 -0.4161 -0.2585
 3949TIP3   OH233261   0.538   1.241   0.576  0.1746  0.4941 -0.1516
 3949TIP3    H133262   0.494   1.216   0.658  1.1829  0.5150  0.4066
 3949TIP3    H233263   0.536   1.161   0.523 -3.5241  1.4235 -1.5059
 3950TIP3   OH233264   0.818   5.180  16.571  0.3321 -0.5709  0.3933
 3950TIP3    H133265   0.860   5.240  16.633 -0.6629  0.1591  0.3767
 3950TIP3    H233266   0.766   5.121  16.625 -0.5183  0.0519  0.2694
 3951TIP3   OH233267   3.106   1.100   2.306 -0.1765 -0.0693 -0.3391
 3951TIP3    H133268   3.100   1.154   2.385 -0.0105 -0.3685 -0.1214
 3951TIP3    H233269   3.159   1.152   2.246  1.2849 -0.6561  0.4275
 3952TIP3   OH233270   2.121   6.058   4.345  0.0520  0.1459  0.8146
 3952TIP3    H133271   2.096   6.150   4.353 -2.1449 -0.2463 -0.9171
 3952TIP3    H233272   2.102   6.020   4.430  0.6029  1.2078  1.4173
 3953TIP3   OH233273   1.013   4.253   3.126  0.1859  0.0413 -0.3391
 3953TIP3    H133274   1.090   4.254   3.069  0.6641  1.4848  0.3020
 3953TIP3    H233275   1.031   4.184   3.190  0.7294  0.0548 -0.4760
 3954TIP3   OH233276   5.822   4.776  17.063 -0.2374 -0.0128  0.3273
 3954TIP3    H133277   5.761   4.738  17.125  0.3275  1.4581  1.8365
 3954TIP3    H233278   5.804   4.870  17.066  0.5360  0.1907 -0.9332
 3955TIP3   OH233279   5.179   0.775  15.482  0.0271  0.5217 -0.1319
 3955TIP3    H133280   5.126   0.768  15.561 -1.1983 -1.1152 -1.0602
 3955TIP3    H233281   5.236   0.698  15.484 -0.4969  0.0929 -1.1695
 3956TIP3   OH233282   0.986   2.434  16.066  0.1774 -0.3501  0.1075
 3956TIP3    H133283   1.020   2.422  16.155 -0.1794 -0.6878  0.1993
 3956TIP3    H233284   1.044   2.382  16.011  1.0840  0.7645  0.0009
 3957TIP3   OH233285   6.487   5.945  10.409  0.0318  0.0798  0.1711
 3957TIP3    H133286   6.482   6.027  10.459 -2.5760 -0.9942  1.7844
 3957TIP3    H233287   6.419   5.954  10.342 -0.0144 -0.6165  0.1250
 3958TIP3   OH233288   4.329   0.619  14.026 -0.1263 -0.3810 -0.3739
 3958TIP3    H133289   4.279   0.538  14.012  2.4887 -1.9398 -1.1691
 3958TIP3    H233290   4.352   0.648  13.937  3.1678 -1.5811 -0.0036
 3959TIP3   OH233291   0.332   4.616  14.436  0.1813  0.2200 -0.3661
 3959TIP3    H133292   0.376   4.692  14.473  0.9187  0.2308 -1.2649
 3959TIP3    H233293   0.355   4.618  14.343 -0.4638 -0.6391 -0.5441
 3960TIP3   OH233294   2.749   5.637   5.138  0.2501 -0.0380  0.3408
 3960TIP3    H133295   2.728   5.627   5.231 -0.5365 -2.4734 -0.0829
 3960TIP3    H233296   2.785   5.726   5.132 -1.0246  0.6964  2.7113
 3961TIP3   OH233297   2.707   0.946  13.771  0.1508  0.2465 -0.1299
 3961TIP3    H133298   2.654   0.891  13.828 -0.0981 -0.1910 -0.7791
 3961TIP3    H233299   2.792   0.952  13.815 -0.3565  0.7453  0.7855
 3962TIP3   OH233300   1.464   0.987  15.102 -0.5327 -0.0969 -0.2119
 3962TIP3    H133301   1.459   1.048  15.028 -0.7037 -0.6451 -0.6538
 3962TIP3    H233302   1.534   0.926  15.078 -0.7552 -0.4223 -0.0259
 3963TIP3   OH233303   6.183   2.333  13.246  0.3639 -0.2463  0.4492
 3963TIP3    H133304   6.114   2.338  13.180 -0.5166 -1.2875  1.2797
 3963TIP3    H233305   6.239   2.409  13.228 -0.8929  0.5037 -0.3386
 3964TIP3   OH233306   2.634   4.400   4.689  0.2677 -0.6826 -0.5761
 3964TIP3    H133307   2.706   4.435   4.741 -0.2364 -0.0030 -0.3309
 3964TIP3    H233308   2.624   4.310   4.720 -0.2348 -0.1891  0.7271
 3965TIP3   OH233309   4.187   1.473  16.498  0.0249 -0.0956  0.5276
 3965TIP3    H133310   4.211   1.540  16.563  1.1774 -0.8729  0.9106
 3965TIP3    H233311   4.238   1.496  16.421  1.4585 -1.2871  1.0891
 3966TIP3   OH233312   4.087   5.685  16.940 -0.2541 -0.1519  0.7213
 3966TIP3    H133313   4.176   5.655  16.960  0.6442  2.2748  0.6221
 3966TIP3    H233314   4.064   5.741  17.014 -1.0662  0.4770  0.0033
 3967TIP3   OH233315   4.608   2.100  16.064 -0.0118 -0.1268 -0.0350
 3967TIP3    H133316   4.653   2.106  15.980 -1.2761  0.8373 -0.6581
 3967TIP3    H233317   4.557   2.181  16.071 -2.2107 -1.4764  0.3057
 3968TIP3   OH233318   5.770   3.770  15.668  0.1059 -0.0253  0.0010
 3968TIP3    H133319   5.827   3.714  15.615 -0.0081 -0.6700  0.5642
 3968TIP3    H233320   5.681   3.745  15.644  0.0541 -0.2518  0.4297
 3969TIP3   OH233321   3.459   5.090   1.687 -0.2837  0.2047  0.1855
 3969TIP3    H133322   3.457   5.042   1.603 -1.3939  0.7941 -0.1323
 3969TIP3    H233323   3.523   5.160   1.673  0.7594 -0.6911  0.3892
 3970TIP3   OH233324   4.661   0.405   2.576 -0.1821 -0.1837 -0.5942
 3970TIP3    H133325   4.587   0.465   2.571  0.4932  0.6413 -0.7131
 3970TIP3    H233326   4.682   0.401   2.669  0.0372  0.0878 -0.6320
 3971TIP3   OH233327   3.484   5.352  14.949  0.7206  0.2020  0.1586
 3971TIP3    H133328   3.482   5.262  14.983 -0.6936  0.5692  1.0780
 3971TIP3    H233329   3.544   5.348  14.874  0.5683 -1.5396  0.1134
 3972TIP3   OH233330   0.687   0.576  11.725 -0.0860 -0.3644  0.6561
 3972TIP3    H133331   0.778   0.580  11.756  0.0325  0.2189  0.2477
 3972TIP3    H233332   0.636   0.551  11.802  0.5910 -2.1426  0.5506
 3973TIP3   OH233333   2.045   0.616   2.252  0.4357  0.2076  0.4259
 3973TIP3    H133334   1.977   0.658   2.304  0.8401  0.1610  1.0028
 3973TIP3    H233335   2.116   0.600   2.314 -0.1767 -2.4459  0.5010
 3974TIP3   OH233336   0.711   0.550  14.416  0.1401 -0.2043 -0.0933
 3974TIP3    H133337   0.773   0.618  14.391 -0.6128  1.1220  1.4828
 3974TIP3    H233338   0.759   0.494  14.476  0.0975  0.3042  0.4240
 3975TIP3   OH233339   2.114   4.219   4.184  0.6890 -0.2096 -0.0717
 3975TIP3    H133340   2.051   4.242   4.115  0.4558  2.3868  0.9523
 3975TIP3    H233341   2.139   4.129   4.164 -1.7425 -0.5769 -1.7380
 3976TIP3   OH233342   4.477   3.689  12.974  0.8126 -0.4146  0.0921
 3976TIP3    H133343   4.561   3.730  12.998  1.2337 -0.5949 -1.0199
 3976TIP3    H233344   4.502   3.617  12.916 -0.1605 -0.0102 -0.8340
 3977TIP3   OH233345   3.690   2.882   5.475  0.1756  0.1732 -0.0035
 3977TIP3    H133346   3.711   2.852   5.564  0.9541  1.4831  0.2652
 3977TIP3    H233347   3.633   2.957   5.488 -0.0157  0.1348 -0.6226
 3978TIP3   OH233348   6.306   4.043  13.165 -0.1458 -0.4151 -0.0518
 3978TIP3    H133349   6.369   3.971  13.154  0.9032  0.6078 -0.8708
 3978TIP3    H233350   6.345   4.100  13.231 -1.2457 -0.8636  1.0160
 3979TIP3   OH233351   2.863   2.096   3.582 -0.1737 -0.4368  0.1308
 3979TIP3    H133352   2.924   2.065   3.515  1.3720 -1.0031  1.7628
 3979TIP3    H233353   2.837   2.018   3.630 -0.6853  0.0584  0.6742
 3980TIP3   OH233354   5.035   2.962   6.477  0.6707 -0.2279  0.0301
 3980TIP3    H133355   5.023   2.914   6.559 -0.6504  0.2671  0.1369
 3980TIP3    H233356   5.111   3.018   6.492 -0.9871  1.6141  1.7408
 3981TIP3   OH233357   2.386   3.049  11.459  0.0160  0.1214  0.0509
 3981TIP3    H133358   2.381   3.052  11.363 -0.4814  1.7291  0.1165
 3981TIP3    H233359   2.366   2.958  11.481 -2.0466  0.2396 -1.2436
 3982TIP3   OH233360   2.062   1.045   0.861  0.6562  0.9109 -0.1616
 3982TIP3    H133361   2.088   0.963   0.902  1.5147  2.0158  1.6094
 3982TIP3    H233362   1.967   1.047   0.867  0.6865  0.4100  0.5276
 3983TIP3   OH233363   6.744   2.064   2.634 -0.2212  0.9089 -0.1892
 3983TIP3    H133364   6.738   2.156   2.659 -1.1895  0.3417  1.7480
 3983TIP3    H233365   6.688   2.056   2.556  1.2532  2.2847 -1.4289
 3984TIP3   OH233366   2.361   0.173   2.119  0.2563  0.1422  0.0341
 3984TIP3    H133367   2.278   0.193   2.162 -0.2797 -1.5495 -0.1635
 3984TIP3    H233368   2.395   0.097   2.167  1.1699  0.1762 -0.5508
 3985TIP3   OH233369   2.557   3.909   3.691 -0.2616 -0.3708 -0.1664
 3985TIP3    H133370   2.575   3.826   3.736  1.9366  0.2086  0.0727
 3985TIP3    H233371   2.568   3.975   3.759 -3.2803  0.0690 -0.0355
 3986TIP3   OH233372   3.915   2.853   0.822 -0.3364  0.0607  0.0176
 3986TIP3    H133373   3.969   2.893   0.754 -0.5741 -0.1901 -0.3198
 3986TIP3    H233374   3.906   2.761   0.795 -0.9102  0.0942  0.0860
 3987TIP3   OH233375   6.695   0.772  14.442 -0.4402  0.0020  0.2380
 3987TIP3    H133376   6.772   0.829  14.449  0.0970 -0.8673  1.8860
 3987TIP3    H233377   6.621   0.831  14.455  0.0664  0.4754  1.0693
 3988TIP3   OH233378   5.763   5.102  14.875  0.0337  0.2239  0.0679
 3988TIP3    H133379   5.760   5.163  14.949  0.7915  0.6210 -0.2338
 3988TIP3    H233380   5.854   5.074  14.870 -0.3537 -1.1322  0.3614
 3989TIP3   OH233381   6.005   2.988   4.189  0.1456 -0.0399  0.4112
 3989TIP3    H133382   5.910   2.999   4.202 -0.0735  0.4363 -1.4418
 3989TIP3    H233383   6.028   2.911   4.241 -1.5195 -1.0020 -0.2315
 3990TIP3   OH233384   2.487   0.288  14.272 -0.0027 -0.7265  0.0966
 3990TIP3    H133385   2.553   0.289  14.341 -0.1527 -1.1710  0.2513
 3990TIP3    H233386   2.507   0.209  14.222 -1.3667 -1.7077  1.0763
 3991TIP3   OH233387   2.313   5.519  14.021  0.6334 -0.0192  0.5814
 3991TIP3    H133388   2.360   5.450  14.067  1.6258 -0.4212 -0.9917
 3991TIP3    H233389   2.306   5.590  14.084  0.2650 -1.2655  1.9740
 3992TIP3   OH233390   2.145   3.160   2.337  0.1170  0.0364 -0.0124
 3992TIP3    H133391   2.223   3.112   2.311 -0.3931 -2.0020  2.0117
 3992TIP3    H233392   2.082   3.092   2.360 -1.2420  1.6631  1.1938
 3993TIP3   OH233393   6.268   2.547   3.135  0.4487 -0.2187  0.3048
 3993TIP3    H133394   6.333   2.550   3.065  0.9481  2.8240  0.8353
 3993TIP3    H233395   6.187   2.520   3.092  0.6195  2.1443 -1.5730
 3994TIP3   OH233396   0.077   6.284  16.295 -0.0001 -0.2157  0.2511
 3994TIP3    H133397   0.110   6.373  16.281 -0.3911  0.0073  0.7516
 3994TIP3    H233398   0.135   6.229  16.242 -0.1430  0.3975 -0.5627
 3995TIP3   OH233399   5.393   6.338  13.771 -0.5340 -0.5822  0.6861
 3995TIP3    H133400   5.384   6.424  13.812 -0.7294  0.7653 -2.0896
 3995TIP3    H233401   5.487   6.321  13.772 -0.6257 -1.0612  2.6372
 3996TIP3   OH233402   4.967   1.451  14.096 -0.2395  0.0464  0.0471
 3996TIP3    H133403   5.002   1.459  14.007  0.0870 -0.6426  0.1115
 3996TIP3    H233404   4.952   1.542  14.124  0.2743  0.2907 -0.4614
 3997TIP3   OH233405   5.277   0.465   3.197  0.1001  0.3686  0.1640
 3997TIP3    H133406   5.368   0.446   3.221  0.1407 -0.0897 -0.3585
 3997TIP3    H233407   5.230   0.465   3.280  0.1558 -1.6753  0.2195
 3998TIP3   OH233408   5.473   4.995   0.514 -0.0783 -0.1489  0.5574
 3998TIP3    H133409   5.517   5.079   0.531  1.3174 -0.8731  0.5782
 3998TIP3    H233410   5.472   4.988   0.419 -0.7820  0.1856  0.5349
 3999TIP3   OH233411   1.581   2.366  14.946  0.5012  0.1019 -0.7736
 3999TIP3    H133412   1.563   2.276  14.921  0.5712  0.1285 -0.9244
 3999TIP3    H233413   1.496   2.403  14.968  0.5509 -0.1800 -0.1215
 4000TIP3   OH233414   6.741   3.197  16.029 -0.5671 -0.5998  0.6500
 4000TIP3    H133415   6.682   3.238  16.092  0.0331  0.6404  0.4160
 4000TIP3    H233416   6.750   3.261  15.959  0.6928 -0.9711  0.4613
 4001TIP3   OH233417   5.596   0.424  15.506 -0.3592 -0.0937  0.4101
 4001TIP3    H133418   5.556   0.390  15.426 -0.5558  0.4998  0.2549
 4001TIP3    H233419   5.677   0.466  15.477 -0.8287  0.8224  0.4193
 4002TIP3   OH233420   5.584   0.657  10.866 -0.2114  0.1513  0.2808
 4002TIP3    H133421   5.497   0.626  10.842  0.2451  0.3381 -1.6720
 4002TIP3    H233422   5.594   0.740  10.820  0.9895  0.1456  0.5098
 4003TIP3   OH233423   0.760   5.273   1.100  0.1722  0.5210 -1.1173
 4003TIP3    H133424   0.774   5.179   1.094  1.6130  0.7644 -1.6313
 4003TIP3    H233425   0.801   5.309   1.021 -0.2751  1.5929 -0.8747
 4004TIP3   OH233426   3.374   5.585   5.368 -0.1702 -0.3732 -0.5985
 4004TIP3    H133427   3.290   5.565   5.410  0.3834  1.1132  1.2866
 4004TIP3    H233428   3.356   5.662   5.315 -0.1180 -0.3498 -0.5823
 4005TIP3   OH233429   4.396   4.757   2.171  0.1814 -0.1516  0.5019
 4005TIP3    H133430   4.437   4.689   2.224  0.0997 -1.6002 -1.2094
 4005TIP3    H233431   4.310   4.720   2.147 -0.6252  1.3343  1.0691
 4006TIP3   OH233432   2.458   5.596   6.208 -0.5438 -0.3493  0.2237
 4006TIP3    H133433   2.500   5.610   6.123 -0.3686  0.8886  0.4955
 4006TIP3    H233434   2.530   5.601   6.271 -0.8284 -0.1320  0.5354
 4007TIP3   OH233435   2.095   2.153   4.228  0.1934 -0.2182 -0.0939
 4007TIP3    H133436   2.051   2.150   4.143 -2.0005 -0.1456  0.9823
 4007TIP3    H233437   2.140   2.069   4.234 -0.8426 -0.8425 -0.7404
 4008TIP3   OH233438   1.934   1.619  16.329  0.3808 -0.2360 -0.1688
 4008TIP3    H133439   2.012   1.583  16.372  1.8201 -0.9970 -3.2585
 4008TIP3    H233440   1.947   1.714  16.334  1.7107 -0.3644 -0.9994
 4009TIP3   OH233441   0.971   0.611   0.940 -0.5876  0.0491 -0.0913
 4009TIP3    H133442   0.940   0.591   0.851  0.9876  2.4503 -1.2359
 4009TIP3    H233443   0.898   0.659   0.980 -0.9154 -0.1432 -0.4558
 4010TIP3   OH233444   2.539   5.336   7.014  0.4659 -0.3448  0.3985
 4010TIP3    H133445   2.484   5.285   7.073 -0.0877  0.4070  0.5435
 4010TIP3    H233446   2.542   5.285   6.933 -2.5883  0.7910 -0.5286
 4011TIP3   OH233447   5.468   3.884  15.371 -0.0425  0.1470  0.2284
 4011TIP3    H133448   5.416   3.919  15.299 -0.6466  1.3188  1.2000
 4011TIP3    H233449   5.451   3.944  15.444  1.3263 -0.4432  1.0599
 4012TIP3   OH233450   6.549   3.012  11.795  0.6985  0.4058 -0.3693
 4012TIP3    H133451   6.545   2.999  11.890 -0.0996 -0.0682 -0.4649
 4012TIP3    H233452   6.541   2.924  11.759 -2.7375  0.9051 -0.9639
 4013TIP3   OH233453   6.306   4.417   3.769 -0.3213 -0.1084 -0.0633
 4013TIP3    H133454   6.211   4.407   3.759 -0.3851 -0.4951  0.8822
 4013TIP3    H233455   6.331   4.347   3.829  0.5140  0.2299 -0.0153
 4014TIP3   OH233456   0.600   5.765  14.415 -0.6438 -0.7645 -0.2813
 4014TIP3    H133457   0.581   5.680  14.455  0.9727 -0.7461  0.5668
 4014TIP3    H233458   0.690   5.784  14.441 -0.8013  0.9476 -0.9402
 4015TIP3   OH233459   6.770   2.553  12.436 -0.1312 -0.3559 -0.7234
 4015TIP3    H133460   6.750   2.488  12.504 -0.9242  0.0011 -0.6021
 4015TIP3    H233461   6.856   2.529  12.403  1.3511  0.8983  2.0852
 4016TIP3   OH233462   0.790   4.067   3.945  0.2579  0.2849  0.0249
 4016TIP3    H133463   0.742   4.071   4.028 -0.0384  1.3772 -0.1832
 4016TIP3    H233464   0.772   4.151   3.903 -1.8901 -1.2990 -2.4189
 4017TIP3   OH233465   2.335   4.466  13.173 -0.4034 -0.7562 -0.6152
 4017TIP3    H133466   2.284   4.448  13.252  1.2488  0.0226  0.6658
 4017TIP3    H233467   2.316   4.392  13.115 -1.2945 -1.5734  0.6802
 4018TIP3   OH233468   0.262   6.024   1.570 -0.0580 -0.0310  0.4970
 4018TIP3    H133469   0.252   6.082   1.495  0.4302 -1.5804 -0.8086
 4018TIP3    H233470   0.340   6.056   1.616 -0.8618  1.4449  0.8285
 4019TIP3   OH233471   6.569   5.994   5.396  0.1714  0.0869 -0.1537
 4019TIP3    H133472   6.630   6.063   5.369 -0.3586  0.6427  0.0600
 4019TIP3    H233473   6.530   5.963   5.315  0.5980 -0.1406 -0.2739
 4020TIP3   OH233474   2.826   2.063  16.298  0.4979  0.3891  0.2869
 4020TIP3    H133475   2.811   2.053  16.204  1.9832  1.7956 -0.1256
 4020TIP3    H233476   2.916   2.094  16.304  0.9491 -1.1880  2.2698
 4021TIP3   OH233477   2.691   3.528   0.241  0.6515  0.7533  0.0093
 4021TIP3    H133478   2.733   3.569   0.166 -0.3969 -0.2329 -1.1409
 4021TIP3    H233479   2.603   3.506   0.211 -0.1943  1.4011  1.8912
 4022TIP3   OH233480   2.389   4.164   4.360  0.4159  0.3946  0.1633
 4022TIP3    H133481   2.413   4.075   4.335 -0.1829  0.3437 -0.2366
 4022TIP3    H233482   2.302   4.177   4.323 -0.6653  0.1870  2.5486
 4023TIP3   OH233483   3.440   6.054  16.597  0.6060  0.0988 -0.2835
 4023TIP3    H133484   3.398   5.982  16.645 -1.3091  0.0956 -1.8443
 4023TIP3    H233485   3.452   6.018  16.508  2.3084  0.7340 -0.3141
 4024TIP3   OH233486   5.188   5.485   5.023 -0.2179  0.0112 -0.0601
 4024TIP3    H133487   5.130   5.409   5.027 -0.0533 -0.2052 -1.7610
 4024TIP3    H233488   5.276   5.448   5.021 -0.1749  0.2064 -2.1210
 4025TIP3   OH233489   2.189   1.785  12.877  0.1979  0.0157  0.3395
 4025TIP3    H133490   2.217   1.870  12.910  1.1692  0.2052 -0.9018
 4025TIP3    H233491   2.101   1.800  12.843  0.3941  0.5567  0.0588
 4026TIP3   OH233492   6.729   6.226   2.231  0.2922 -0.1946  0.6525
 4026TIP3    H133493   6.690   6.225   2.318  0.1092 -3.1415  0.5828
 4026TIP3    H233494   6.819   6.196   2.245  1.1775  2.1123  0.1852
 4027TIP3   OH233495   1.907   5.214  12.757  0.0420  0.0591 -0.2242
 4027TIP3    H133496   1.879   5.274  12.687  0.7893  2.3834  1.4003
 4027TIP3    H233497   1.965   5.267  12.812 -0.7943 -1.6201  2.3522
 4028TIP3   OH233498   1.781   2.979  15.317  0.6331 -0.1861  0.2625
 4028TIP3    H133499   1.758   3.063  15.279  0.7452 -0.3133 -0.0880
 4028TIP3    H233500   1.876   2.984  15.331  0.9107 -0.8601 -1.2783
 4029TIP3   OH233501   1.571   0.912   2.517  0.2131 -0.1636  0.2057
 4029TIP3    H133502   1.649   0.966   2.504  0.9431 -1.1202  0.5178
 4029TIP3    H233503   1.502   0.956   2.468  0.7844  1.0859  0.5134
 4030TIP3   OH233504   5.513   1.249  15.356 -0.4874 -0.4207  0.0140
 4030TIP3    H133505   5.500   1.204  15.439  1.6010 -0.1386  0.5074
 4030TIP3    H233506   5.452   1.323  15.359 -1.7374 -1.4535  0.4895
 4031TIP3   OH233507   4.232   3.283   2.933 -0.0465 -0.4835 -0.2877
 4031TIP3    H133508   4.268   3.322   3.012  0.7840 -1.9172  0.0551
 4031TIP3    H233509   4.299   3.221   2.904 -1.1278 -1.2946 -1.0968
 4032TIP3   OH233510   4.524   5.657   6.385  0.1781 -0.2000 -0.0810
 4032TIP3    H133511   4.453   5.617   6.335 -0.1613  0.3247 -0.0201
 4032TIP3    H233512   4.604   5.632   6.337  0.0103 -1.2560  0.1668
 4033TIP3   OH233513   5.975   3.140   3.322 -0.2466 -0.7829  0.3716
 4033TIP3    H133514   6.038   3.210   3.333  0.8265 -1.7081  0.2071
 4033TIP3    H233515   6.012   3.066   3.369 -1.6512 -1.0724  1.0558
 4034TIP3   OH233516   6.025   3.778   5.202 -0.7230  0.0370  0.8659
 4034TIP3    H133517   6.036   3.791   5.108  2.2609  0.7622  1.2538
 4034TIP3    H233518   5.967   3.848   5.229  0.2144  1.2229 -0.1100
 4035TIP3   OH233519   0.871   6.475   0.811 -0.4073 -0.8141  0.6212
 4035TIP3    H133520   0.949   6.441   0.767 -1.6312 -2.4358 -0.3782
 4035TIP3    H233521   0.890   6.466   0.904  1.6418  1.3091  0.4447
 4036TIP3   OH233522   1.716   4.375  15.937  0.4689  0.2366  0.2589
 4036TIP3    H133523   1.795   4.324  15.953  0.2929  0.5282  2.1361
 4036TIP3    H233524   1.727   4.410  15.848  1.4412 -1.5027 -0.3081
 4037TIP3   OH233525   1.999   4.699   3.815  0.4124  0.5874  0.0195
 4037TIP3    H133526   1.961   4.787   3.806 -0.6404  0.1367  0.0740
 4037TIP3    H233527   1.952   4.660   3.889 -0.5524 -0.7730 -1.3067
 4038TIP3   OH233528   1.535   4.434  14.341 -0.3680  0.4479 -0.3798
 4038TIP3    H133529   1.535   4.423  14.436 -0.3827  1.6942 -0.2273
 4038TIP3    H233530   1.491   4.355  14.308  2.3265 -1.4517  0.4486
 4039TIP3   OH233531   3.460   4.409   2.683 -0.1857 -0.6089  0.8368
 4039TIP3    H133532   3.529   4.344   2.667 -0.3849 -0.6517  0.1330
 4039TIP3    H233533   3.507   4.487   2.710  0.3256  0.0674 -1.8465
 4040TIP3   OH233534   2.180   0.827  14.381  0.6278 -0.7286 -0.1609
 4040TIP3    H133535   2.150   0.811  14.292  0.3679 -0.5379 -0.1075
 4040TIP3    H233536   2.111   0.879  14.421  1.8871  1.3354 -0.6220
 4041TIP3   OH233537   0.232   0.486  16.544  0.7669  0.1731  0.2707
 4041TIP3    H133538   0.184   0.405  16.523  1.0657  0.3848 -1.2908
 4041TIP3    H233539   0.180   0.556  16.504  0.2084  0.8260  2.1049
 4042TIP3   OH233540   3.832   6.394   0.989  0.3960 -0.1781  0.3037
 4042TIP3    H133541   3.883   6.452   1.045  1.8356  0.1865 -1.3404
 4042TIP3    H233542   3.885   6.384   0.910 -1.4985 -0.8231 -0.9242
 4043TIP3   OH233543   5.467   2.808  13.400 -0.3667 -0.0548  0.1337
 4043TIP3    H133544   5.539   2.822  13.462  0.1973  0.2451 -0.5839
 4043TIP3    H233545   5.401   2.873  13.425 -0.6780 -0.7843  1.2235
 4044TIP3   OH233546   2.271   6.527  11.278 -0.1398 -0.7832 -0.2099
 4044TIP3    H133547   2.231   6.472  11.211 -0.7152 -0.9534  0.2707
 4044TIP3    H233548   2.278   6.470  11.354  0.2416 -0.4996 -0.0333
 4045TIP3   OH233549   1.601   1.745   3.827 -0.3022  0.2175 -0.5610
 4045TIP3    H133550   1.564   1.790   3.751 -0.9360  0.2693 -0.2293
 4045TIP3    H233551   1.527   1.737   3.888  0.2849  0.5103  0.2006
 4046TIP3   OH233552   6.446   6.140  16.523  0.3322  0.5323 -0.5392
 4046TIP3    H133553   6.410   6.052  16.509  1.3201 -0.2211  1.4729
 4046TIP3    H233554   6.541   6.127  16.521  0.5046  1.0219  2.7076
 4047TIP3   OH233555   6.424   1.536   5.641  0.2190  0.3072  0.3093
 4047TIP3    H133556   6.502   1.499   5.682 -0.0049  0.6698  1.0771
 4047TIP3    H233557   6.367   1.560   5.715  0.1395  1.6775 -0.1884
 4048TIP3   OH233558   1.213   3.818   2.838  0.5092  1.3012  0.6406
 4048TIP3    H133559   1.154   3.745   2.818  3.2731 -0.9581  0.3895
 4048TIP3    H233560   1.210   3.874   2.760 -1.8309  1.6049  0.9379
 4049TIP3   OH233561   0.483   2.498  15.006 -0.4162 -0.1146  0.6211
 4049TIP3    H133562   0.408   2.480  15.063 -0.9951  0.2907 -0.0069
 4049TIP3    H233563   0.476   2.431  14.937 -1.3088  1.0974 -0.4950
 4050TIP3   OH233564   3.286   2.733   0.099  0.0974  0.9344 -0.3002
 4050TIP3    H133565   3.207   2.757   0.052  0.1970 -0.0779 -0.9937
 4050TIP3    H233566   3.262   2.742   0.192 -1.0075  0.0574 -0.4928
 4051TIP3   OH233567   2.700   6.269  15.177  0.1562  0.0473 -0.0485
 4051TIP3    H133568   2.695   6.243  15.085  0.4936  1.5594 -0.5092
 4051TIP3    H233569   2.668   6.193  15.226 -1.0993 -0.3561 -1.4773
 4052TIP3   OH233570   2.343   0.185  12.091  0.3941 -0.1596 -1.0798
 4052TIP3    H133571   2.317   0.191  12.183  1.5268  1.6116 -0.8463
 4052TIP3    H233572   2.334   0.092  12.070 -0.5502 -0.4762  0.6172
 4053TIP3   OH233573   4.736   6.236  12.830  0.3990 -0.5316 -0.0816
 4053TIP3    H133574   4.759   6.146  12.855 -0.0922 -0.3831  0.9322
 4053TIP3    H233575   4.758   6.288  12.908 -2.2277 -0.2064  0.4749
 4054TIP3   OH233576   5.297   1.705  14.435  0.8987 -0.1125 -0.1552
 4054TIP3    H133577   5.283   1.666  14.349 -0.5375 -0.0128  0.0302
 4054TIP3    H233578   5.270   1.638  14.497 -0.4616  0.7317  0.1806
 4055TIP3   OH233579   2.145   2.472   6.577  0.5089  0.2789  0.0684
 4055TIP3    H133580   2.120   2.379   6.574  0.6367  0.2884 -4.0185
 4055TIP3    H233581   2.087   2.510   6.642  0.3179 -2.6383  1.6786
 4056TIP3   OH233582   4.429   2.218   6.527 -0.1029 -0.1063 -1.0278
 4056TIP3    H133583   4.439   2.312   6.538  0.6348 -0.2808 -0.1387
 4056TIP3    H233584   4.451   2.202   6.435 -0.2926  0.5870 -1.1967
 4057TIP3   OH233585   1.269   3.007   2.151 -0.0066  0.0159  0.4257
 4057TIP3    H133586   1.293   2.945   2.082  0.7408 -0.0624  0.7544
 4057TIP3    H233587   1.348   3.016   2.204 -0.4417  0.4190  1.0133
 4058TIP3   OH233588   4.169   5.040  12.650  0.2923  0.1946 -0.2070
 4058TIP3    H133589   4.242   5.004  12.700 -0.1592  0.0442  0.3418
 4058TIP3    H233590   4.210   5.073  12.569  0.8086 -0.8736 -0.3914
 4059TIP3   OH233591   4.300   3.852   2.063 -0.4633  0.6687  0.6045
 4059TIP3    H133592   4.285   3.912   1.990 -1.8540  0.4029  0.6600
 4059TIP3    H233593   4.220   3.857   2.115  0.4552  0.7659  2.0551
 4060TIP3   OH233594   1.419   6.685   0.874  0.1087 -0.3928  0.1696
 4060TIP3    H133595   1.418   6.688   0.969 -0.8217  0.8345  0.1296
 4060TIP3    H233596   1.507   6.715   0.850  0.3564 -0.7387  0.6414
 4061TIP3   OH233597   3.996   2.484   1.393 -0.5450 -0.5990  0.6263
 4061TIP3    H133598   4.002   2.575   1.422 -1.3355 -0.0820 -0.7795
 4061TIP3    H233599   3.927   2.447   1.448  1.7080 -1.1794  3.1945
 4062TIP3   OH233600   6.765   3.577  13.317 -0.2416 -0.0550  0.1031
 4062TIP3    H133601   6.784   3.484  13.331  1.6047  0.3370  0.3711
 4062TIP3    H233602   6.850   3.615  13.297 -1.2669  1.2619 -1.8284
 4063TIP3   OH233603   1.099   6.241  13.052 -0.1611 -0.1173  0.2588
 4063TIP3    H133604   1.109   6.330  13.088  0.0223 -0.0937  0.1442
 4063TIP3    H233605   1.071   6.255  12.962 -0.2881 -0.1784  0.2878
 4064TIP3   OH233606   2.320   6.695   4.393  0.1775 -0.0502 -0.1628
 4064TIP3    H133607   2.278   6.697   4.479 -1.2640 -1.2812 -0.8125
 4064TIP3    H233608   2.397   6.640   4.405 -0.2316 -0.5408  0.2648
 4065TIP3   OH233609   4.542   0.161   1.610  0.6221  0.6258 -0.0745
 4065TIP3    H133610   4.527   0.072   1.578  0.4581  0.5080  0.3242
 4065TIP3    H233611   4.537   0.153   1.706  1.4804  0.9015 -0.0032
 4066TIP3   OH233612   5.207   3.150  13.996 -0.0798  0.1902  0.2864
 4066TIP3    H133613   5.253   3.070  13.969  1.9357  0.5253  2.5321
 4066TIP3    H233614   5.266   3.220  13.969 -1.4759  0.9140 -0.9477
 4067TIP3   OH233615   2.125   1.564  13.967 -0.0825  0.1362 -0.3587
 4067TIP3    H133616   2.122   1.487  13.909 -4.8937 -1.2462  1.4702
 4067TIP3    H233617   2.119   1.528  14.055  2.2545  2.4574  0.8006
 4068TIP3   OH233618   1.299   6.176  12.665 -0.4030 -0.4164 -0.1468
 4068TIP3    H133619   1.372   6.154  12.607 -0.4991  0.9449 -0.8024
 4068TIP3    H233620   1.229   6.115  12.640 -0.4224  0.1107 -1.4278
 4069TIP3   OH233621   4.321   1.873   4.838  0.0762 -0.1770  0.0913
 4069TIP3    H133622   4.390   1.939   4.847  1.4417 -0.9255 -3.8541
 4069TIP3    H233623   4.252   1.917   4.788 -0.7309 -0.5476  0.8702
 4070TIP3   OH233624   3.660   1.243  11.554 -0.1567 -0.4547 -0.3663
 4070TIP3    H133625   3.696   1.200  11.476  0.2348 -0.5484 -0.1317
 4070TIP3    H233626   3.703   1.200  11.628  0.9151  0.9419 -0.1508
 4071TIP3   OH233627   6.554   0.523  14.657 -0.3292  0.4330 -0.2876
 4071TIP3    H133628   6.486   0.521  14.589 -1.7901  0.4958  1.1347
 4071TIP3    H233629   6.511   0.565  14.732  1.7545  1.8439  0.1587
 4072TIP3   OH233630   5.621   3.107  12.878 -0.5965  0.0114  0.2167
 4072TIP3    H133631   5.670   3.158  12.943  1.1875 -0.9789 -0.3182
 4072TIP3    H233632   5.560   3.170  12.839  1.7694  1.8557 -0.6495
 4073TIP3   OH233633   4.619   3.033  11.749 -0.2227 -0.1606 -0.7820
 4073TIP3    H133634   4.666   2.950  11.748  1.7410  0.8824  0.8369
 4073TIP3    H233635   4.526   3.008  11.756  0.4931 -2.2180  2.7696
 4074TIP3   OH233636   4.231   3.209   3.727 -0.3716  0.2863  0.1483
 4074TIP3    H133637   4.174   3.229   3.652 -1.9870 -0.3220  1.1896
 4074TIP3    H233638   4.187   3.248   3.802  1.2031  0.8152  0.8171
 4075TIP3   OH233639   5.050   0.657   0.350  0.2690  0.2442  0.1807
 4075TIP3    H133640   5.015   0.722   0.411  0.2769 -0.0174  0.4693
 4075TIP3    H233641   5.026   0.689   0.263  1.6625  1.4440  0.2291
 4076TIP3   OH233642   3.848   5.640   4.152 -0.1225  0.0652 -0.7199
 4076TIP3    H133643   3.876   5.549   4.144 -0.6210  0.1112 -3.5194
 4076TIP3    H233644   3.929   5.689   4.162  0.0283 -0.8504  3.2965
 4077TIP3   OH233645   6.696   3.215  12.809  0.0558 -0.0358 -0.3787
 4077TIP3    H133646   6.749   3.187  12.884  0.8151  1.2491 -0.4172
 4077TIP3    H233647   6.634   3.278  12.845 -0.0124  0.0865 -0.7056
 4078TIP3   OH233648   2.143   2.891  11.856  0.0515  0.2024  0.6223
 4078TIP3    H133649   2.077   2.904  11.924  0.1685 -0.7947  0.9246
 4078TIP3    H233650   2.225   2.919  11.896  0.2295 -0.9974  1.1268
 4079TIP3   OH233651   0.231   1.106  12.354 -0.2121 -1.1493 -0.2166
 4079TIP3    H133652   0.202   1.161  12.427 -1.0995 -1.4373 -0.3568
 4079TIP3    H233653   0.295   1.046  12.393 -0.3873 -1.0377  0.2404
 4080TIP3   OH233654   3.100   2.443   1.088 -0.5823 -1.1718  0.3521
 4080TIP3    H133655   3.117   2.430   0.995 -1.3131 -1.3923  0.2464
 4080TIP3    H233656   3.129   2.362   1.129  0.9269 -0.5712  0.4673
 4081TIP3   OH233657   3.328   2.270   5.223  0.6796  0.4690 -0.0739
 4081TIP3    H133658   3.325   2.355   5.180 -2.1292  0.3162 -0.3086
 4081TIP3    H233659   3.258   2.219   5.182  1.2229 -1.3985  1.2053
 4082TIP3   OH233660   3.771   3.374   1.521 -0.2396  0.0486  0.1883
 4082TIP3    H133661   3.857   3.350   1.556  0.2822 -0.0810 -1.1483
 4082TIP3    H233662   3.730   3.290   1.500 -1.1925  0.0443  1.9199
 4083TIP3   OH233663   0.716   3.319   6.167 -0.5952  0.0607 -0.1247
 4083TIP3    H133664   0.794   3.266   6.182 -0.8345 -0.3602 -0.3094
 4083TIP3    H233665   0.724   3.393   6.226 -0.2572 -0.1941  0.1497
 4084TIP3   OH233666   2.372   4.196  14.708  0.2993  0.2464  0.5918
 4084TIP3    H133667   2.300   4.147  14.747 -1.1030  2.6592  1.0985
 4084TIP3    H233668   2.349   4.201  14.615  1.2390 -1.3848  0.2592
 4085TIP3   OH233669   2.034   6.655   5.152  0.2215 -0.2527  0.3617
 4085TIP3    H133670   2.018   6.587   5.217  0.8612 -0.2970  0.4715
 4085TIP3    H233671   1.949   6.696   5.139  0.2023  0.1252  1.6410
 4086TIP3   OH233672   2.461   6.236  12.333  0.1398 -0.0975 -0.2543
 4086TIP3    H133673   2.553   6.212  12.318  0.1528 -0.8537  0.9856
 4086TIP3    H233674   2.461   6.277  12.419 -0.4854  1.1083 -0.8126
 4087TIP3   OH233675   5.480   4.949  13.708 -0.2111  0.0367  0.0821
 4087TIP3    H133676   5.474   4.881  13.775  1.3188 -0.4697 -0.2730
 4087TIP3    H233677   5.443   4.908  13.630 -1.6733  0.5080  0.5117
 4088TIP3   OH233678   2.202   0.320  15.998  0.3160  0.4527 -0.7719
 4088TIP3    H133679   2.258   0.249  15.965  1.4844  0.8720  0.3030
 4088TIP3    H233680   2.219   0.393  15.939  2.1643  1.1011  0.5424
 4089TIP3   OH233681   6.091   4.278  11.468 -0.4361 -0.0099 -0.5532
 4089TIP3    H133682   6.113   4.357  11.419  0.5917  0.6532  0.9191
 4089TIP3    H233683   6.151   4.211  11.435 -0.5729  0.1117 -1.0472
 4090TIP3   OH233684   0.397   0.635   0.726 -0.0845 -0.1790 -0.2913
 4090TIP3    H133685   0.397   0.633   0.822  1.5986  0.1664 -0.2763
 4090TIP3    H233686   0.386   0.727   0.703  2.8584  0.2121 -0.3709
 4091TIP3   OH233687   4.778   3.513  15.091 -0.3160 -0.2294 -0.1447
 4091TIP3    H133688   4.701   3.538  15.143  0.1869 -0.5344  0.7748
 4091TIP3    H233689   4.748   3.440  15.037 -0.9313  0.2861 -0.4953
 4092TIP3   OH233690   4.443   4.771  14.571 -0.2817 -0.2430  0.4128
 4092TIP3    H133691   4.478   4.782  14.482 -0.7150 -0.4092  0.2195
 4092TIP3    H233692   4.412   4.858  14.595 -1.1300 -0.4258 -0.0118
 4093TIP3   OH233693   2.747   4.453   1.676  0.0320  0.2609 -0.0133
 4093TIP3    H133694   2.834   4.439   1.638  0.0971 -0.3977  0.3637
 4093TIP3    H233695   2.756   4.422   1.766 -0.6730 -0.0820 -0.0611
 4094TIP3   OH233696   6.768   6.170   1.198  0.1629  0.0565  0.4951
 4094TIP3    H133697   6.848   6.125   1.173  0.2418  0.6015 -0.2595
 4094TIP3    H233698   6.789   6.215   1.280  0.8053  0.6895 -0.0185
 4095TIP3   OH233699   5.801   5.056   2.900 -0.8172  0.0840  0.2413
 4095TIP3    H133700   5.836   5.145   2.895  1.3927 -0.8184 -1.5736
 4095TIP3    H233701   5.728   5.056   2.838 -1.0126  0.6954  0.4631
 4096TIP3   OH233702   5.178   1.080   2.929  0.2819  0.4226  0.6971
 4096TIP3    H133703   5.148   1.052   2.842  0.6705 -0.4453  0.8338
 4096TIP3    H233704   5.141   1.167   2.940 -0.2587  0.3028 -0.0981
 4097TIP3   OH233705   0.897   2.896   2.434  0.2033 -0.2851 -0.7282
 4097TIP3    H133706   0.920   2.988   2.423  2.5272 -0.4312  2.3247
 4097TIP3    H233707   0.954   2.850   2.372  3.3534 -0.0702  1.8937
 4098TIP3   OH233708   1.970   2.846  11.601 -0.3259  0.1329  0.6670
 4098TIP3    H133709   1.978   2.751  11.614 -0.1166 -0.2143 -1.7280
 4098TIP3    H233710   2.012   2.884  11.677  0.2772 -1.7080  1.2925
 4099TIP3   OH233711   6.469   1.869  14.173 -0.1751  0.4945 -0.4472
 4099TIP3    H133712   6.480   1.777  14.146 -0.6146  0.1218  0.6302
 4099TIP3    H233713   6.376   1.876  14.193  0.4669  0.2881  2.7481
 4100TIP3   OH233714   3.554   1.541  13.739  0.0126  0.2921  0.1622
 4100TIP3    H133715   3.532   1.593  13.816 -2.0108  1.7858 -1.3649
 4100TIP3    H233716   3.490   1.469  13.740 -0.6497  0.8587 -0.6229
 4101TIP3   OH233717   2.889   5.838  16.393 -0.0901  0.1036 -0.1239
 4101TIP3    H133718   2.961   5.810  16.335  0.8344 -0.0235  1.0759
 4101TIP3    H233719   2.848   5.756  16.420 -0.0123  0.1225  0.0507
 4102TIP3   OH233720   2.036   5.825   1.418 -0.1180  0.0709 -0.5551
 4102TIP3    H133721   2.051   5.761   1.349  0.2393  0.6290 -0.9997
 4102TIP3    H233722   2.088   5.794   1.492  0.0331 -0.1646 -0.7610
 4103TIP3   OH233723   3.536   2.326  13.552  0.4151  0.6048 -0.1215
 4103TIP3    H133724   3.540   2.278  13.635  1.7698  1.0034  0.0599
 4103TIP3    H233725   3.610   2.291  13.502 -0.0825  0.7460 -0.9604
 4104TIP3   OH233726   1.372   5.274   1.248  0.1486 -0.2194  0.1238
 4104TIP3    H133727   1.332   5.189   1.268  0.6354 -1.0901 -2.3843
 4104TIP3    H233728   1.464   5.254   1.233  0.2036  0.6962 -0.8055
 4105TIP3   OH233729   4.424   6.299  17.228  0.2971 -0.3972  0.5664
 4105TIP3    H133730   4.350   6.331  17.176  0.3801  0.8889  1.2098
 4105TIP3    H233731   4.497   6.294  17.165  0.9264  3.0737  0.8947
 4106TIP3   OH233732   2.765   0.114  17.169 -0.0049 -0.0377  0.5573
 4106TIP3    H133733   2.747   0.047  17.235  0.0281 -0.7449 -0.1442
 4106TIP3    H233734   2.679   0.131  17.129 -0.0740  0.5899  0.9635
 4107TIP3   OH233735   3.228   0.510   0.594 -1.0429  0.3984  0.6852
 4107TIP3    H133736   3.138   0.480   0.605 -1.6196  2.5405  1.9960
 4107TIP3    H233737   3.230   0.596   0.634  1.6142  0.3794  0.6828
 4108TIP3   OH233738   5.736   1.104   3.982 -0.0039  0.1791  0.6850
 4108TIP3    H133739   5.758   1.162   4.055  0.6033 -1.4317  1.8041
 4108TIP3    H233740   5.707   1.023   4.023 -0.8013 -0.3517 -0.8635
 4109TIP3   OH233741   3.324   1.542   3.130 -0.1926  0.0291  0.3629
 4109TIP3    H133742   3.360   1.622   3.168 -0.2723  0.5880 -0.6863
 4109TIP3    H233743   3.306   1.566   3.039 -2.6027 -0.4109  0.6827
 4110TIP3   OH233744   4.678   6.513  16.838  0.0660 -0.1450  0.4277
 4110TIP3    H133745   4.668   6.585  16.776 -1.8110  0.9390  1.9600
 4110TIP3    H233746   4.767   6.523  16.872  0.0624  1.0044  0.0978
 4111TIP3   OH233747   1.259   2.660  12.871 -0.3097 -0.1169 -0.4594
 4111TIP3    H133748   1.198   2.732  12.887 -0.7994 -0.2595 -1.6914
 4111TIP3    H233749   1.204   2.583  12.864  0.0962 -0.3942 -0.6101
 4112TIP3   OH233750   0.008   2.866  16.329  0.5116  0.0360 -0.2216
 4112TIP3    H133751  -0.083   2.888  16.312  0.7427  1.1117 -0.0568
 4112TIP3    H233752   0.014   2.860  16.424  0.5300 -0.4269 -0.2475
 4113TIP3   OH233753   2.435   0.521   4.299 -0.0496 -0.3498 -0.4701
 4113TIP3    H133754   2.481   0.447   4.338 -1.1300 -0.4666  0.6366
 4113TIP3    H233755   2.499   0.592   4.297  0.9163 -1.2385 -1.3042
 4114TIP3   OH233756   4.386   2.687  11.436  0.0391 -0.0078 -0.6902
 4114TIP3    H133757   4.344   2.773  11.430  0.6933  0.3846  0.3515
 4114TIP3    H233758   4.315   2.628  11.462  0.0328  0.5760  0.6229
 4115TIP3   OH233759   0.323   3.602   4.576  0.2490  0.1061  0.4636
 4115TIP3    H133760   0.286   3.603   4.488 -1.2147  0.5855  1.0729
 4115TIP3    H233761   0.316   3.511   4.604 -1.1415  0.3246  0.8487
 4116TIP3   OH233762   1.635   0.345  16.773  0.6711  0.3698 -0.4275
 4116TIP3    H133763   1.703   0.406  16.745  0.1879  1.3578  0.4865
 4116TIP3    H233764   1.631   0.279  16.704  1.0815  1.4723 -1.5121
 4117TIP3   OH233765   2.261   2.451   5.301  0.5325  0.4183  0.2465
 4117TIP3    H133766   2.201   2.379   5.282  1.4374 -0.5259  0.9082
 4117TIP3    H233767   2.213   2.508   5.361 -0.3520  0.6247 -0.6322
 4118TIP3   OH233768   3.756   1.771  11.628 -0.0403  0.2654  0.8663
 4118TIP3    H133769   3.850   1.782  11.643  0.4927 -1.0624 -1.3843
 4118TIP3    H233770   3.746   1.774  11.533 -2.2690  0.3096  1.0793
 4119TIP3   OH233771   1.349   5.007  17.165  0.1672  0.4779 -0.2999
 4119TIP3    H133772   1.369   5.092  17.204 -0.4930  0.5862 -0.1888
 4119TIP3    H233773   1.366   4.944  17.236  1.7795  0.4062 -0.7404
 4120TIP3   OH233774   3.146   3.169  14.893  0.4488 -0.1320  0.2162
 4120TIP3    H133775   3.168   3.173  14.801 -1.4397 -0.2872 -0.2765
 4120TIP3    H233776   3.051   3.154  14.894  0.6245 -1.3717  2.1592
 4121TIP3   OH233777   5.331   1.108  13.151  0.0215 -0.2162 -0.3993
 4121TIP3    H133778   5.350   1.025  13.108 -0.9952 -0.4180 -0.4732
 4121TIP3    H233779   5.236   1.107  13.165  0.0926  0.6338  0.2135
 4122TIP3   OH233780   6.418   6.702  13.978 -0.0260  0.2495 -0.1374
 4122TIP3    H133781   6.473   6.776  14.003 -0.9580  0.5629  1.0794
 4122TIP3    H233782   6.356   6.693  14.051 -0.1505 -1.5054 -0.4426
 4123TIP3   OH233783   3.304   0.610   0.355  0.0949  0.6554 -0.1931
 4123TIP3    H133784   3.285   0.592   0.447 -0.0367  0.5248 -0.2470
 4123TIP3    H233785   3.273   0.533   0.308  1.5570  0.0399 -0.1864
 4124TIP3   OH233786   0.093   4.376  12.699 -0.4261  0.2190 -0.5644
 4124TIP3    H133787   0.052   4.462  12.713 -0.0302  0.6581 -2.0743
 4124TIP3    H233788   0.053   4.344  12.619 -0.1958 -0.7961 -0.2747
 4125TIP3   OH233789   6.523   2.743  11.723  0.6337 -0.1188 -0.0955
 4125TIP3    H133790   6.453   2.682  11.747  0.6390 -0.2880 -0.5083
 4125TIP3    H233791   6.549   2.716  11.634  0.1188  0.9547 -0.5753
 4126TIP3   OH233792   3.829   0.246   6.253 -0.3460  0.0848  0.3771
 4126TIP3    H133793   3.795   0.253   6.164 -0.3870  1.7650  0.5074
 4126TIP3    H233794   3.924   0.257   6.244 -0.4108  0.8782  0.5953
 4127TIP3   OH233795   0.703   1.522   1.049 -0.5359 -0.1965  0.3950
 4127TIP3    H133796   0.749   1.501   1.130  0.7831 -2.4952 -0.9229
 4127TIP3    H233797   0.725   1.451   0.989 -0.4346  2.1144 -2.4155
 4128TIP3   OH233798   5.379   6.045   1.554 -0.6142 -0.7572  0.6496
 4128TIP3    H133799   5.326   6.065   1.476 -0.7485 -0.6204  0.7766
 4128TIP3    H233800   5.468   6.065   1.527 -0.4951 -2.0081  0.0839
 4129TIP3   OH233801   6.609   3.528   3.963  0.7459 -0.1600 -0.4245
 4129TIP3    H133802   6.583   3.620   3.965 -0.2238 -0.4390  1.1751
 4129TIP3    H233803   6.647   3.515   3.877 -1.0290  1.2119 -1.4404
 4130TIP3   OH233804   5.194   5.358  15.387 -0.5397 -0.1687 -0.0718
 4130TIP3    H133805   5.209   5.310  15.305  0.9682  0.8883 -0.4339
 4130TIP3    H233806   5.145   5.436  15.361  1.0430  0.8136 -0.1820
 4131TIP3   OH233807   4.002   5.584  11.398 -0.0912  0.0564 -0.6036
 4131TIP3    H133808   3.940   5.640  11.352  0.2474  0.4200 -0.6280
 4131TIP3    H233809   4.056   5.645  11.448 -0.1650 -0.3040 -0.0797
 4132TIP3   OH233810   2.654   5.503   5.363  0.5262 -0.4215 -0.2672
 4132TIP3    H133811   2.585   5.503   5.430  1.3836  0.1040  0.6286
 4132TIP3    H233812   2.725   5.451   5.401  1.3852  0.6605 -0.3686
 4133TIP3   OH233813   6.443   5.160   4.417  0.6034 -0.0425  0.2691
 4133TIP3    H133814   6.438   5.077   4.464  1.7457 -1.3337 -1.8107
 4133TIP3    H233815   6.378   5.151   4.347  1.7979  0.1947 -0.8859
 4134TIP3   OH233816   6.027   4.554   2.809 -0.6148  0.5285 -0.0472
 4134TIP3    H133817   5.941   4.543   2.849  0.1514 -1.2746  1.1432
 4134TIP3    H233818   6.010   4.611   2.733 -2.8537  0.1645  0.1282
 4135TIP3   OH233819   1.174   3.959  12.291  0.3003  0.2411  0.4182
 4135TIP3    H133820   1.269   3.967  12.304  0.2652  0.9223  0.2758
 4135TIP3    H233821   1.141   4.047  12.304 -0.1550  0.2650 -0.8261
 4136TIP3   OH233822   1.712   1.232   2.706  0.9506 -0.4948  0.4731
 4136TIP3    H133823   1.776   1.277   2.651  1.4473 -1.0731  0.5746
 4136TIP3    H233824   1.724   1.139   2.686  0.0270 -0.5991  0.3693
 4137TIP3   OH233825   5.848   6.031  10.899 -0.0069  0.6324 -0.2301
 4137TIP3    H133826   5.801   6.097  10.849  2.3147  2.7884  0.3004
 4137TIP3    H233827   5.936   6.030  10.861  1.8257  2.2929  3.6270
 4138TIP3   OH233828   5.084   2.194  10.401  0.4944 -0.2294  0.4856
 4138TIP3    H133829   5.080   2.104  10.433 -0.6171 -0.9473 -1.5731
 4138TIP3    H233830   5.153   2.192  10.334 -0.6630  0.0522 -0.7275
 4139TIP3   OH233831   4.616   4.797  15.357  0.1290  0.2648 -0.2198
 4139TIP3    H133832   4.522   4.793  15.372 -0.0687  0.2645 -1.4522
 4139TIP3    H233833   4.625   4.827  15.267  1.2910 -1.6419 -0.7667
 4140TIP3   OH233834   4.726   2.322   5.974  0.6145  0.4577 -1.2053
 4140TIP3    H133835   4.690   2.286   5.894  0.3818 -0.8480 -0.5261
 4140TIP3    H233836   4.702   2.259   6.042  2.6373  0.4425 -0.4595
 4141TIP3   OH233837   0.886   1.044  15.486 -0.2424 -0.0422  0.1748
 4141TIP3    H133838   0.890   1.014  15.395 -1.1106 -0.8442  0.3901
 4141TIP3    H233839   0.945   1.119  15.489  2.2958 -1.9142 -0.3017
 4142TIP3   OH233840   4.980   3.280  15.398  0.2907 -0.1559  0.2082
 4142TIP3    H133841   4.952   3.348  15.459 -2.5864 -1.6763  0.6381
 4142TIP3    H233842   5.015   3.211  15.454 -2.0186 -1.3998  0.1774
 4143TIP3   OH233843   4.449   2.183   5.110  0.1905  0.4702 -0.0620
 4143TIP3    H133844   4.468   2.144   5.024  0.8124 -1.8839  1.1034
 4143TIP3    H233845   4.536   2.199   5.148 -0.0897  0.7016  0.4815
 4144TIP3   OH233846   6.614   0.220   1.855 -0.2303 -0.1252  0.4609
 4144TIP3    H133847   6.657   0.204   1.772  0.6293 -0.3696  0.9531
 4144TIP3    H233848   6.548   0.287   1.835 -1.3581 -1.6001 -0.8122
 4145TIP3   OH233849   6.709   3.616   0.313 -0.3692  0.1898 -0.8422
 4145TIP3    H133850   6.797   3.640   0.285 -0.0875  0.8216  0.5452
 4145TIP3    H233851   6.663   3.594   0.232  0.8522  0.5482 -1.6425
 4146TIP3   OH233852   4.692   6.340  14.400  0.9343 -0.5626  0.0705
 4146TIP3    H133853   4.698   6.428  14.437 -0.7072  0.2699 -1.5426
 4146TIP3    H233854   4.657   6.286  14.470 -2.2707  1.0068 -0.2075
 4147TIP3   OH233855   6.069   0.762   4.156 -0.1224 -0.4763 -0.3122
 4147TIP3    H133856   6.083   0.856   4.170 -0.4532 -0.1493 -2.0382
 4147TIP3    H233857   6.017   0.734   4.231 -1.8699  1.1927 -0.8592
 4148TIP3   OH233858   4.506   3.744   4.471  0.1019 -0.0513 -0.1925
 4148TIP3    H133859   4.598   3.732   4.493  0.5746  0.1791 -1.9646
 4148TIP3    H233860   4.495   3.697   4.388  0.2491  5.4134 -3.5295
 4149TIP3   OH233861   0.936   0.930  14.872  0.0049  0.2622 -0.0198
 4149TIP3    H133862   0.882   0.981  14.933  0.4471  0.5158  0.1669
 4149TIP3    H233863   1.024   0.936  14.909  0.3204  0.6286 -0.8253
 4150TIP3   OH233864   4.585   0.991  15.602 -0.2451  0.4452 -0.0652
 4150TIP3    H133865   4.603   1.001  15.695  1.3415 -3.3305  0.1416
 4150TIP3    H233866   4.490   1.003  15.594 -0.3580  1.0238  1.9863
 4151TIP3   OH233867   5.523   1.252  14.902  0.8455 -0.0138  0.6631
 4151TIP3    H133868   5.480   1.167  14.905  1.3965 -0.3165  0.0445
 4151TIP3    H233869   5.567   1.254  14.818  2.5749  0.0185  1.5435
 4152TIP3   OH233870   6.490   4.193  14.711 -0.8135  0.3090 -0.2887
 4152TIP3    H133871   6.549   4.123  14.740 -0.9919 -0.4369 -1.6541
 4152TIP3    H233872   6.537   4.237  14.641 -1.4464  0.3804 -0.6763
 4153TIP3   OH233873   0.598   4.615  11.816  0.2745  0.0653 -0.2243
 4153TIP3    H133874   0.649   4.536  11.798 -0.0299  0.2726 -2.1005
 4153TIP3    H233875   0.632   4.646  11.900  3.0297 -0.0161 -1.2332
 4154TIP3   OH233876   4.938   4.153  16.051  0.4014 -0.1341 -0.1427
 4154TIP3    H133877   4.865   4.102  16.086  1.2259 -0.1438  1.5986
 4154TIP3    H233878   4.897   4.216  15.991 -0.9011 -0.9853 -0.1550
 4155TIP3   OH233879   4.809   1.267   2.842  0.5164  0.0328 -0.5422
 4155TIP3    H133880   4.842   1.193   2.792 -1.2336  0.9499 -3.2367
 4155TIP3    H233881   4.860   1.342   2.810 -0.0898  0.5134 -0.4009
 4156TIP3   OH233882   3.126   1.201  12.948  0.1899  0.0776 -0.0324
 4156TIP3    H133883   3.051   1.244  12.906  0.1509 -1.2185 -1.3597
 4156TIP3    H233884   3.196   1.266  12.945 -0.9571  1.4234  1.5182
 4157TIP3   OH233885   2.217   1.937   4.368 -0.2175 -0.1560 -0.6645
 4157TIP3    H133886   2.289   1.956   4.308 -0.1004  0.1276 -0.4344
 4157TIP3    H233887   2.260   1.904   4.447 -0.1693  2.4723  0.4499
 4158TIP3   OH233888   3.351   6.582  11.421 -0.3461  0.3997 -0.0547
 4158TIP3    H133889   3.301   6.546  11.347 -0.0425 -0.6968  0.2771
 4158TIP3    H233890   3.285   6.625  11.475 -0.8479 -0.4498  0.0201
 4159TIP3   OH233891   3.321   1.596  16.312 -0.8938  0.2618 -0.5465
 4159TIP3    H133892   3.324   1.537  16.387 -0.5096  1.3163  0.2780
 4159TIP3    H233893   3.247   1.565  16.260 -0.1161 -1.5367 -0.6265
 4160TIP3   OH233894   6.508   1.878   5.782 -0.2073  0.0808  0.0285
 4160TIP3    H133895   6.427   1.925   5.767 -0.6019 -0.5374  0.2085
 4160TIP3    H233896   6.481   1.795   5.821  0.5661  0.1990  0.8408
 4161TIP3   OH233897   6.169   4.003   5.053 -0.4185  0.1462 -0.0049
 4161TIP3    H133898   6.117   4.081   5.071 -0.0380  0.0063  1.7550
 4161TIP3    H233899   6.119   3.955   4.987 -2.5003  0.0283  1.6240
 4162TIP3   OH233900   0.767   2.711  13.317 -0.7631  0.1129  0.2617
 4162TIP3    H133901   0.861   2.721  13.330 -0.2942 -0.0033 -2.7896
 4162TIP3    H233902   0.729   2.731  13.403  1.9094  1.9891  1.0717
 4163TIP3   OH233903   3.113   1.142  15.395  0.2877  0.0246  0.0491
 4163TIP3    H133904   3.052   1.202  15.439  0.1871 -0.6560  0.8637
 4163TIP3    H233905   3.056   1.075  15.357  0.4280  0.2132 -0.4956
 4164TIP3   OH233906   1.229   3.837   3.589 -0.1971  0.1076 -0.2213
 4164TIP3    H133907   1.135   3.819   3.596 -0.0302 -0.5533  0.4389
 4164TIP3    H233908   1.262   3.766   3.535  0.3949 -1.3810  2.0118
 4165TIP3   OH233909   6.502   5.334  17.227 -0.1121 -0.6899  0.1137
 4165TIP3    H133910   6.542   5.247  17.231  2.1591  0.2810 -0.7155
 4165TIP3    H233911   6.572   5.394  17.253 -1.3101  0.9973 -0.4736
 4166TIP3   OH233912   4.116   3.167  13.774 -0.3109  0.7582 -0.3019
 4166TIP3    H133913   4.029   3.142  13.744 -0.6073  1.7271 -0.2694
 4166TIP3    H233914   4.100   3.212  13.857  0.0958  2.1716 -0.9768
 4167TIP3   OH233915   5.718   2.994  15.188  0.1645 -0.6424 -0.3053
 4167TIP3    H133916   5.791   2.948  15.147  1.2958  0.4155  0.4906
 4167TIP3    H233917   5.733   2.985  15.282 -0.5819 -0.1982 -0.1419
 4168TIP3   OH233918   0.646   4.946   1.298 -0.7495  0.0480  0.1857
 4168TIP3    H133919   0.703   4.913   1.368  0.3081  0.4944 -0.4482
 4168TIP3    H233920   0.705   4.962   1.225 -1.4931  1.7012 -0.0747
 4169TIP3   OH233921   4.831   3.091   5.845  0.5320  0.5137 -0.2054
 4169TIP3    H133922   4.843   3.065   5.754  1.8429  0.0287  0.0919
 4169TIP3    H233923   4.834   3.009   5.894 -0.8978  0.7034  0.2045
 4170TIP3   OH233924   5.281   1.242   4.149  0.4134 -0.8596  0.3851
 4170TIP3    H133925   5.293   1.322   4.199  2.0978 -1.3018  0.7299
 4170TIP3    H233926   5.269   1.173   4.215  0.6553 -1.1356  0.1465
 4171TIP3   OH233927   5.509   1.960  12.925 -0.0900 -0.6505  0.0287
 4171TIP3    H133928   5.471   2.047  12.918  1.0909 -0.2660 -1.6319
 4171TIP3    H233929   5.505   1.940  13.019  0.7452  1.6619  0.5833
 4172TIP3   OH233930   4.141   3.697   3.035  0.1866 -0.4086  0.2440
 4172TIP3    H133931   4.194   3.775   3.018  2.0554 -1.1397  2.3907
 4172TIP3    H233932   4.154   3.642   2.958  1.2442  0.1198  0.0370
 4173TIP3   OH233933   0.980   3.900  10.810 -0.3762  0.3277 -0.1281
 4173TIP3    H133934   1.008   3.879  10.721 -1.7161  2.1255 -1.0266
 4173TIP3    H233935   1.026   3.982  10.831 -2.3631  1.5487 -0.3751
 4174TIP3   OH233936   2.630   1.448  13.855 -0.1813 -0.0392 -0.1946
 4174TIP3    H133937   2.574   1.429  13.930 -0.0041  1.4103  0.3025
 4174TIP3    H233938   2.708   1.395  13.870  0.3370  1.0960  1.2286
 4175TIP3   OH233939   2.705   4.321   0.982  0.2968  0.5446 -0.3533
 4175TIP3    H133940   2.761   4.259   1.029  2.3532  0.4625 -2.8413
 4175TIP3    H233941   2.692   4.281   0.896 -1.2794  1.9213 -0.7804
 4176TIP3   OH233942   3.304   0.813   1.163 -0.1087  0.2961 -0.5069
 4176TIP3    H133943   3.348   0.800   1.078 -1.7947  0.8898 -1.4857
 4176TIP3    H233944   3.234   0.748   1.164  0.5590 -0.4304  0.9159
 4177TIP3   OH233945   5.540   1.869   2.580  0.0225  0.1970  0.0829
 4177TIP3    H133946   5.468   1.835   2.634 -0.0670  0.2425 -0.0099
 4177TIP3    H233947   5.581   1.790   2.543  0.4351  0.1278  0.6663
 4178TIP3   OH233948   5.349   3.007   6.106  0.2309  0.3412  0.3029
 4178TIP3    H133949   5.268   3.020   6.056  0.4154  0.7494  0.1096
 4178TIP3    H233950   5.341   2.918   6.141  1.9310 -1.5937 -3.8280
 4179TIP3   OH233951   2.346   1.536   3.686 -0.0179  0.0777 -0.1347
 4179TIP3    H133952   2.280   1.599   3.718  0.0615  0.8414 -1.4344
 4179TIP3    H233953   2.429   1.570   3.720 -0.0453  0.3124 -0.3036
 4180TIP3   OH233954   4.761   5.146  12.004  0.1251 -0.2998 -1.0701
 4180TIP3    H133955   4.831   5.179  12.060 -0.1363 -0.2335 -0.7759
 4180TIP3    H233956   4.712   5.224  11.979 -1.4780 -0.6139  0.9748
 4181TIP3   OH233957   6.724   2.446  13.556  0.1869  0.5600  0.2040
 4181TIP3    H133958   6.717   2.420  13.648  0.8474 -0.4899 -0.0357
 4181TIP3    H233959   6.817   2.463  13.542  0.4664 -1.6770 -0.8811
 4182TIP3   OH233960   3.964   5.743   3.051  0.5788  0.2537 -0.4566
 4182TIP3    H133961   4.015   5.780   3.123  0.7979 -1.3339  0.2213
 4182TIP3    H233962   3.897   5.690   3.093 -1.4037  1.9857 -1.3611
 4183TIP3   OH233963   0.005   6.377   2.935  0.1837 -0.3299 -0.1751
 4183TIP3    H133964   0.055   6.398   3.014  0.2422  0.4407 -0.4170
 4183TIP3    H233965   0.049   6.426   2.865  0.9270 -2.0372 -0.9218
 4184TIP3   OH233966   2.063   2.346   3.471  0.0739  0.3752 -0.0085
 4184TIP3    H133967   2.053   2.257   3.439 -0.1238  0.9409 -1.5553
 4184TIP3    H233968   2.052   2.401   3.393 -1.5079  1.8348  1.2119
 4185TIP3   OH233969   4.497   0.660   3.082  0.2394  0.2688  0.2230
 4185TIP3    H133970   4.433   0.677   3.012 -0.6524  0.2138  1.0151
 4185TIP3    H233971   4.458   0.699   3.160  1.5589  0.9378  0.5534
 4186TIP3   OH233972   3.449   3.469   2.743  0.3117 -0.1725 -0.6921
 4186TIP3    H133973   3.526   3.437   2.790  0.8409 -1.4995 -2.4374
 4186TIP3    H233974   3.484   3.506   2.662 -0.7273  0.8716 -0.6825
 4187TIP3   OH233975   1.154   3.432   4.424  0.7474 -0.5675 -0.0449
 4187TIP3    H133976   1.157   3.457   4.516  2.0083 -2.0020  0.3193
 4187TIP3    H233977   1.067   3.461   4.394  0.6358  0.6030  1.3764
 4188TIP3   OH233978   4.868   2.526   3.322 -0.0369  0.1943 -0.3053
 4188TIP3    H133979   4.947   2.538   3.375  0.4999 -0.7085 -0.8819
 4188TIP3    H233980   4.797   2.558   3.377  0.5444 -0.4874  0.8481
 4189TIP3   OH233981   6.417   5.718   2.128 -0.2309 -0.0784  0.7323
 4189TIP3    H133982   6.419   5.717   2.224 -0.6887 -0.4108  0.7409
 4189TIP3    H233983   6.489   5.775   2.103  1.4765 -1.9466  1.2272
 4190TIP3   OH233984   6.130   1.618  15.504  0.2511 -0.0280 -0.2046
 4190TIP3    H133985   6.185   1.686  15.543 -1.3467  1.5835 -0.6986
 4190TIP3    H233986   6.104   1.654  15.419 -0.5346 -1.3107 -0.5232
 4191TIP3   OH233987   4.042   4.292   3.238 -0.0948  0.0580 -0.2048
 4191TIP3    H133988   4.111   4.304   3.303 -1.2707 -0.0852  1.0941
 4191TIP3    H233989   3.963   4.277   3.290 -1.1708  0.5989 -1.6587
 4192TIP3   OH233990   1.818   3.180  11.604 -0.3373 -0.0554  0.0809
 4192TIP3    H133991   1.790   3.266  11.635  0.1033 -0.4695  1.6833
 4192TIP3    H233992   1.874   3.147  11.675 -0.3430 -1.5666 -0.6202
 4193TIP3   OH233993   0.845   6.609   3.976 -0.2822  0.0267 -0.7365
 4193TIP3    H133994   0.895   6.667   3.917 -1.9117  0.9437 -1.2346
 4193TIP3    H233995   0.795   6.668   4.032 -1.7737 -0.8814 -1.0766
 4194TIP3   OH233996   1.290   6.363   3.445 -0.2957  0.1071 -0.1054
 4194TIP3    H133997   1.238   6.393   3.371 -0.2541  0.7086  0.1133
 4194TIP3    H233998   1.326   6.442   3.484 -1.6179 -0.0604  1.5362
 4195TIP3   OH233999   3.490   3.431  12.259  0.2628 -0.2174 -0.0637
 4195TIP3    H134000   3.544   3.505  12.288  2.9506 -2.6284  1.2964
 4195TIP3    H234001   3.435   3.411  12.334 -0.0238 -0.0334 -0.2204
 4196TIP3   OH234002   3.857   6.201  16.714 -0.1676 -0.0530  0.1028
 4196TIP3    H134003   3.927   6.263  16.733 -0.1268  0.0020 -0.2155
 4196TIP3    H234004   3.864   6.135  16.783 -0.1963  0.2812  0.4245
 4197TIP3   OH234005   2.598   1.380   0.792  0.3016 -0.2501 -0.2838
 4197TIP3    H134006   2.666   1.447   0.782  1.6396 -1.7766 -1.7529
 4197TIP3    H234007   2.595   1.363   0.886  1.6794  0.1367 -0.1536
 4198TIP3   OH234008   4.114   1.917  16.935 -0.2215  0.4206 -0.1865
 4198TIP3    H134009   4.079   1.976  16.869 -1.8199  1.0495  1.1663
 4198TIP3    H234010   4.101   1.830  16.899 -1.2519  0.7486 -0.6427
 4199TIP3   OH234011   3.267   6.331   0.132 -0.1295 -0.4735 -0.4420
 4199TIP3    H134012   3.184   6.363   0.098 -0.0666  0.6739  0.4589
 4199TIP3    H234013   3.247   6.297   0.219  0.3313 -0.2602 -0.2498
 4200TIP3   OH234014   3.257   5.634  13.855  0.5922  0.0229 -0.0350
 4200TIP3    H134015   3.184   5.672  13.905  0.6241 -0.5929  0.4906
 4200TIP3    H234016   3.220   5.619  13.768 -0.1526 -1.0207  0.4521
 4201TIP3   OH234017   1.029   1.895  13.830 -0.6973  0.1246  0.3859
 4201TIP3    H134018   1.116   1.909  13.794  0.0916 -1.0351  1.7897
 4201TIP3    H234019   1.016   1.968  13.890 -0.5280  0.0917  0.4631
 4202TIP3   OH234020   5.579   0.210  16.377  1.1832  0.2554  0.1102
 4202TIP3    H134021   5.571   0.129  16.428  0.4393  0.5572  0.4728
 4202TIP3    H234022   5.523   0.273  16.422  2.9840  1.4354  0.7463
 4203TIP3   OH234023   2.704   5.054   6.309  0.5934  0.1029 -0.4457
 4203TIP3    H134024   2.708   4.963   6.338 -0.9568  0.1786  0.0126
 4203TIP3    H234025   2.790   5.090   6.334  1.8669 -1.6406 -2.1371
 4204TIP3   OH234026   4.292   2.227   4.650  0.3230  0.0665  0.2792
 4204TIP3    H134027   4.350   2.300   4.675  0.5255 -0.4087  1.2199
 4204TIP3    H234028   4.205   2.255   4.678  0.0193  0.9222 -1.4293
 4205TIP3   OH234029   1.464   4.755  15.426  0.2798 -0.3842 -0.0823
 4205TIP3    H134030   1.461   4.815  15.500 -1.9198  0.5284 -0.8698
 4205TIP3    H234031   1.483   4.810  15.351  2.9872 -1.3728 -0.1883
 4206TIP3   OH234032   2.449   4.380  11.746  0.2819  0.0943  0.0446
 4206TIP3    H134033   2.371   4.416  11.789 -0.0566  0.1493 -0.6142
 4206TIP3    H234034   2.493   4.331  11.815 -1.0629 -1.0987  0.0749
 4207TIP3   OH234035   5.235   1.458  17.034 -0.0401 -0.0688  0.4259
 4207TIP3    H134036   5.328   1.478  17.045  0.3473 -0.9280 -1.1194
 4207TIP3    H234037   5.224   1.373  17.076 -0.2171  0.2093  0.9469
 4208TIP3   OH234038   4.488   1.626  13.328  0.0749 -0.1343  0.3164
 4208TIP3    H134039   4.433   1.697  13.363  1.9962  0.6955  1.7194
 4208TIP3    H234040   4.577   1.661  13.329  0.8297 -1.9564 -0.6275
 4209TIP3   OH234041   6.183   6.452  13.487  0.0031 -0.5125 -0.1684
 4209TIP3    H134042   6.120   6.467  13.557 -0.4501  0.4498 -0.7844
 4209TIP3    H234043   6.246   6.390  13.525  1.0222  1.7034  1.8874
 4210TIP3   OH234044   0.499   1.153  12.813  0.0260  0.9231  0.3070
 4210TIP3    H134045   0.472   1.118  12.898  0.8621 -4.0702 -1.2903
 4210TIP3    H234046   0.416   1.168  12.767 -0.3849  0.2528  0.8025
 4211TIP3   OH234047   5.689   3.811  17.074 -0.4094 -0.1548  0.0938
 4211TIP3    H134048   5.636   3.736  17.044  1.7297 -0.7220 -2.4287
 4211TIP3    H234049   5.738   3.777  17.149 -0.7566 -0.7652  0.0516
 4212TIP3   OH234050   1.230   3.008   1.257  0.2356  0.2996  0.6342
 4212TIP3    H134051   1.299   2.987   1.319  0.3309 -2.7418 -0.4407
 4212TIP3    H234052   1.276   3.053   1.185  0.0680  4.1606  2.8032
 4213TIP3   OH234053   1.615   3.269   5.282 -0.5084 -0.8881 -1.1310
 4213TIP3    H134054   1.661   3.336   5.231 -0.8572  0.8741  0.8057
 4213TIP3    H234055   1.531   3.310   5.305 -0.4930 -1.7727  0.5621
 4214TIP3   OH234056   5.220   0.086   1.410 -0.0168  0.2441 -0.2526
 4214TIP3    H134057   5.218   0.182   1.407 -2.1485  0.2736  0.9789
 4214TIP3    H234058   5.129   0.060   1.400  0.6028 -1.6989 -1.1155
 4215TIP3   OH234059   0.518   6.478  12.125 -0.2943 -0.3147  0.2492
 4215TIP3    H134060   0.439   6.431  12.095  0.0860 -2.1117  1.9835
 4215TIP3    H234061   0.564   6.500  12.044 -1.3351 -1.4368 -0.6779
 4216TIP3   OH234062   5.379   3.852   3.530 -0.2416  0.2347  0.3109
 4216TIP3    H134063   5.377   3.937   3.487 -0.1209  0.3797  0.5932
 4216TIP3    H234064   5.438   3.864   3.605 -1.1572  0.2269  1.0361
 4217TIP3   OH234065   1.510   2.803   4.271 -0.0085 -0.6262  0.6606
 4217TIP3    H134066   1.514   2.784   4.365 -0.5484 -0.8117  0.6480
 4217TIP3    H234067   1.479   2.893   4.266  2.6682  0.3350  0.7216
 4218TIP3   OH234068   4.827   3.786   4.047 -0.0971  0.1898 -0.0306
 4218TIP3    H134069   4.891   3.841   4.093  2.2551 -0.7329 -2.0751
 4218TIP3    H234070   4.816   3.828   3.962 -0.1040 -1.1616 -0.7118
 4219TIP3   OH234071   1.526   6.131  10.879  0.1376 -0.4245 -0.2220
 4219TIP3    H134072   1.619   6.119  10.895  0.5479  1.6994 -0.8330
 4219TIP3    H234073   1.495   6.045  10.849  2.2772 -0.6918 -1.7532
 4220TIP3   OH234074   4.830   4.100  12.451 -0.5624  0.2313 -0.0557
 4220TIP3    H134075   4.848   4.136  12.538 -0.3205  0.2502 -0.1140
 4220TIP3    H234076   4.734   4.104  12.443 -0.5826  0.2570  0.1966
 4221TIP3   OH234077   3.912   6.334   6.372 -0.3525 -0.0245  0.1163
 4221TIP3    H134078   3.931   6.400   6.304 -0.7480  0.8717  0.8636
 4221TIP3    H234079   3.997   6.298   6.395 -0.0028  1.0702  0.5506
 4222TIP3   OH234080   4.353   0.589   0.077 -0.8862  0.1527 -0.0580
 4222TIP3    H134081   4.350   0.672   0.030 -0.4804 -0.0732 -0.4962
 4222TIP3    H234082   4.422   0.601   0.143 -1.2977  0.3919  0.3301
 4223TIP3   OH234083   5.616   4.970  16.151  0.6729 -0.2767 -0.1149
 4223TIP3    H134084   5.694   4.917  16.169  0.8510 -0.1981 -0.6647
 4223TIP3    H234085   5.574   4.928  16.076 -0.6790 -1.2508  1.1488
 4224TIP3   OH234086   6.212   0.007  13.750 -0.0934  0.1010 -0.3465
 4224TIP3    H134087   6.267  -0.051  13.802  1.7537  1.5571 -0.6191
 4224TIP3    H234088   6.235   0.095  13.780 -3.8391  0.6972  1.0282
 4225TIP3   OH234089   6.352   5.470  13.109 -0.5942 -0.8049  0.3896
 4225TIP3    H134090   6.435   5.483  13.064 -1.4025  1.3606 -0.6028
 4225TIP3    H234091   6.369   5.495  13.200 -0.2435  0.0762  0.0886
 4226TIP3   OH234092   0.312   3.100  12.748 -0.3037  0.4203 -0.0041
 4226TIP3    H134093   0.399   3.067  12.726 -0.3213 -0.8307  1.6888
 4226TIP3    H234094   0.256   3.022  12.745 -1.2681  1.1226 -0.5205
 4227TIP3   OH234095   2.030   2.597   2.926  0.1507 -0.0961  0.3447
 4227TIP3    H134096   2.093   2.526   2.940 -0.9277 -1.5568 -1.9224
 4227TIP3    H234097   2.034   2.614   2.832 -2.0185  0.5739  0.3611
 4228TIP3   OH234098   1.783   0.352  11.494  0.1301  0.2962 -0.2202
 4228TIP3    H134099   1.786   0.447  11.500 -2.2184  0.7855 -4.7339
 4228TIP3    H234100   1.848   0.330  11.427 -0.6168 -1.1230 -0.4879
 4229TIP3   OH234101   0.883   3.987  16.264 -0.2265  0.2113 -0.5607
 4229TIP3    H134102   0.826   4.056  16.231  0.0439  0.2258 -1.0064
 4229TIP3    H234103   0.969   4.007  16.227  0.0600  0.1772  0.0883
 4230TIP3   OH234104   4.031   2.029  13.853  0.2249  0.1248 -0.0723
 4230TIP3    H134105   4.038   2.070  13.940 -0.6777  0.2467 -0.0585
 4230TIP3    H234106   4.022   2.103  13.793  0.0070  0.0006 -0.1899
 4231TIP3   OH234107   3.936   2.194   6.710 -0.3009 -0.1172 -0.1555
 4231TIP3    H134108   4.031   2.186   6.721 -0.3514  1.5988  1.7325
 4231TIP3    H234109   3.926   2.261   6.643 -0.1942 -0.2222 -0.2781
 4232TIP3   OH234110   2.346   1.866   5.191  0.1618 -0.7564 -0.7582
 4232TIP3    H134111   2.367   1.792   5.248 -2.3518 -1.0002 -0.0861
 4232TIP3    H234112   2.262   1.844   5.153 -0.6682  1.7923 -0.4725
 4233TIP3   OH234113   1.619   5.098  13.567 -0.2574 -0.5694 -0.6419
 4233TIP3    H134114   1.624   5.058  13.481 -1.1076  0.0355 -0.9772
 4233TIP3    H234115   1.671   5.179  13.560 -0.9162 -0.1610 -0.7889
 4234TIP3   OH234116   3.101   5.704   0.508 -0.2249  0.3637 -0.4154
 4234TIP3    H134117   3.153   5.666   0.438 -0.6573  1.0474 -1.1189
 4234TIP3    H234118   3.048   5.632   0.541  0.0256  0.0280 -0.7512
 4235TIP3   OH234119   1.563   1.032   4.563  0.0896 -0.2448  0.3514
 4235TIP3    H134120   1.474   1.049   4.592  0.3471  1.0802  0.4000
 4235TIP3    H234121   1.595   1.117   4.532  2.0645 -0.1983  2.3449
 4236TIP3   OH234122   5.363   5.991  10.650 -0.0810  0.4357  0.2962
 4236TIP3    H134123   5.282   5.947  10.623 -0.6505  0.4181  1.9542
 4236TIP3    H234124   5.431   5.954  10.594 -0.7920 -1.5037  0.6852
 4237TIP3   OH234125   0.158   1.607   2.063 -0.4772  0.5089 -0.1555
 4237TIP3    H134126   0.117   1.530   2.101 -1.4223  1.8533  1.6323
 4237TIP3    H234127   0.230   1.629   2.123 -0.1046  0.9175 -0.7393
 4238TIP3   OH234128   4.264   0.778   0.923  0.2644 -0.7162 -0.6123
 4238TIP3    H134129   4.223   0.692   0.909  0.6353 -1.2562  1.4559
 4238TIP3    H234130   4.190   0.838   0.934 -0.0110 -0.5175 -3.3461
 4239TIP3   OH234131   2.463   1.644   6.399  0.3542  0.4028  0.4683
 4239TIP3    H134132   2.491   1.557   6.426 -0.1495  0.6763  1.9125
 4239TIP3    H234133   2.539   1.700   6.416  1.1493  0.0218 -1.7401
 4240TIP3   OH234134   2.207   6.349   5.171 -0.4247  0.0808 -0.2987
 4240TIP3    H134135   2.200   6.257   5.198  1.2233  0.5281  1.7631
 4240TIP3    H234136   2.133   6.392   5.215 -1.0937 -0.2039 -1.1248
 4241TIP3   OH234137   6.271   4.197  15.508  0.0429 -0.5155 -0.3452
 4241TIP3    H134138   6.220   4.136  15.455 -1.5321  0.7793 -0.3305
 4241TIP3    H234139   6.342   4.143  15.544 -3.0017 -3.0383  2.1374
 4242TIP3   OH234140   3.932   2.816   1.382  0.0698 -0.3902 -0.2544
 4242TIP3    H134141   4.024   2.804   1.358  0.3811 -1.6009  1.4300
 4242TIP3    H234142   3.932   2.898   1.432  0.4219 -0.9438  0.6612
 4243TIP3   OH234143   5.063   0.647  13.567 -0.5272  0.0080 -0.0515
 4243TIP3    H134144   4.970   0.658  13.549 -1.6644 -1.6854  4.0465
 4243TIP3    H234145   5.107   0.670  13.485 -4.6403 -1.3384 -2.7956
 4244TIP3   OH234146   3.415   4.534  12.074  0.3660  0.4388 -0.6526
 4244TIP3    H134147   3.393   4.573  11.989  0.9457  0.8515 -0.6214
 4244TIP3    H234148   3.504   4.501  12.062 -0.1806 -1.0447 -0.7335
 4245TIP3   OH234149   3.775   2.856  11.831  0.0092  0.5821  0.1992
 4245TIP3    H134150   3.824   2.882  11.909 -2.6390  1.8670  1.5035
 4245TIP3    H234151   3.812   2.771  11.807  1.3866  0.5105  2.3967
 4246TIP3   OH234152   4.929   1.667  15.936 -0.2973 -0.0330  0.1799
 4246TIP3    H134153   4.875   1.617  15.997 -1.4937  1.2487  0.1929
 4246TIP3    H234154   4.985   1.602  15.895 -0.4606 -1.1109  1.6223
 4247TIP3   OH234155   0.017   6.752  16.300  0.4175 -0.0709 -0.3616
 4247TIP3    H134156   0.085   6.816  16.322 -0.6802  1.1658 -0.4678
 4247TIP3    H234157  -0.020   6.784  16.217 -1.8773  0.6142  0.8878
 4248TIP3   OH234158   4.012   5.391   5.115  0.7539  0.0691 -0.9077
 4248TIP3    H134159   4.027   5.314   5.061  1.7062 -0.5075  0.1593
 4248TIP3    H234160   4.094   5.441   5.110  0.2642  0.8380 -1.3219
 4249TIP3   OH234161   1.110   0.323   0.748 -0.0658  0.0934  0.4232
 4249TIP3    H134162   1.121   0.228   0.755  0.3316  0.0010 -1.2342
 4249TIP3    H234163   1.017   0.336   0.733  0.0202 -0.1101 -0.3184
 4250TIP3   OH234164   5.902   0.544  14.588  0.2612  0.5635  0.4396
 4250TIP3    H134165   5.978   0.557  14.644  1.1924  0.6165 -0.8390
 4250TIP3    H234166   5.925   0.471  14.531  0.6351  2.6489 -2.1549
 4251TIP3   OH234167   3.613   5.356   4.361 -0.1268 -0.4204  0.1608
 4251TIP3    H134168   3.669   5.326   4.289 -0.7506 -0.5686 -0.2706
 4251TIP3    H234169   3.673   5.396   4.423  0.1596  2.1294 -1.6833
 4252TIP3   OH234170   1.560   4.066  13.821 -0.1789  0.6780 -0.3984
 4252TIP3    H134171   1.533   3.974  13.821  1.1190  0.2858  0.3201
 4252TIP3    H234172   1.490   4.110  13.870  0.0597 -0.2060  0.7847
 4253TIP3   OH234173   2.555   4.087   5.532  0.0009  0.0969 -0.1816
 4253TIP3    H134174   2.562   4.018   5.599  0.9478 -0.9771 -1.3669
 4253TIP3    H234175   2.472   4.070   5.488  1.1596 -1.5106 -1.7879
 4254TIP3   OH234176   0.463   0.688   3.682  0.3316  0.0410 -0.1353
 4254TIP3    H134177   0.543   0.695   3.734  0.6395 -0.5612 -0.5197
 4254TIP3    H234178   0.400   0.646   3.741  0.2606  0.6210  0.2065
 4255TIP3   OH234179   6.340   4.614   2.203  0.1881 -0.3956 -0.6175
 4255TIP3    H134180   6.347   4.630   2.297  0.5941 -0.0598 -0.7032
 4255TIP3    H234181   6.407   4.547   2.186 -2.3744 -3.1890 -0.0322
 4256TIP3   OH234182   3.378   6.225   3.925 -0.0420 -0.6316 -0.3719
 4256TIP3    H134183   3.346   6.269   3.846 -2.7083 -1.1263  0.3769
 4256TIP3    H234184   3.331   6.268   3.997  0.2911 -2.0216  0.6973
 4257TIP3   OH234185   3.518   5.468  11.878  0.3429  0.8933  0.1313
 4257TIP3    H134186   3.527   5.500  11.788 -1.3314  0.5568 -0.1664
 4257TIP3    H234187   3.484   5.379  11.868 -1.7998  1.5753  1.1476
 4258TIP3   OH234188   0.923   5.534   2.899  0.3115  0.7532 -0.3825
 4258TIP3    H134189   0.981   5.458   2.896 -2.4958 -1.4448 -1.0931
 4258TIP3    H234190   0.908   5.548   2.993 -2.0774 -1.9526 -0.3034
 4259TIP3   OH234191   3.964   2.899   5.695 -0.6316  0.3017 -0.3808
 4259TIP3    H134192   3.897   2.831   5.687 -0.1280 -0.1198 -1.0191
 4259TIP3    H234193   4.032   2.873   5.633 -0.3820  1.3275 -0.5390
 4260TIP3   OH234194   1.144   3.386   0.252  0.0678  0.3486  0.9642
 4260TIP3    H134195   1.073   3.356   0.196  1.3868  0.5131 -0.8610
 4260TIP3    H234196   1.175   3.307   0.296  0.1509 -0.0926  0.1226
 4261TIP3   OH234197   3.626   6.009   3.382  0.0082 -0.1289  0.0106
 4261TIP3    H134198   3.683   6.083   3.363  1.0426 -1.0883 -0.6871
 4261TIP3    H234199   3.670   5.961   3.451  0.5127 -1.3531 -1.1285
 4262TIP3   OH234200   3.160   1.930  16.325 -0.0516  0.1978 -0.0519
 4262TIP3    H134201   3.189   1.911  16.415 -2.8977 -0.5936  0.7574
 4262TIP3    H234202   3.094   1.863  16.308 -0.7600  1.4153 -2.1267
 4263TIP3   OH234203   3.552   6.242   0.686 -0.3389  0.1630 -0.6440
 4263TIP3    H134204   3.639   6.282   0.678 -0.1537 -0.2533 -0.7386
 4263TIP3    H234205   3.495   6.299   0.635 -0.5644  1.7552  1.3302
 4264TIP3   OH234206   6.697   3.484  11.627 -0.2468  0.2328 -0.1684
 4264TIP3    H134207   6.738   3.522  11.705  1.9528 -1.7476 -0.3019
 4264TIP3    H234208   6.629   3.427  11.661 -1.1264  1.4565  0.1702
 4265TIP3   OH234209   2.472   5.543  11.797  0.6768 -0.6808  0.4665
 4265TIP3    H134210   2.458   5.535  11.891 -2.8541 -2.0587 -0.0785
 4265TIP3    H234211   2.530   5.618  11.787 -2.4290  2.3272  3.5380
 4266TIP3   OH234212   5.203   2.704  12.276 -0.5560 -0.1041  0.2648
 4266TIP3    H134213   5.214   2.685  12.369  0.9954 -0.2206  0.0590
 4266TIP3    H234214   5.253   2.784  12.262 -1.7421  0.5570 -0.2351
 4267TIP3   OH234215   4.446   4.055   5.874 -0.0019  0.2434 -0.3616
 4267TIP3    H134216   4.447   4.150   5.860  1.1437  0.6727  2.2199
 4267TIP3    H234217   4.355   4.029   5.857 -0.1647  1.6821 -1.7517
 4268TIP3   OH234218   0.799   6.753  14.232 -0.3635 -0.2040 -0.2620
 4268TIP3    H134219   0.799   6.679  14.291 -1.1426 -0.0857 -0.1056
 4268TIP3    H234220   0.842   6.823  14.280 -2.2628  0.3209  0.7315
 4269TIP3   OH234221   0.243   4.802   1.532  0.2532  0.1049  0.4725
 4269TIP3    H134222   0.160   4.761   1.558  0.1387 -0.7284 -1.1414
 4269TIP3    H234223   0.223   4.895   1.526 -0.8296 -0.1843 -0.7778
 4270TIP3   OH234224   2.254   2.786  11.252  0.1803 -0.1335 -0.2196
 4270TIP3    H134225   2.343   2.803  11.221  0.4074 -0.4366  0.2474
 4270TIP3    H234226   2.250   2.691  11.262 -0.5840 -0.2288 -1.3752
 4271TIP3   OH234227   6.443   2.493   5.991 -0.0196 -0.0006  0.3982
 4271TIP3    H134228   6.512   2.441   5.950  0.1611  0.7570 -0.2756
 4271TIP3    H234229   6.417   2.442   6.067  2.0765  0.2065  1.3011
 4272TIP3   OH234230   5.097   4.922   1.413 -0.9563  0.2032  0.6850
 4272TIP3    H134231   5.084   5.004   1.366 -1.1124  0.3866  1.0513
 4272TIP3    H234232   5.151   4.946   1.488 -0.9115 -0.0505  0.7339
 4273TIP3   OH234233   4.406   4.311  13.333  0.3095 -0.1894 -0.0342
 4273TIP3    H134234   4.322   4.268  13.317  0.1780 -0.6693  1.7964
 4273TIP3    H234235   4.471   4.244  13.316  0.3411  0.2492 -1.6749
 4274TIP3   OH234236   4.509   1.765  15.654 -0.3840  0.2255  0.1195
 4274TIP3    H134237   4.556   1.691  15.615 -0.7740 -1.0287  1.9230
 4274TIP3    H234238   4.537   1.841  15.603  1.2889 -0.9260 -0.7580
 4275TIP3   OH234239   5.076   6.652   3.552  0.1590  0.2654  0.1751
 4275TIP3    H134240   5.115   6.739   3.547 -2.2371  1.3982  0.4701
 4275TIP3    H234241   5.008   6.653   3.484 -1.8220 -0.3216  2.0935
 4276TIP3   OH234242   0.515   3.899   4.695 -0.4465 -0.1811  0.1159
 4276TIP3    H134243   0.523   3.966   4.626  0.0846 -0.1496  0.2097
 4276TIP3    H234244   0.603   3.891   4.731 -0.8841  0.3689  1.3278
 4277TIP3   OH234245   6.046   1.543   4.793 -0.1145 -0.3968 -0.5983
 4277TIP3    H134246   5.959   1.577   4.771  0.1946  1.2888  0.6717
 4277TIP3    H234247   6.086   1.523   4.708 -0.1796  2.8264 -1.4561
 4278TIP3   OH234248   0.346   6.727   1.677 -0.0494 -0.2523 -0.6966
 4278TIP3    H134249   0.437   6.705   1.658  0.2834  0.3432  0.2274
 4278TIP3    H234250   0.317   6.778   1.601  0.9229  1.1035 -0.1600
 4279TIP3   OH234251   0.826   6.057  11.837 -0.1004 -0.4096  0.4254
 4279TIP3    H134252   0.858   6.078  11.750 -0.8245  0.7183  0.4207
 4279TIP3    H234253   0.827   6.141  11.884  2.0839 -1.3255  2.0996
 4280TIP3   OH234254   3.500   2.610  16.022 -0.0748 -0.3856  0.3686
 4280TIP3    H134255   3.531   2.675  16.085 -0.4709  0.8208 -0.6513
 4280TIP3    H234256   3.473   2.662  15.946  1.5188 -1.9167 -1.2635
 4281TIP3   OH234257   6.102   2.443  11.669 -0.0115 -0.1696  0.2544
 4281TIP3    H134258   6.038   2.394  11.617  0.5752 -0.3884 -0.2646
 4281TIP3    H234259   6.108   2.528  11.625  2.0406 -1.0678 -1.3152
 4282TIP3   OH234260   6.115   3.407   2.869 -0.6723  0.2041 -0.7404
 4282TIP3    H134261   6.055   3.332   2.864 -0.4271 -0.0133 -0.3943
 4282TIP3    H234262   6.170   3.389   2.945 -1.1682  1.1448 -0.1535
 4283TIP3   OH234263   1.759   4.072   3.480 -0.2940 -0.5315 -0.1989
 4283TIP3    H134264   1.830   4.130   3.453 -0.7365 -0.3267 -0.9434
 4283TIP3    H234265   1.786   3.985   3.451 -0.1611 -0.5174 -0.1167
 4284TIP3   OH234266   6.747   1.663  16.508 -0.2378 -0.8884 -0.0160
 4284TIP3    H134267   6.812   1.717  16.554  1.6801 -1.7830 -1.5481
 4284TIP3    H234268   6.686   1.635  16.575  1.6405 -0.9693  1.7144
 4285TIP3   OH234269   3.938   6.577   5.689  0.1776 -0.3332 -0.2248
 4285TIP3    H134270   4.009   6.526   5.727 -0.5767 -1.3489 -0.1481
 4285TIP3    H234271   3.975   6.615   5.609  1.5258  1.1471  1.0515
 4286TIP3   OH234272   0.505   1.207   3.688 -0.2411 -0.2923 -0.4185
 4286TIP3    H134273   0.488   1.286   3.636 -1.9182 -0.2426  0.1744
 4286TIP3    H234274   0.420   1.185   3.726  0.7474 -0.9527  1.4491
 4287TIP3   OH234275   3.106   5.122   2.788  0.4192 -0.3463  0.8360
 4287TIP3    H134276   3.175   5.129   2.722 -0.2887 -1.7589 -0.0871
 4287TIP3    H234277   3.137   5.054   2.848  0.8073  0.5437  1.6573
 4288TIP3   OH234278   2.747   3.797   6.221  0.7377 -0.6933  0.0534
 4288TIP3    H134279   2.755   3.892   6.219 -2.1061 -0.4316 -0.9956
 4288TIP3    H234280   2.687   3.780   6.294 -1.1262 -1.4325 -1.5992
 4289TIP3   OH234281   4.930   0.169   4.707  0.3833  0.0356  0.1007
 4289TIP3    H134282   4.894   0.146   4.621 -0.0770 -1.0744  0.5785
 4289TIP3    H234283   5.024   0.176   4.693  0.7941 -3.9340  0.2668
 4290TIP3   OH234284   5.231   5.597  13.718 -0.2167 -0.5906 -0.6380
 4290TIP3    H134285   5.202   5.506  13.713  0.5149 -0.8630 -0.0545
 4290TIP3    H234286   5.188   5.640  13.644 -2.6652 -0.8081  0.5853
 4291TIP3   OH234287   5.697   4.617  16.233  0.0185  0.6023 -0.0418
 4291TIP3    H134288   5.752   4.673  16.288 -0.1275 -0.1886  0.9271
 4291TIP3    H234289   5.608   4.650  16.246 -0.0698  0.1483  0.5456
 4292TIP3   OH234290   3.374   5.868   5.674  0.4623  0.4984 -0.0118
 4292TIP3    H134291   3.337   5.810   5.608  1.6315  0.2473 -0.4598
 4292TIP3    H234292   3.466   5.877   5.649  0.9487  0.2919  1.6730
 4293TIP3   OH234293   2.780   6.680  16.778 -0.2697  0.3130  0.6592
 4293TIP3    H134294   2.737   6.765  16.789  1.4940  1.3665 -0.3050
 4293TIP3    H234295   2.821   6.663  16.863 -0.7958  0.3150  0.9176
 4294TIP3   OH234296   4.947   2.211   3.406 -0.3555  0.5966 -0.2428
 4294TIP3    H134297   4.921   2.285   3.460  1.9174  1.0531  0.2721
 4294TIP3    H234298   5.041   2.200   3.423 -0.5917 -2.2702 -0.4439
 4295TIP3   OH234299   4.983   3.338  13.988 -0.3079 -0.0383 -0.0784
 4295TIP3    H134300   4.915   3.295  14.041 -0.3486 -1.0318 -0.9214
 4295TIP3    H234301   5.063   3.290  14.009 -0.1306  0.2159 -0.1734
 4296TIP3   OH234302   0.038   2.467   2.122  0.5338 -0.2541  0.3587
 4296TIP3    H134303   0.087   2.438   2.199  0.5052 -0.3233  0.3512
 4296TIP3    H234304   0.100   2.519   2.072  1.1880 -1.9030 -0.6020
 4297TIP3   OH234305   6.261   3.537  14.368  0.5142  0.1725  0.8978
 4297TIP3    H134306   6.241   3.444  14.359 -0.1708  0.5156 -1.4608
 4297TIP3    H234307   6.355   3.540  14.383  0.8458 -0.8214 -0.9001
 4298TIP3   OH234308   1.350   3.894  11.812 -0.2348  0.0153 -0.2335
 4298TIP3    H134309   1.353   3.805  11.778 -0.4672  0.8338 -2.5099
 4298TIP3    H234310   1.430   3.935  11.779 -1.4131  1.3921 -1.4744
 4299TIP3   OH234311   4.808   4.058  15.137  0.1261  0.2246 -0.2330
 4299TIP3    H134312   4.762   4.112  15.072  0.9628  0.1300 -0.9100
 4299TIP3    H234313   4.886   4.109  15.159 -1.2676  1.3251  2.4004
 4300TIP3   OH234314   2.302   6.563  12.834 -0.0174  0.2781 -0.6886
 4300TIP3    H134315   2.351   6.643  12.817 -1.0106  0.7708 -1.2527
 4300TIP3    H234316   2.330   6.535  12.921 -0.3281  1.7182 -0.1213
 4301TIP3   OH234317   4.218   4.812   3.979  0.4546 -0.3241  0.6208
 4301TIP3    H134318   4.172   4.834   4.060  0.8881  0.5209  0.6438
 4301TIP3    H234319   4.282   4.882   3.968  0.1339 -0.2131 -0.6531
 4302TIP3   OH234320   1.166   1.238  14.827 -0.3257  0.2254 -0.3348
 4302TIP3    H134321   1.192   1.315  14.776  2.4817 -1.1257 -1.0978
 4302TIP3    H234322   1.095   1.268  14.883  0.7006  3.3424 -0.6274
 4303TIP3   OH234323   0.835   3.954   5.622 -0.5368 -0.1991  0.0311
 4303TIP3    H134324   0.746   3.947   5.657 -2.4556  3.0869 -3.7834
 4303TIP3    H234325   0.831   3.905   5.539  0.4925  1.8983 -1.2918
 4304TIP3   OH234326   1.872   4.782  14.767  0.0349 -0.1665 -0.6482
 4304TIP3    H134327   1.885   4.755  14.858  1.2582 -0.2578 -0.8294
 4304TIP3    H234328   1.780   4.765  14.749 -0.3243  0.3350  0.7274
 4305TIP3   OH234329   0.205   4.880   3.285 -0.1680 -0.5450 -0.2443
 4305TIP3    H134330   0.156   4.946   3.334 -0.7638 -0.3637 -1.0945
 4305TIP3    H234331   0.181   4.894   3.194 -0.1022 -1.7775 -0.4565
 4306TIP3   OH234332   0.074   3.692  11.198 -0.0103 -0.0917  0.6461
 4306TIP3    H134333   0.081   3.614  11.142 -0.5678  0.0869  0.3194
 4306TIP3    H234334   0.098   3.764  11.140 -1.6146  0.2124  0.3222
 4307TIP3   OH234335   2.701   2.983  15.318 -0.1020  0.5156  0.4137
 4307TIP3    H134336   2.726   2.964  15.408  1.2929  0.5573  0.0410
 4307TIP3    H234337   2.670   3.074  15.320  0.8306  0.8330  0.6752
 4308TIP3   OH234338   4.746   2.011  13.487  0.0024  0.2435 -0.0839
 4308TIP3    H134339   4.689   2.082  13.456 -0.5316  0.5343  1.5017
 4308TIP3    H234340   4.821   2.056  13.525 -0.2707 -0.0335  0.7991
 4309TIP3   OH234341   5.278   4.975  11.927 -0.5868  0.2738  1.0152
 4309TIP3    H134342   5.319   5.008  12.007  0.4567 -1.1424  1.0847
 4309TIP3    H234343   5.229   4.898  11.955 -0.3101 -0.1632  0.3090
 4310TIP3   OH234344   0.191   5.311  12.170 -0.4612  0.3797  0.1366
 4310TIP3    H134345   0.153   5.309  12.258 -1.3342 -0.4168 -0.2494
 4310TIP3    H234346   0.154   5.234  12.126 -0.9973  1.4659 -1.3399
 4311TIP3   OH234347   5.400   0.954  15.405 -0.0745  0.0459 -0.1946
 4311TIP3    H134348   5.478   0.917  15.447 -0.2371 -0.0672  0.0070
 4311TIP3    H234349   5.327   0.903  15.440 -0.2806  0.4184 -0.0796
 4312TIP3   OH234350   6.277   6.011  15.744 -0.4157 -0.1490  0.0057
 4312TIP3    H134351   6.313   5.939  15.796  1.0017  0.9325  0.5218
 4312TIP3    H234352   6.230   5.967  15.673 -0.9282 -1.6163  1.2156
 4313TIP3   OH234353   3.241   6.295   3.033  0.5375  0.8265  0.0604
 4313TIP3    H134354   3.260   6.379   2.990 -0.3916  0.5987 -0.8073
 4313TIP3    H234355   3.325   6.250   3.035  1.2096  2.0911  1.2331
 4314TIP3   OH234356   2.637   4.047   4.574 -0.3337  0.0164  0.5779
 4314TIP3    H134357   2.716   3.993   4.583 -1.0628 -1.1445  0.0942
 4314TIP3    H234358   2.660   4.112   4.507  0.5324  0.2816  1.1224
 4315TIP3   OH234359   3.373   0.547   2.831 -0.0426 -0.2648 -0.5992
 4315TIP3    H134360   3.342   0.458   2.844 -0.5989 -0.1260 -0.9771
 4315TIP3    H234361   3.403   0.550   2.741  0.3892 -0.1899 -0.4564
 4316TIP3   OH234362   3.946   5.114   0.217  0.0463 -0.1103  0.1132
 4316TIP3    H134363   3.989   5.098   0.300 -2.5784  2.0783  1.9750
 4316TIP3    H234364   3.985   5.195   0.184 -0.5618  0.3099  0.4043
 4317TIP3   OH234365   5.564   5.203  13.698  0.4010 -0.1476 -0.2336
 4317TIP3    H134366   5.567   5.111  13.723  2.5273  0.2364  1.0264
 4317TIP3    H234367   5.543   5.202  13.604 -3.8314 -1.7338  0.6367
 4318TIP3   OH234368   0.432   4.453   3.868 -0.7921  0.0818  0.2235
 4318TIP3    H134369   0.384   4.381   3.910 -0.1671  0.0961  0.9706
 4318TIP3    H234370   0.417   4.527   3.926 -2.2909  0.8359 -1.0773
 4319TIP3   OH234371   1.119   5.684   5.723 -0.0529  0.3624  0.1206
 4319TIP3    H134372   1.174   5.729   5.660  0.5474 -0.1309  0.2854
 4319TIP3    H234373   1.118   5.593   5.694  3.2778 -0.6453  2.8887
 4320TIP3   OH234374   4.023   1.887   0.644 -0.8142  0.4537  0.2427
 4320TIP3    H134375   3.980   1.973   0.649 -0.2885  0.8234 -1.3635
 4320TIP3    H234376   4.109   1.905   0.607 -0.1948 -0.6159  1.1196
 4321TIP3   OH234377   3.376   4.963  15.707  0.0395  0.6393  0.2096
 4321TIP3    H134378   3.408   5.053  15.696  0.7534  0.4856  0.9787
 4321TIP3    H234379   3.322   4.967  15.786  1.3025  0.0711  1.1070
 4322TIP3   OH234380   1.806   1.609  14.337 -0.0063  0.4170  0.6151
 4322TIP3    H134381   1.867   1.675  14.302  1.9082 -1.0632  1.0525
 4322TIP3    H234382   1.825   1.530  14.287 -1.4034 -0.1424  0.9467
 4323TIP3   OH234383   2.807   5.151  15.058 -0.5809  0.0303  0.6510
 4323TIP3    H134384   2.730   5.096  15.045 -2.2817  2.5064 -0.1253
 4323TIP3    H234385   2.865   5.128  14.986 -0.8560 -1.3808  0.8594
 4324TIP3   OH234386   0.231   4.440   2.795  0.3842  0.1762  0.5375
 4324TIP3    H134387   0.286   4.413   2.722 -0.7024  0.3022 -0.3468
 4324TIP3    H234388   0.245   4.373   2.861 -0.9818 -1.6800 -0.9873
 4325TIP3   OH234389   0.059   4.682   5.011 -0.1250  0.0421 -0.6358
 4325TIP3    H134390   0.142   4.723   5.038  0.0202 -0.9914  0.5138
 4325TIP3    H234391   0.014   4.750   4.961 -0.7298  2.3190  2.8113
 4326TIP3   OH234392   6.663   2.487  15.996  0.0586  0.1971  0.1719
 4326TIP3    H134393   6.589   2.526  16.044 -0.4590  1.0705 -1.3215
 4326TIP3    H234394   6.633   2.398  15.976  0.6283 -0.4951  2.2150
 4327TIP3   OH234395   2.274   2.271   2.636  0.0602 -0.3599  0.1123
 4327TIP3    H134396   2.195   2.305   2.677  0.2977 -2.2649  2.2424
 4327TIP3    H234397   2.343   2.284   2.701  1.2077 -0.0391 -1.1516
 4328TIP3   OH234398   0.563   2.724  13.162 -0.4265  0.2448 -0.2331
 4328TIP3    H134399   0.500   2.794  13.181 -0.9552  0.0497 -1.2467
 4328TIP3    H234400   0.637   2.743  13.220 -1.8171 -0.1189  1.7223
 4329TIP3   OH234401   5.080   4.613   6.186 -0.0682  0.1402  0.1028
 4329TIP3    H134402   5.144   4.627   6.116  1.5967 -0.8027  1.3857
 4329TIP3    H234403   5.029   4.537   6.157 -0.1566  0.4650 -0.6051
 4330TIP3   OH234404   5.680   3.328  15.518 -0.4946  0.8669 -0.1684
 4330TIP3    H134405   5.680   3.309  15.424  0.6385 -0.6113  0.1225
 4330TIP3    H234406   5.753   3.278  15.553 -0.3169  2.1619  1.3673
 4331TIP3   OH234407   1.565   0.574  17.116  0.3349  0.1649  0.3236
 4331TIP3    H134408   1.492   0.545  17.061  0.4507  1.0550 -0.3057
 4331TIP3    H234409   1.524   0.627  17.185  0.2336 -0.6125  0.8742
 4332TIP3   OH234410   3.151   1.520   6.235  0.1409 -0.4663 -0.7954
 4332TIP3    H134411   3.203   1.491   6.311  0.1943 -0.5967 -0.8804
 4332TIP3    H234412   3.206   1.499   6.160  0.4673  0.4776 -0.8276
 4333TIP3   OH234413   5.290   0.072  14.697  0.3814  0.1058 -0.2050
 4333TIP3    H134414   5.257   0.107  14.780  0.5170 -0.2640  0.0050
 4333TIP3    H234415   5.293   0.148  14.639  0.1102  0.3308  0.0723
 4334TIP3   OH234416   1.648   1.843   6.629  0.0647  0.1946  0.3237
 4334TIP3    H134417   1.729   1.804   6.662  0.8008  1.0389 -0.4458
 4334TIP3    H234418   1.619   1.902   6.699  0.8645  0.9231  0.0505
 4335TIP3   OH234419   3.280   4.819   2.877 -0.3017 -0.0415  0.3178
 4335TIP3    H134420   3.316   4.804   2.790 -1.1329 -1.3289  0.1760
 4335TIP3    H234421   3.356   4.811   2.936 -0.3915 -3.5345  0.1077
 4336TIP3   OH234422   5.475   4.884  15.194 -1.0334  0.0992  0.3112
 4336TIP3    H134423   5.566   4.854  15.205 -0.9538  0.2705  0.1394
 4336TIP3    H234424   5.422   4.819  15.240 -0.9004 -0.5755 -0.4808
 4337TIP3   OH234425   1.752   2.584   6.447 -0.1010  0.0456 -0.1415
 4337TIP3    H134426   1.828   2.626   6.406  0.5062  0.0634  0.9609
 4337TIP3    H234427   1.758   2.492   6.420  0.7606 -0.1147  0.5541
 4338TIP3   OH234428   1.053   3.708  11.969 -0.2506  0.2307  0.5268
 4338TIP3    H134429   0.992   3.657  11.915 -1.0211 -0.2776  1.8675
 4338TIP3    H234430   1.140   3.685  11.936 -0.7280  0.2542 -0.7834
 4339TIP3   OH234431   3.217   0.287  12.620 -0.3601  1.0423  0.1354
 4339TIP3    H134432   3.180   0.244  12.697  1.0068  2.3164  1.5293
 4339TIP3    H234433   3.219   0.219  12.553 -1.1997 -0.1904  1.3372
 4340TIP3   OH234434   3.007   2.471   0.646  0.1951 -0.0526 -0.4329
 4340TIP3    H134435   2.937   2.408   0.661 -0.0464  0.2152 -0.4460
 4340TIP3    H234436   3.060   2.432   0.577  0.6858 -0.7772  0.3327
 4341TIP3   OH234437   6.281   4.127   4.039  0.0549 -0.2263  0.4624
 4341TIP3    H134438   6.264   4.064   3.969  0.4073 -2.9173  2.7044
 4341TIP3    H234439   6.232   4.093   4.114  1.0153  1.6767  1.9972
 4342TIP3   OH234440   0.842   4.452   2.868 -0.1989 -0.2889  0.1065
 4342TIP3    H134441   0.893   4.393   2.812 -1.4810 -1.8929  0.6021
 4342TIP3    H234442   0.909   4.499   2.920  0.8470 -1.1072 -0.4803
 4343TIP3   OH234443   0.744   4.930  10.548  0.2593 -0.1920 -0.1362
 4343TIP3    H134444   0.676   4.969  10.603 -1.1069 -0.0827 -1.8659
 4343TIP3    H234445   0.704   4.849  10.515  0.9376 -0.0836 -1.2232
 4344TIP3   OH234446   5.893   0.268   4.826  0.5000  0.6217  0.3962
 4344TIP3    H134447   5.973   0.232   4.863  0.4255 -0.1178 -0.1438
 4344TIP3    H234448   5.908   0.268   4.731 -0.2968  0.0874  0.2653
 4345TIP3   OH234449   4.663   6.745   6.058 -0.4362  0.0049  0.1679
 4345TIP3    H134450   4.702   6.664   6.026 -1.0599 -0.5176  0.7400
 4345TIP3    H234451   4.737   6.805   6.067  0.0141 -0.4752 -0.3280
 4346TIP3   OH234452   1.156   0.847   4.907 -0.0423 -0.4998 -0.2891
 4346TIP3    H134453   1.192   0.837   4.995  0.3471  0.5395 -0.3189
 4346TIP3    H234454   1.114   0.763   4.888  0.5643 -1.0061  0.5733
 4347TIP3   OH234455   5.202   5.091  14.351 -0.3381  0.3218  0.1059
 4347TIP3    H134456   5.130   5.151  14.373  0.9350  1.3352  1.5730
 4347TIP3    H234457   5.272   5.115  14.411  1.3060 -0.5410 -1.4375
 4348TIP3   OH234458   0.580   2.697  13.546 -0.0009 -0.3605 -0.1750
 4348TIP3    H134459   0.501   2.717  13.595  0.5639 -0.2906  0.7263
 4348TIP3    H234460   0.572   2.604  13.524  0.4915 -0.8154  1.4769
 4349TIP3   OH234461   2.486   5.330   3.530 -0.5937  0.0401 -0.3482
 4349TIP3    H134462   2.519   5.349   3.618 -0.9555  1.0140 -0.4158
 4349TIP3    H234463   2.480   5.235   3.527  1.1588 -0.1104  0.0521
 4350TIP3   OH234464   6.016   3.568   6.299  0.4784  0.0349  0.0053
 4350TIP3    H134465   5.991   3.551   6.390  0.9382  0.6839  0.2576
 4350TIP3    H234466   6.011   3.663   6.290 -1.7452 -0.1921 -1.3028
 4351TIP3   OH234467   4.450   4.730   4.817 -0.3419 -0.2714  0.5036
 4351TIP3    H134468   4.457   4.801   4.881 -1.6011 -0.1386  0.5064
 4351TIP3    H234469   4.407   4.659   4.865 -1.7262 -0.0045 -0.3013
 4352TIP3   OH234470   6.362   3.790   5.994 -0.5735  0.1596  0.1525
 4352TIP3    H134471   6.269   3.769   5.992 -0.2926 -1.0621  0.0428
 4352TIP3    H234472   6.403   3.715   6.035  0.3373  0.8288  0.4830
 4353TIP3   OH234473   4.441   4.214   1.829  0.0356  0.1735  0.6735
 4353TIP3    H134474   4.421   4.124   1.805  1.3006 -0.1143  0.6622
 4353TIP3    H234475   4.419   4.219   1.922 -1.6373  0.3348  0.2756
 4354TIP3   OH234476   3.183   6.174  11.380  0.5072  0.1242  0.4555
 4354TIP3    H134477   3.107   6.158  11.323 -0.6832  0.1939  2.0085
 4354TIP3    H234478   3.208   6.087  11.411  0.5771  0.1900  0.5843
 4355TIP3   OH234479   3.170   1.211   3.487  0.2981  0.3667  0.2992
 4355TIP3    H134480   3.244   1.199   3.547  0.0364  0.2930  0.6057
 4355TIP3    H234481   3.094   1.179   3.536  0.2930 -0.9764 -0.5830
 4356TIP3   OH234482   6.318   6.719  15.268 -0.6621 -0.0936 -0.0131
 4356TIP3    H134483   6.290   6.642  15.317 -1.1616 -1.5055 -2.4094
 4356TIP3    H234484   6.239   6.748  15.222 -1.1446  3.5357  2.9629
 4357TIP3   OH234485   3.072   2.172  16.328 -0.1663  0.0930  0.6693
 4357TIP3    H134486   3.113   2.236  16.387 -0.3615  0.4911  0.3707
 4357TIP3    H234487   3.130   2.096  16.332  0.0249  0.2562  1.0868
 4358TIP3   OH234488   0.001   2.340  14.480 -0.3738 -0.2874  0.4793
 4358TIP3    H134489  -0.025   2.299  14.397 -0.3411 -1.7353  1.1776
 4358TIP3    H234490   0.058   2.412  14.454 -0.4551 -0.6551 -0.7639
 4359TIP3   OH234491   6.735   1.578   4.963  0.3237  0.0283 -0.4037
 4359TIP3    H134492   6.754   1.535   5.046  0.0450  0.0832 -0.3082
 4359TIP3    H234493   6.788   1.532   4.898 -0.3924 -0.8291 -0.3997
 4360TIP3   OH234494   5.743   3.891   3.393 -0.2956  0.5644 -0.2087
 4360TIP3    H134495   5.691   3.894   3.473  0.7355  0.3737  0.4729
 4360TIP3    H234496   5.788   3.976   3.390  2.7866 -0.9214  1.5383
 4361TIP3   OH234497   2.939   6.073  13.756  0.2713  0.1939  0.2172
 4361TIP3    H134498   2.911   6.084  13.847  0.5102 -2.3003  0.6251
 4361TIP3    H234499   3.020   6.022  13.762 -0.0874 -0.5916 -1.4301
 4362TIP3   OH234500   5.009   6.199  15.576  0.0991  0.5696 -0.2361
 4362TIP3    H134501   5.047   6.117  15.606 -1.1852 -0.3164 -0.9544
 4362TIP3    H234502   5.001   6.189  15.481 -3.8244 -0.1609  0.0852
 4363TIP3   OH234503   0.923   2.035   2.711 -0.3343 -0.3749  0.2165
 4363TIP3    H134504   0.900   2.063   2.623  1.0151 -0.1823 -0.0851
 4363TIP3    H234505   0.839   2.023   2.755 -1.0787 -2.4814 -1.6968
 4364TIP3   OH234506   5.947   3.338   3.914 -0.1352 -0.2070 -0.2726
 4364TIP3    H134507   5.977   3.308   3.828 -1.8989  0.2704 -1.0610
 4364TIP3    H234508   5.946   3.433   3.907 -0.2850 -0.1650  0.2976
 4365TIP3   OH234509   5.738   1.523  15.081 -0.4414 -0.2153  0.5139
 4365TIP3    H134510   5.813   1.512  15.023  1.2666  2.0183  2.2180
 4365TIP3    H234511   5.740   1.446  15.138 -1.0586 -1.5091 -1.2037
 4366TIP3   OH234512   0.873   2.415  10.893 -0.1080 -0.2950  0.2469
 4366TIP3    H134513   0.963   2.447  10.882 -0.0374  0.0705  1.7951
 4366TIP3    H234514   0.882   2.323  10.915 -0.0458  0.0342  1.6388
 4367TIP3   OH234515   2.307   0.988   5.289 -0.0994  0.0353  0.0297
 4367TIP3    H134516   2.329   0.896   5.275 -1.0385 -0.1535 -0.2998
 4367TIP3    H234517   2.264   0.989   5.375 -0.3360  0.1124 -0.0873
 4368TIP3   OH234518   4.692   0.122   4.836 -0.5434  0.5604  0.2650
 4368TIP3    H134519   4.648   0.145   4.754  0.2173 -1.8285 -0.8458
 4368TIP3    H234520   4.785   0.136   4.818 -0.4130  0.4931  0.8853
 4369TIP3   OH234521   5.101   2.812  15.315  0.2819 -0.0835 -0.2558
 4369TIP3    H134522   5.094   2.882  15.380 -3.0033  0.2295 -0.8719
 4369TIP3    H234523   5.144   2.853  15.240  0.5498  0.6213  0.2858
 4370TIP3   OH234524   3.888   0.112   5.927 -0.3168 -0.3325 -0.0539
 4370TIP3    H134525   3.966   0.057   5.921  0.4384  0.8496 -1.5978
 4370TIP3    H234526   3.814   0.051   5.925  0.5537 -1.4056  0.6053
 4371TIP3   OH234527   5.732   4.674   4.001  0.6995 -0.2591 -0.0943
 4371TIP3    H134528   5.774   4.670   3.915 -0.1324 -1.0698 -0.4826
 4371TIP3    H234529   5.667   4.744   3.993  1.5002  0.5299  0.2857
 4372TIP3   OH234530   0.817   4.456  11.417 -0.1178  0.2416 -0.7349
 4372TIP3    H134531   0.854   4.378  11.458  2.0018  0.4410 -2.1969
 4372TIP3    H234532   0.767   4.421  11.343 -2.1780  0.0431  0.7035
 4373TIP3   OH234533   6.343   3.839  11.719 -0.3759  0.4264  0.0192
 4373TIP3    H134534   6.252   3.844  11.749 -0.6996 -0.4870 -0.7549
 4373TIP3    H234535   6.375   3.755  11.753  0.7155  1.5247  1.7155
 4374TIP3   OH234536   0.601   2.651   6.129  0.3721  0.1114 -0.2450
 4374TIP3    H134537   0.632   2.582   6.188  0.4070 -1.1648 -1.7220
 4374TIP3    H234538   0.540   2.702   6.183 -0.3784 -1.6318  0.6219
 4375TIP3   OH234539   0.035   3.798  11.743  0.4251 -0.4050  0.2977
 4375TIP3    H134540  -0.036   3.740  11.775 -0.1981  0.4575  0.5026
 4375TIP3    H234541   0.048   3.860  11.815 -0.2193  0.8762 -0.6831
 4376TIP3   OH234542   3.497   1.600   0.348  0.2146 -0.1159  0.0395
 4376TIP3    H134543   3.436   1.638   0.411 -0.5992  1.9330 -1.8828
 4376TIP3    H234544   3.445   1.537   0.298  0.2434 -0.0303 -0.1012
 4377TIP3   OH234545   2.781   5.832   5.611  0.1584 -0.1649  0.1653
 4377TIP3    H134546   2.694   5.827   5.651  1.4934  0.1017  3.2306
 4377TIP3    H234547   2.802   5.741   5.589 -1.0336 -0.1846 -0.9779
 4378TIP3   OH234548   5.158   5.473  11.349 -0.4001 -0.4711  0.3921
 4378TIP3    H134549   5.153   5.398  11.290  0.0743 -1.4340  1.5456
 4378TIP3    H234550   5.251   5.484  11.368 -0.1421  2.2950 -2.0836
 4379TIP3   OH234551   2.783   0.500  13.840  0.2231 -0.3133 -0.5837
 4379TIP3    H134552   2.711   0.520  13.780 -0.7553  1.2970  1.0550
 4379TIP3    H234553   2.748   0.432  13.898  0.0443  0.3490  0.1040
 4380TIP3   OH234554   0.514   1.789   5.313 -0.1631 -0.1683 -0.2931
 4380TIP3    H134555   0.567   1.865   5.290  0.7506 -1.1653 -1.5681
 4380TIP3    H234556   0.551   1.717   5.261 -1.4746 -1.3218  0.3288
 4381TIP3   OH234557   6.521   5.674  10.476  0.0959  0.1231 -0.1287
 4381TIP3    H134558   6.483   5.753  10.439  0.3972 -0.3276 -1.4442
 4381TIP3    H234559   6.597   5.705  10.525 -1.1242  0.8703  1.3041
 4382TIP3   OH234560   4.651   6.515  15.606  0.1216  0.6218 -0.2137
 4382TIP3    H134561   4.611   6.585  15.555 -0.5359 -0.0876 -0.6828
 4382TIP3    H234562   4.651   6.548  15.696 -1.0780  0.8320 -0.2816
 4383TIP3   OH234563   2.584   4.357  15.303 -0.4880  0.3610 -0.1078
 4383TIP3    H134564   2.508   4.333  15.250 -0.2271  0.2586 -0.4287
 4383TIP3    H234565   2.615   4.439  15.264  0.9395 -0.7557 -1.3881
 4384TIP3   OH234566   5.458   6.119   6.024  0.0511  0.8040  0.2118
 4384TIP3    H134567   5.365   6.122   6.044 -0.4060 -1.4874 -1.3429
 4384TIP3    H234568   5.468   6.173   5.946 -0.1740  0.1621 -0.2658
 4385TIP3   OH234569   3.375   4.269  11.086  0.3263 -0.2180  0.4167
 4385TIP3    H134570   3.438   4.304  11.150 -0.9790 -2.0634  2.7894
 4385TIP3    H234571   3.402   4.178  11.075 -0.2392 -0.2459 -0.7152
 4386TIP3   OH234572   2.725   3.278   6.501 -0.2537  0.2113  0.0076
 4386TIP3    H134573   2.722   3.262   6.595 -1.2116  0.4316  0.0193
 4386TIP3    H234574   2.682   3.362   6.489  0.3323  0.4312 -0.5746
 4387TIP3   OH234575   0.332   3.954  14.403 -0.2503  0.1319  0.0664
 4387TIP3    H134576   0.279   3.922  14.329  0.7504  0.1129 -0.6545
 4387TIP3    H234577   0.394   4.015  14.363  1.7376 -1.5046  0.5579
 4388TIP3   OH234578   4.801   1.826  15.524 -0.5939 -0.1193  0.2220
 4388TIP3    H134579   4.846   1.857  15.603  1.0536 -0.5176 -0.5395
 4388TIP3    H234580   4.843   1.874  15.452 -1.3200 -0.5793 -0.5151
 4389TIP3   OH234581   1.996   3.127   1.199 -0.5936 -0.4804  0.6932
 4389TIP3    H134582   2.015   3.163   1.112 -1.2885  2.4203  1.6975
 4389TIP3    H234583   2.066   3.064   1.215  0.6609  0.4138 -1.1400
 4390TIP3   OH234584   1.779   2.732   0.551  0.0837  0.0983 -0.1084
 4390TIP3    H134585   1.764   2.824   0.529 -0.5700  0.0943  0.3053
 4390TIP3    H234586   1.692   2.693   0.550  0.4708 -0.7422 -1.2680
 4391TIP3   OH234587   2.606   3.322  11.940 -0.0155 -0.2232  0.1563
 4391TIP3    H134588   2.624   3.414  11.959  0.2966 -0.2340 -0.0865
 4391TIP3    H234589   2.657   3.303  11.861  1.3781 -1.1048  1.2430
 4392TIP3   OH234590   5.541   0.494   0.514 -0.0100  0.6487  0.2093
 4392TIP3    H134591   5.545   0.441   0.435 -1.0027  0.7154  0.1056
 4392TIP3    H234592   5.553   0.584   0.483 -2.8387  0.9192 -0.1862
 4393TIP3   OH234593   4.462   1.319  12.938  0.0090  0.2786 -0.0886
 4393TIP3    H134594   4.371   1.346  12.927 -0.5714 -0.2017  3.1359
 4393TIP3    H234595   4.464   1.228  12.909 -0.5946  0.1981  0.1205
 4394TIP3   OH234596   6.137   0.776  14.509  0.0659 -0.4699  0.1839
 4394TIP3    H134597   6.103   0.763  14.421  1.7720 -2.2864 -0.2535
 4394TIP3    H234598   6.129   0.870  14.525 -1.1704 -0.2677 -1.5110
 4395TIP3   OH234599   1.162   3.880  12.871 -0.2287 -0.3563 -0.2592
 4395TIP3    H134600   1.171   3.859  12.964 -0.2460  1.5602  0.1777
 4395TIP3    H234601   1.112   3.961  12.869  0.7914  0.2476 -1.9041
 4396TIP3   OH234602   0.465   4.385   1.489 -0.4641 -0.0353 -0.2828
 4396TIP3    H134603   0.472   4.358   1.398  0.2267 -0.5158 -0.0904
 4396TIP3    H234604   0.509   4.470   1.493 -1.1261  0.3221 -0.5393
 4397TIP3   OH234605   0.816   6.658   5.284 -0.1023  0.2636 -0.0515
 4397TIP3    H134606   0.789   6.744   5.252 -1.1521 -0.1711 -0.3737
 4397TIP3    H234607   0.869   6.677   5.362  0.6894  1.2407 -0.8169
 4398TIP3   OH234608   3.255   6.653   2.763 -0.6980  0.0554  0.5278
 4398TIP3    H134609   3.226   6.708   2.836 -2.9253  0.9033 -0.9528
 4398TIP3    H234610   3.287   6.715   2.697 -0.1521 -0.6216  0.1417
 4399TIP3   OH234611   6.236   4.804   1.618  0.2649  0.2857  0.0237
 4399TIP3    H134612   6.179   4.818   1.543 -4.3626  1.2937  3.4887
 4399TIP3    H234613   6.271   4.715   1.606 -0.6135  0.3145 -3.0747
 4400TIP3   OH234614   4.932   6.061   4.403 -0.1618  0.1075 -1.0909
 4400TIP3    H134615   4.989   6.016   4.466 -0.2719 -1.2680 -1.9398
 4400TIP3    H234616   4.987   6.132   4.368  0.5401 -0.3065 -0.8469
 4401TIP3   OH234617   0.160   0.431   5.759 -0.8066  0.5075  0.1380
 4401TIP3    H134618   0.079   0.389   5.787 -0.8306  0.3330 -0.1863
 4401TIP3    H234619   0.137   0.523   5.748 -1.0488  0.4024 -0.2748
 4402TIP3   OH234620   2.611   1.869  15.842 -0.3898  0.2519  0.4432
 4402TIP3    H134621   2.686   1.870  15.783 -0.5900  0.8885  0.2017
 4402TIP3    H234622   2.537   1.847  15.786 -0.0715 -2.5707  1.0534
 4403TIP3   OH234623   0.911   3.496   4.789 -0.4239  0.2709 -0.1697
 4403TIP3    H134624   0.919   3.404   4.764 -2.1481 -0.1392  0.7637
 4403TIP3    H234625   0.960   3.502   4.872  2.0119  0.8128 -1.5877
 4404TIP3   OH234626   1.582   0.697   3.427  0.1381 -0.3303  0.2445
 4404TIP3    H134627   1.613   0.654   3.507  0.7343 -1.5216 -0.6168
 4404TIP3    H234628   1.501   0.652   3.405  0.3363 -0.4657 -0.2086
 4405TIP3   OH234629   2.175   1.517  11.284  0.6029  0.4039  0.5007
 4405TIP3    H134630   2.206   1.594  11.332  1.9174 -0.8782  1.8049
 4405TIP3    H234631   2.216   1.443  11.330 -0.6222 -1.0648 -0.7173
 4406TIP3   OH234632   1.186   1.519   4.560  0.2599 -0.0435 -0.2505
 4406TIP3    H134633   1.134   1.443   4.587  1.2540 -0.4332  0.6021
 4406TIP3    H234634   1.178   1.521   4.465  0.7124 -1.5799 -0.3323
 4407TIP3   OH234635   0.475   2.869   1.709 -0.1974 -0.7896  0.2719
 4407TIP3    H134636   0.474   2.790   1.656 -1.4052 -0.8109  0.3166
 4407TIP3    H234637   0.566   2.899   1.706  0.0605 -1.6422 -0.5337
 4408TIP3   OH234638   0.156   4.780   6.170 -0.3765 -0.3229 -0.3505
 4408TIP3    H134639   0.128   4.689   6.174 -1.2007 -0.0977 -0.9519
 4408TIP3    H234640   0.166   4.806   6.262 -1.0357 -0.7395 -0.1628
 4409TIP3   OH234641   0.688   2.515  11.124 -0.0295 -0.1524  0.1817
 4409TIP3    H134642   0.601   2.555  11.128  0.6162  1.3883 -0.6873
 4409TIP3    H234643   0.714   2.523  11.033  0.8831 -0.9282  0.3630
 4410TIP3   OH234644   1.109   3.290   1.618  0.1638  0.2673 -0.2163
 4410TIP3    H134645   1.117   3.244   1.535 -1.5871 -1.6469  0.6224
 4410TIP3    H234646   1.089   3.381   1.595  2.9814  0.5257 -1.8938
 4411TIP3   OH234647   5.231   0.326  10.628  0.4014 -0.6824  0.2237
 4411TIP3    H134648   5.139   0.350  10.611  0.9263 -0.3882 -2.4191
 4411TIP3    H234649   5.240   0.239  10.590  1.6442  0.0226 -1.1693
 4412TIP3   OH234650   0.084   5.239   3.691  0.5130 -0.1832  0.0596
 4412TIP3    H134651   0.134   5.320   3.682  0.8758 -0.4370 -0.2171
 4412TIP3    H234652   0.036   5.250   3.772 -1.5535  1.4599 -1.3317
 4413TIP3   OH234653   4.170   1.954   4.615  0.1194  0.0827  0.0460
 4413TIP3    H134654   4.179   1.901   4.535 -1.2597 -0.1704  0.0364
 4413TIP3    H234655   4.219   2.034   4.597  0.1098 -0.1253 -0.9276
 4414TIP3   OH234656   6.378   1.516  16.651 -0.4950 -0.0756  0.1772
 4414TIP3    H134657   6.467   1.490  16.629 -1.1018 -1.3048 -0.8927
 4414TIP3    H234658   6.388   1.598  16.699  1.0817  0.9655 -1.8528
 4415TIP3   OH234659   2.036   3.927  13.053  0.0684 -0.0135 -0.2414
 4415TIP3    H134660   2.112   3.904  12.999 -1.2990 -0.8087 -1.8618
 4415TIP3    H234661   1.992   3.843  13.067  0.1277  0.2721  1.7020
 4416TIP3   OH234662   3.045   5.530  12.678  0.1134  0.1133 -0.4135
 4416TIP3    H134663   3.105   5.595  12.714 -0.0427 -0.2344  0.4873
 4416TIP3    H234664   3.079   5.446  12.709 -0.2836 -0.1570 -0.7094
 4417TIP3   OH234665   2.097   2.991  13.962 -0.2516 -0.1040  0.4382
 4417TIP3    H134666   2.083   2.943  14.043 -0.3645  0.7060  0.9061
 4417TIP3    H234667   2.131   2.926  13.901 -1.5533 -1.0509  0.6907
 4418TIP3   OH234668   1.675   5.975   2.734 -0.0358  0.6566 -0.5434
 4418TIP3    H134669   1.679   6.058   2.685 -0.1196  1.1676  0.3007
 4418TIP3    H234670   1.716   5.995   2.818 -1.2218  0.1966  0.1575
 4419TIP3   OH234671   0.993   0.226   4.125  0.0450  0.2523  0.1748
 4419TIP3    H134672   1.046   0.259   4.053  0.2081 -0.6689 -0.1363
 4419TIP3    H234673   0.921   0.179   4.083  0.5846 -0.9837  0.6068
 4420TIP3   OH234674   3.626   1.765  16.982  0.4646 -0.0075  0.4267
 4420TIP3    H134675   3.641   1.680  16.941  0.9326 -0.0793  0.7516
 4420TIP3    H234676   3.712   1.792  17.014  0.0327 -0.1294  1.7188
 4421TIP3   OH234677   4.831   6.664  15.427 -0.4536 -0.1930 -0.2249
 4421TIP3    H134678   4.823   6.630  15.516 -1.8002  1.8144  0.4841
 4421TIP3    H234679   4.822   6.588  15.370 -0.3137 -1.3991  1.3449
 4422TIP3   OH234680   0.427   2.678   0.237  0.3935  0.5567 -0.2015
 4422TIP3    H134681   0.471   2.595   0.256  0.8408  0.3487 -2.0800
 4422TIP3    H234682   0.455   2.737   0.308  0.2278 -0.8152  1.0309
 4423TIP3   OH234683   4.889   0.565  14.287  0.0791  0.4852 -0.1075
 4423TIP3    H134684   4.852   0.607  14.210 -0.0959 -0.0291 -0.3006
 4423TIP3    H234685   4.823   0.577  14.356  1.1309  2.8682  0.5825
 4424TIP3   OH234686   0.760   3.871  16.718 -0.5667  0.0573 -0.7837
 4424TIP3    H134687   0.836   3.814  16.705  0.9223  2.2499 -2.0091
 4424TIP3    H234688   0.709   3.863  16.638 -1.4937 -1.1667 -0.0924
 4425TIP3   OH234689   6.023   5.222  12.223 -0.4057  0.1193  0.3587
 4425TIP3    H134690   5.990   5.255  12.139 -1.7297  2.7939  1.8588
 4425TIP3    H234691   6.090   5.285  12.249 -1.4144  0.4458  2.2435
 4426TIP3   OH234692   4.487   4.215  14.235 -0.0985 -0.3078 -0.2672
 4426TIP3    H134693   4.535   4.137  14.262  0.7190  0.7356  1.3220
 4426TIP3    H234694   4.538   4.288  14.269 -2.5119  0.8517  1.0029
 4427TIP3   OH234695   6.655   1.683  16.943 -0.0310  0.0504  0.1420
 4427TIP3    H134696   6.645   1.778  16.944 -0.3918  0.0058  0.7492
 4427TIP3    H234697   6.648   1.656  17.034 -0.4521 -0.6137 -0.0804
 4428TIP3   OH234698   1.766   3.557   5.860  0.6542  0.4021  0.5238
 4428TIP3    H134699   1.859   3.544   5.845  0.5200  0.4453 -0.3579
 4428TIP3    H234700   1.723   3.511   5.788  0.0202  1.0621  0.4711
 4429TIP3   OH234701   1.490   4.365   4.047 -0.7732  0.3267 -0.2094
 4429TIP3    H134702   1.439   4.319   4.113 -3.3759  0.8374 -1.8255
 4429TIP3    H234703   1.521   4.444   4.093 -0.1143 -0.7353  1.2184
 4430TIP3   OH234704   1.915   5.728  16.972  0.1743 -0.2003  0.3180
 4430TIP3    H134705   1.860   5.788  16.922  0.8455 -1.3027 -1.8026
 4430TIP3    H234706   1.862   5.703  17.047 -1.7480 -0.2624 -1.0319
 4431TIP3   OH234707   3.907   3.116   1.780  0.1402  0.3720  0.2946
 4431TIP3    H134708   3.924   3.069   1.862 -3.1863  0.1964  0.9463
 4431TIP3    H234709   3.921   3.208   1.803  0.9982  0.1703  0.5812
 4432TIP3   OH234710   6.168   3.675   2.469  0.3402 -0.0977 -0.6082
 4432TIP3    H134711   6.129   3.680   2.556  0.8530 -0.5145 -0.3492
 4432TIP3    H234712   6.128   3.599   2.428  0.9370 -0.5761 -0.3109
 4433TIP3   OH234713   3.374   0.112  13.913 -0.0378  0.1538  0.3849
 4433TIP3    H134714   3.438   0.182  13.923  0.3008  0.0763 -1.1341
 4433TIP3    H234715   3.312   0.146  13.848  0.3087 -1.0820 -0.6050
 4434TIP3   OH234716   4.719   6.147   0.865 -0.5241  0.3126 -0.1042
 4434TIP3    H134717   4.649   6.212   0.869 -0.5037  0.2760  0.9149
 4434TIP3    H234718   4.681   6.068   0.903 -0.4776 -0.2199 -1.1475
 4435TIP3   OH234719   2.252   2.131  16.370  0.4989  0.2412 -0.3308
 4435TIP3    H134720   2.343   2.136  16.399  1.3026 -3.4649 -1.8212
 4435TIP3    H234721   2.228   2.221  16.349  3.5182  1.4137  0.9588
 4436TIP3   OH234722   4.406   6.678  15.074  0.0480  0.0935  0.1810
 4436TIP3    H134723   4.374   6.642  14.991 -0.2251  1.0438 -0.1258
 4436TIP3    H234724   4.444   6.762  15.051 -1.5471  1.1357  1.2746
 4437TIP3   OH234725   6.704   2.586   1.810  0.0610  0.1308  0.8269
 4437TIP3    H134726   6.741   2.560   1.725 -1.2201 -1.0702  0.6292
 4437TIP3    H234727   6.722   2.511   1.867  1.2081  1.0651  1.7264
 4438TIP3   OH234728   2.691   4.925  12.825  0.7105 -0.1502  0.2510
 4438TIP3    H134729   2.764   4.945  12.767  1.7193 -1.2624  1.1152
 4438TIP3    H234730   2.620   4.982  12.795  1.4402 -0.1978 -1.6034
 4439TIP3   OH234731   1.565   1.931   2.719  0.3981  0.0233 -0.2993
 4439TIP3    H134732   1.596   1.892   2.637 -0.1362 -0.2631 -0.3711
 4439TIP3    H234733   1.581   2.025   2.708  2.7654 -0.2780  0.3527
 4440TIP3   OH234734   5.355   4.814  12.321  0.5643  0.0940 -0.5139
 4440TIP3    H134735   5.440   4.791  12.284  0.9382  1.8454 -0.7615
 4440TIP3    H234736   5.368   4.810  12.416  0.9353  0.3889 -0.5517
 4441TIP3   OH234737   4.837   2.689   1.349  0.0544 -0.4645 -0.2082
 4441TIP3    H134738   4.763   2.651   1.397  0.7376  0.8330  1.9245
 4441TIP3    H234739   4.825   2.657   1.259 -2.2299 -1.5303  0.4156
 4442TIP3   OH234740   3.547   2.840   2.200 -0.7081  0.0372  0.4715
 4442TIP3    H134741   3.507   2.761   2.164  0.6252 -1.0801  1.3874
 4442TIP3    H234742   3.590   2.811   2.280 -0.7352  1.8220  1.1616
 4443TIP3   OH234743   3.484   6.380  11.544  0.5186 -0.6444  0.3561
 4443TIP3    H134744   3.537   6.396  11.621 -1.4005  0.5031  1.4741
 4443TIP3    H234745   3.460   6.467  11.512 -0.5944 -1.1385 -0.1916
 4444TIP3   OH234746   0.691   1.023   1.453 -0.4689 -0.4491 -0.9895
 4444TIP3    H134747   0.614   0.968   1.443 -0.9362 -0.1387  0.7919
 4444TIP3    H234748   0.687   1.055   1.544 -0.0293  2.2079 -1.8396
 4445TIP3   OH234749   1.049   4.652  15.674  0.0553 -0.0975 -0.0579
 4445TIP3    H134750   1.010   4.716  15.734  1.7667  0.0565  0.8982
 4445TIP3    H234751   1.017   4.678  15.587  0.1300  1.5825  0.4155
 4446TIP3   OH234752   1.112   1.578   6.020  0.4868 -0.3400 -0.1720
 4446TIP3    H134753   1.101   1.486   6.044 -0.3899 -0.1921  0.0219
 4446TIP3    H234754   1.162   1.616   6.092 -1.1045 -0.1618  0.8632
 4447TIP3   OH234755   3.625   1.622   5.587 -0.0705  0.2740 -0.9622
 4447TIP3    H134756   3.697   1.611   5.648  0.5044 -0.7940 -1.8218
 4447TIP3    H234757   3.628   1.715   5.562 -1.1441  1.0651  1.6298
 4448TIP3   OH234758   1.273   4.272  12.115  0.2372 -0.4036  0.0273
 4448TIP3    H134759   1.228   4.188  12.111  0.6020 -0.5819 -0.4242
 4448TIP3    H234760   1.287   4.295  12.023 -0.1304  0.2939  0.1421
 4449TIP3   OH234761   2.738   5.032   3.660  0.2629  0.3253  0.0403
 4449TIP3    H134762   2.735   5.051   3.753 -1.6135  2.1628 -0.3534
 4449TIP3    H234763   2.829   5.010   3.642  1.5256  4.0074  1.5645
 4450TIP3   OH234764   0.775   6.416  16.704 -0.0687 -0.5640 -0.2124
 4450TIP3    H134765   0.855   6.465  16.683  1.2954 -2.3755  0.5993
 4450TIP3    H234766   0.732   6.469  16.771  0.7172  0.1687 -0.2682
 4451TIP3   OH234767   3.465   5.226  12.647 -0.1430  0.1588  0.3341
 4451TIP3    H134768   3.422   5.142  12.663  0.7581  0.0527  2.3243
 4451TIP3    H234769   3.401   5.292  12.673 -0.5955  0.0754 -0.5684
 4452TIP3   OH234770   2.814   0.138   5.365  0.0322  0.1066  0.9133
 4452TIP3    H134771   2.763   0.065   5.331  0.7886  0.1008 -0.2456
 4452TIP3    H234772   2.890   0.143   5.307  1.8654 -0.5261  3.1511
 4453TIP3   OH234773   3.956   1.861  14.932  0.7060 -0.1736 -0.3561
 4453TIP3    H134774   3.992   1.869  15.021  0.7801 -1.2781 -0.2784
 4453TIP3    H234775   4.004   1.925  14.880  1.6170 -0.4677  0.1119
 4454TIP3   OH234776   5.807   3.602  16.572 -0.3536 -0.2069 -0.5362
 4454TIP3    H134777   5.851   3.553  16.503  0.4149  3.5429 -2.8688
 4454TIP3    H234778   5.726   3.632  16.531 -0.0134  1.8248  0.2485
 4455TIP3   OH234779   3.624   3.995   6.800 -0.5883 -0.3635  0.6233
 4455TIP3    H134780   3.578   4.075   6.775  1.0629  0.6606  0.7871
 4455TIP3    H234781   3.574   3.961   6.875 -0.4470  1.3154  1.5011
 4456TIP3   OH234782   0.008   5.126  13.610  0.1272  0.4030 -0.9484
 4456TIP3    H134783   0.103   5.119  13.599  0.2930  0.8723  0.1483
 4456TIP3    H234784  -0.003   5.188  13.682 -0.9780 -0.4436 -0.3832
 4457TIP3   OH234785   6.665   5.327   1.439 -0.1636  0.4243  0.2268
 4457TIP3    H134786   6.604   5.357   1.505  0.0759  1.2162  0.1062
 4457TIP3    H234787   6.618   5.259   1.390 -0.6815  0.5236  0.5905
 4458TIP3   OH234788   5.273   0.470   4.437 -0.1210  0.0517 -0.2129
 4458TIP3    H134789   5.246   0.541   4.495  0.2017  0.0479 -0.0619
 4458TIP3    H234790   5.367   0.480   4.427 -0.4151  1.1465 -2.1790
 4459TIP3   OH234791   1.705   5.845  14.835 -0.0674  0.5051  0.4908
 4459TIP3    H134792   1.733   5.881  14.919  1.2022 -1.5185  0.9618
 4459TIP3    H234793   1.613   5.822  14.849  0.6251 -1.5301  1.9514
 4460TIP3   OH234794   2.220   1.010  13.451 -0.4705  0.1035  0.0548
 4460TIP3    H134795   2.204   0.922  13.417 -3.5222  0.0663  1.4179
 4460TIP3    H234796   2.179   1.068  13.387  1.2472  0.5764 -0.6665
 4461TIP3   OH234797   2.250   3.244   5.790 -0.8923  0.0526 -0.1661
 4461TIP3    H134798   2.287   3.162   5.823 -0.4768  0.6302  0.8140
 4461TIP3    H234799   2.288   3.312   5.845 -1.8618  0.8384 -0.4429
 4462TIP3   OH234800   2.335   5.366   2.718  0.9521  0.3442 -0.2955
 4462TIP3    H134801   2.357   5.359   2.811  1.6077  3.6591 -0.1291
 4462TIP3    H234802   2.279   5.444   2.712 -0.2658 -0.6409 -2.4994
 4463TIP3   OH234803   6.553   2.483  17.124  0.2105  0.1437 -0.0034
 4463TIP3    H134804   6.536   2.576  17.140  0.5876 -0.0691  1.6317
 4463TIP3    H234805   6.521   2.469  17.034 -1.2391  1.4973  0.2712
 4464TIP3   OH234806   6.761   5.907   4.017 -0.3105  0.2747  0.7271
 4464TIP3    H134807   6.706   5.893   4.095 -0.1424  0.5955  0.9056
 4464TIP3    H234808   6.700   5.900   3.943 -0.1294 -1.9966  0.7605
 4465TIP3   OH234809   5.100   1.237  16.246 -0.5913  0.0067  0.5005
 4465TIP3    H134810   5.171   1.297  16.223  0.9008 -1.7794  0.3508
 4465TIP3    H234811   5.117   1.213  16.337 -0.0094 -1.7308 -0.0394
 4466TIP3   OH234812   1.817   6.297   0.030  0.0854  0.0405 -0.3613
 4466TIP3    H134813   1.760   6.366   0.066  0.3404  1.0578 -1.8586
 4466TIP3    H234814   1.758   6.240  -0.019  0.1831  0.4270 -0.9309
 4467TIP3   OH234815   3.575   0.227   3.669  0.1373 -0.4599 -0.1783
 4467TIP3    H134816   3.650   0.176   3.640  0.0632  0.1501 -1.5326
 4467TIP3    H234817   3.524   0.241   3.589  1.1184  3.3222 -0.2710
 4468TIP3   OH234818   2.204   3.678  12.257  0.1156 -0.3575  0.1815
 4468TIP3    H134819   2.194   3.769  12.229  1.4683 -0.5104 -0.8781
 4468TIP3    H234820   2.170   3.676  12.346 -0.9985  0.9321 -0.2041
 4469TIP3   OH234821   2.393   5.274   1.908  0.3456 -0.1268 -0.4380
 4469TIP3    H134822   2.369   5.319   1.827 -0.7342  0.1557  0.0358
 4469TIP3    H234823   2.371   5.336   1.978 -1.8714 -1.6555  0.2634
 4470TIP3   OH234824   3.428   5.647   3.870  0.5313  0.1555  0.2481
 4470TIP3    H134825   3.433   5.644   3.774  1.6602  1.0774  0.2679
 4470TIP3    H234826   3.499   5.706   3.896 -0.0686  0.2880  1.6279
 4471TIP3   OH234827   1.711   0.550   4.199  0.3144 -0.3078  0.2702
 4471TIP3    H134828   1.648   0.522   4.265 -1.5949  2.7640 -0.1509
 4471TIP3    H234829   1.752   0.628   4.237  1.9417 -0.6859 -0.6381
 4472TIP3   OH234830   2.401   2.363   2.853  0.0010 -0.2318 -0.2003
 4472TIP3    H134831   2.463   2.431   2.825 -0.5431  0.0367 -0.7696
 4472TIP3    H234832   2.343   2.407   2.915  1.1486 -0.8057  1.2940
 4473TIP3   OH234833   3.794   0.954  12.514 -0.0975 -0.2362  0.3188
 4473TIP3    H134834   3.757   0.895  12.448 -0.8765  0.4181  0.1610
 4473TIP3    H234835   3.721   1.012  12.537  0.4093  0.0794  1.1382
 4474TIP3   OH234836   3.739   1.932  14.198 -0.5882 -0.1198  0.2716
 4474TIP3    H134837   3.824   1.901  14.166 -0.1967  1.4573 -0.2315
 4474TIP3    H234838   3.686   1.942  14.119 -1.3848 -1.4365  0.6105
 4475TIP3   OH234839   1.414   4.328  16.635  0.4439  0.3441  0.1307
 4475TIP3    H134840   1.435   4.280  16.715  1.6512  1.9915  0.8469
 4475TIP3    H234841   1.472   4.404  16.637 -0.7120  1.3028 -1.4654
 4476TIP3   OH234842   6.304   5.116  13.481 -0.4825  0.1636  0.3896
 4476TIP3    H134843   6.385   5.165  13.498  0.2366 -0.6418 -0.6774
 4476TIP3    H234844   6.237   5.184  13.474  0.5609  1.0623 -1.4359
 4477TIP3   OH234845   2.889   1.060   1.914 -0.7160 -0.3659  0.0391
 4477TIP3    H134846   2.895   0.977   1.867 -4.7127 -0.0915 -1.1540
 4477TIP3    H234847   2.809   1.053   1.965 -0.5069  2.3291  0.8332
 4478TIP3   OH234848   3.794   5.029   5.398  0.7311 -0.0455  0.1827
 4478TIP3    H134849   3.735   5.002   5.327 -0.9532  4.1077 -0.1462
 4478TIP3    H234850   3.863   5.080   5.354  0.2540  1.6636  1.3311
 4479TIP3   OH234851   2.071   2.470  14.911  0.0287  0.1199  0.4662
 4479TIP3    H134852   2.039   2.557  14.886  0.9634  0.4614  0.4428
 4479TIP3    H234853   2.094   2.479  15.004  0.5907  0.0313  0.3350
 4480TIP3   OH234854   6.386   3.713   0.909 -0.3452 -0.2274 -0.1008
 4480TIP3    H134855   6.366   3.634   0.860  1.3872 -1.0915  0.5529
 4480TIP3    H234856   6.481   3.717   0.910 -0.4001  1.1357  1.0334
 4481TIP3   OH234857   6.158   3.094  14.892 -0.1375  0.0089  0.6165
 4481TIP3    H134858   6.246   3.061  14.907  0.5424  0.5510 -1.9483
 4481TIP3    H234859   6.119   3.033  14.830 -1.9083 -0.7089  2.3811
 4482TIP3   OH234860   5.215   5.519  12.341  0.1677 -0.5322 -0.0956
 4482TIP3    H134861   5.291   5.465  12.319  0.1003  0.0815 -1.8579
 4482TIP3    H234862   5.253   5.596  12.384  0.4257 -0.8596  0.2794
 4483TIP3   OH234863   0.911   5.998  16.422  0.6393 -0.2469  0.0786
 4483TIP3    H134864   0.868   5.925  16.467 -1.6568  0.6497 -0.5861
 4483TIP3    H234865   0.909   6.070  16.486 -0.2919  0.2551 -0.4939
 4484TIP3   OH234866   1.872   2.678  13.931  0.0680 -0.1254  0.3160
 4484TIP3    H134867   1.942   2.619  13.905 -1.0145 -1.7532  1.0381
 4484TIP3    H234868   1.823   2.696  13.851  0.4500 -0.1207  0.0823
 4485TIP3   OH234869   1.111   2.712   0.834 -0.1879 -0.2691 -0.6938
 4485TIP3    H134870   1.192   2.714   0.784 -0.9746 -0.1990 -1.9753
 4485TIP3    H234871   1.053   2.655   0.784 -1.1764  0.2416 -0.1413
 4486TIP3   OH234872   1.085   1.862  14.297 -0.5904 -0.1077 -0.2535
 4486TIP3    H134873   1.105   1.943  14.250  1.5820  0.2962  1.2984
 4486TIP3    H234874   1.053   1.802  14.229 -1.7946  1.8671 -1.4963
 4487TIP3   OH234875   0.805   5.008   1.089 -0.2169 -0.4655 -0.2000
 4487TIP3    H134876   0.745   4.963   1.030 -0.2357 -1.1559  0.3384
 4487TIP3    H234877   0.887   4.959   1.082 -0.6502 -1.4929  1.4716
 4488TIP3   OH234878   3.376   6.277   1.798  0.4571 -0.0528 -0.0178
 4488TIP3    H134879   3.416   6.260   1.713 -1.0358  0.3666 -0.8167
 4488TIP3    H234880   3.375   6.372   1.806  0.2344 -0.0790  0.2913
 4489TIP3   OH234881   4.609   2.038  15.556  0.1831 -0.1829 -0.2457
 4489TIP3    H134882   4.700   2.012  15.537  0.5633  0.3565  0.8201
 4489TIP3    H234883   4.610   2.067  15.647 -1.1097 -0.3462 -0.1684
 4490TIP3   OH234884   4.495   5.485   3.298  0.3740  0.1042 -0.4054
 4490TIP3    H134885   4.402   5.508   3.307  0.5605 -0.2664  3.0680
 4490TIP3    H234886   4.494   5.393   3.271 -0.2623 -0.0064 -0.0085
 4491TIP3   OH234887   2.178   6.114  12.268  0.0084  0.2265 -0.2769
 4491TIP3    H134888   2.162   6.164  12.188  0.3839  1.2554  0.2891
 4491TIP3    H234889   2.263   6.144  12.299  0.7772 -1.5886 -0.5467
 4492TIP3   OH234890   6.488   3.797   3.565  0.0030 -0.3550  0.3188
 4492TIP3    H134891   6.493   3.891   3.548  1.2034 -0.7640 -1.7499
 4492TIP3    H234892   6.474   3.758   3.478  1.5650 -2.2311  0.8887
 4493TIP3   OH234893   3.068   5.796  14.206  0.0849  0.3750 -0.3541
 4493TIP3    H134894   3.068   5.701  14.218  0.3330  0.6475  2.0399
 4493TIP3    H234895   3.122   5.829  14.278 -2.4910  2.5467  0.6347
 4494TIP3   OH234896   1.709   5.368   4.781 -0.9384  0.0900  0.3967
 4494TIP3    H134897   1.775   5.437   4.778 -1.8824  0.9449 -2.8204
 4494TIP3    H234898   1.744   5.297   4.728 -1.9356 -0.0352 -0.1209
 4495TIP3   OH234899   1.744   5.244  10.875  0.0507  0.3223 -0.0566
 4495TIP3    H134900   1.830   5.257  10.916  1.4813 -2.5817 -1.9554
 4495TIP3    H234901   1.684   5.236  10.948  1.9333 -0.7995  1.4291
 4496TIP3   OH234902   4.415   4.843   2.755 -0.2998 -0.2329 -0.1574
 4496TIP3    H134903   4.478   4.778   2.785  0.1214  0.5318  0.6265
 4496TIP3    H234904   4.382   4.808   2.672 -0.3242 -1.5990  0.4180
 4497TIP3   OH234905   3.080   2.591  12.384  0.6274  0.2168 -0.5600
 4497TIP3    H134906   3.153   2.632  12.429 -0.9184  0.9978  1.3362
 4497TIP3    H234907   3.118   2.554  12.304  2.7874  1.8672 -0.3417
 4498TIP3   OH234908   6.577   6.754  14.245 -0.8444 -0.5535  0.2597
 4498TIP3    H134909   6.631   6.757  14.324  2.1479 -0.7238 -1.7009
 4498TIP3    H234910   6.576   6.845  14.215 -1.1498 -0.6598 -0.0427
 4499TIP3   OH234911   6.411   0.672  15.374  0.0928 -0.1116  0.2281
 4499TIP3    H134912   6.480   0.609  15.395  1.0822  1.2959  1.3518
 4499TIP3    H234913   6.393   0.716  15.457 -0.6968  0.9714 -0.4984
 4500TIP3   OH234914   1.633   6.004  12.730 -0.7112 -0.5546  0.6273
 4500TIP3    H134915   1.541   6.007  12.706 -0.2061  2.3501 -1.2508
 4500TIP3    H234916   1.651   6.091  12.768  1.6893 -0.2842 -0.9697
 4501TIP3   OH234917   2.476   3.442   1.109 -0.1936 -0.2079 -0.1208
 4501TIP3    H134918   2.532   3.364   1.113 -0.3909 -0.3287  0.3646
 4501TIP3    H234919   2.407   3.425   1.174 -0.2087  0.3931  0.0220
 4502TIP3   OH234920   2.820   3.003  16.241 -0.0864 -0.7091 -0.2196
 4502TIP3    H134921   2.843   3.000  16.333 -1.5569  0.4457  0.2096
 4502TIP3    H234922   2.724   3.003  16.240 -0.1925  3.6595 -1.5171
 4503TIP3   OH234923   1.184   4.226  15.293 -0.7327  0.4148  0.6354
 4503TIP3    H134924   1.152   4.137  15.277 -1.3404  0.3452  2.2345
 4503TIP3    H234925   1.274   4.214  15.322 -1.0107  0.2702  1.4585
 4504TIP3   OH234926   5.450   0.419   1.011 -0.0697 -0.0658  0.4271
 4504TIP3    H134927   5.425   0.400   0.920  1.8089  0.4601 -0.2305
 4504TIP3    H234928   5.444   0.514   1.019 -1.4146 -0.2066  1.2360
 4505TIP3   OH234929   6.432   0.908   3.624 -0.1940  0.2319  0.4625
 4505TIP3    H134930   6.424   0.832   3.683  1.3743  1.5539  2.4402
 4505TIP3    H234931   6.348   0.953   3.633 -0.2980 -0.0644  1.0122
 4506TIP3   OH234932   2.944   3.438  16.416 -0.4509 -0.1803 -0.0154
 4506TIP3    H134933   2.941   3.441  16.320  0.7211  1.3767 -0.0346
 4506TIP3    H234934   2.895   3.514  16.444 -1.1062 -0.8424  0.6405
 4507TIP3   OH234935   2.475   4.058   3.341 -0.3839  0.0804 -0.0013
 4507TIP3    H134936   2.468   4.122   3.269  1.0486 -0.3403 -0.5479
 4507TIP3    H234937   2.568   4.035   3.342 -0.2623  0.5456  2.4085
 4508TIP3   OH234938   3.586   5.824  13.106  0.7697  0.3603 -0.0657
 4508TIP3    H134939   3.522   5.755  13.128  2.2174 -1.4047 -1.2316
 4508TIP3    H234940   3.595   5.874  13.187 -1.9696  0.5669  0.1682
 4509TIP3   OH234941   5.881   6.081  16.057 -0.8972  0.0809 -0.4508
 4509TIP3    H134942   5.897   6.058  16.149 -2.8350  1.8009  0.3524
 4509TIP3    H234943   5.827   6.160  16.061 -0.5692  0.4798 -3.0860
 4510TIP3   OH234944   5.700   2.688   0.241 -0.6194 -0.1869  0.6843
 4510TIP3    H134945   5.715   2.599   0.211  0.7449  0.4169 -0.5244
 4510TIP3    H234946   5.702   2.741   0.161 -0.2197  1.0561  1.4960
 4511TIP3   OH234947   2.026   2.355  15.861 -0.4479 -0.0189 -0.0874
 4511TIP3    H134948   1.979   2.410  15.924  0.3657  0.3607  0.2042
 4511TIP3    H234949   1.983   2.371  15.777 -0.9047  0.2377  0.1964
 4512TIP3   OH234950   3.194   0.220  12.020 -0.4523  0.0774  0.1334
 4512TIP3    H134951   3.255   0.290  11.998 -0.0959  0.5917  2.6019
 4512TIP3    H234952   3.175   0.232  12.113 -2.7527 -1.2928 -0.0983
 4513TIP3   OH234953   3.502   0.161  16.846  0.4081  0.7220  0.3216
 4513TIP3    H134954   3.579   0.197  16.889  0.3381  1.5911 -0.2623
 4513TIP3    H234955   3.441   0.234  16.840 -0.0378  0.3163 -0.1973
 4514TIP3   OH234956   5.679   2.967  12.199 -0.0061  0.1445 -0.3955
 4514TIP3    H134957   5.684   2.994  12.290 -0.7920 -1.3463  0.1084
 4514TIP3    H234958   5.678   3.049  12.149  0.5291  0.9568  0.9192
 4515TIP3   OH234959   6.389   6.359   1.869  0.3927  0.0993  0.3956
 4515TIP3    H134960   6.441   6.340   1.947  0.9673  0.6275  0.1504
 4515TIP3    H234961   6.433   6.313   1.798  1.3118  1.6329 -0.0515
 4516TIP3   OH234962   3.738   4.978   4.487 -0.0263  0.5206  0.2347
 4516TIP3    H134963   3.819   4.926   4.491  0.2436  0.7681 -1.6451
 4516TIP3    H234964   3.735   5.010   4.397 -2.4043  0.2498  0.1937
 4517TIP3   OH234965   6.329   3.790   5.228  0.3686 -0.8431 -0.0147
 4517TIP3    H134966   6.260   3.850   5.200  1.7120  0.2420 -1.0140
 4517TIP3    H234967   6.340   3.730   5.153  1.0791 -0.5126 -0.1715
 4518TIP3   OH234968   1.784   6.706  15.797 -0.0893  0.4241 -0.4788
 4518TIP3    H134969   1.825   6.647  15.861  1.0594  2.0666  0.3335
 4518TIP3    H234970   1.734   6.648  15.740 -0.2107 -1.1949  1.2185
 4519TIP3   OH234971   0.206   1.058  15.336 -0.0590 -0.2279 -0.1915
 4519TIP3    H134972   0.291   1.085  15.371  0.8275 -3.7789  0.5927
 4519TIP3    H234973   0.226   1.014  15.254 -1.2621  0.0671 -0.6460
 4520TIP3   OH234974   6.018   3.257   1.048 -0.6067 -0.3100 -0.8200
 4520TIP3    H134975   6.047   3.179   1.000  1.8033 -1.0554  1.6944
 4520TIP3    H234976   5.949   3.225   1.105  0.6446 -0.7336  0.4897
 4521TIP3   OH234977   3.656   1.023  10.695 -0.0993 -0.2923  0.2429
 4521TIP3    H134978   3.720   0.952  10.704  0.3606 -0.2332 -2.2173
 4521TIP3    H234979   3.577   0.979  10.662  0.4354  0.3854 -2.0835
 4522TIP3   OH234980   4.402   6.032   5.989  0.5626  0.3291 -0.2518
 4522TIP3    H134981   4.423   6.060   5.900 -0.4857  1.3211 -0.2066
 4522TIP3    H234982   4.385   6.114   6.036 -1.5141 -0.3095  0.1690
 4523TIP3   OH234983   3.035   1.638   0.529 -0.1481 -0.0235 -0.8686
 4523TIP3    H134984   3.058   1.712   0.586 -0.6134  0.9947 -1.9867
 4523TIP3    H234985   3.014   1.678   0.445 -0.8830 -1.3934 -1.3496
 4524TIP3   OH234986   5.029   4.286   3.696  0.4765 -0.4738 -0.0270
 4524TIP3    H134987   5.084   4.355   3.734 -0.0005 -1.3716  2.3888
 4524TIP3    H234988   4.940   4.321   3.700  0.4759 -0.3890 -0.7676
 4525TIP3   OH234989   5.227   2.725  11.673 -0.5727  0.2942  0.2965
 4525TIP3    H134990   5.314   2.706  11.708 -1.0644 -1.8350  0.4058
 4525TIP3    H234991   5.211   2.816  11.699  2.1870  1.2089 -0.9637
 4526TIP3   OH234992   5.762   2.048  12.826 -0.5391  0.0759  0.0935
 4526TIP3    H134993   5.677   2.024  12.863 -1.6087  1.0513 -1.6466
 4526TIP3    H234994   5.747   2.051  12.731  1.8625 -1.3695 -0.3784
 4527TIP3   OH234995   0.784   4.398  15.651 -0.1929  0.4149 -0.4769
 4527TIP3    H134996   0.859   4.418  15.594 -0.4269 -3.2069 -2.2722
 4527TIP3    H234997   0.709   4.435  15.605 -0.5317 -3.4096 -3.3449
 4528TIP3   OH234998   1.961   0.312  16.358 -0.3843  0.1410  0.2272
 4528TIP3    H134999   1.919   0.279  16.437 -2.2749 -1.8026 -1.5170
 4528TIP3    H235000   1.945   0.407  16.360 -0.6985  0.0530  1.9851
 4529TIP3   OH235001   3.679   6.174  15.094 -0.4254 -0.0066 -0.4126
 4529TIP3    H135002   3.703   6.088  15.128  0.3618 -0.2566 -1.5759
 4529TIP3    H235003   3.763   6.216  15.072 -0.8744  0.5197 -1.1477
 4530TIP3   OH235004   2.595   3.458  17.214  0.1905 -0.0653 -0.0509
 4530TIP3    H135005   2.526   3.398  17.242  0.5534  0.2613  1.6418
 4530TIP3    H235006   2.549   3.529  17.170 -0.6042  0.2667  1.2668
 4531TIP3   OH235007   3.562   5.853   2.775 -0.1181 -0.2461  0.2791
 4531TIP3    H135008   3.600   5.889   2.855  0.1651 -0.6875  0.3447
 4531TIP3    H235009   3.541   5.763   2.797 -2.4265  0.3579  0.6629
 4532TIP3   OH235010   0.094   6.625  11.583  0.6030  0.2849 -0.0430
 4532TIP3    H135011   0.021   6.644  11.525  1.0710  2.0447 -0.0799
 4532TIP3    H235012   0.082   6.684  11.657 -0.1272 -2.0976  1.8058
 4533TIP3   OH235013   6.656   0.981  15.928  0.0862 -0.0131  0.2885
 4533TIP3    H135014   6.750   0.967  15.918 -0.0626 -0.2004 -0.8560
 4533TIP3    H235015   6.636   1.055  15.870 -0.4436  0.1423  0.6649
 4534TIP3   OH235016   0.255   0.120   4.876 -0.1206  0.1503  0.3056
 4534TIP3    H135017   0.305   0.169   4.942 -0.8627  1.3143  0.0262
 4534TIP3    H235018   0.302   0.137   4.794  0.1288 -0.3377  0.3455
 4535TIP3   OH235019   5.605   3.771  12.432 -0.6413 -0.2602  0.0807
 4535TIP3    H135020   5.531   3.828  12.454 -0.3850  0.8010 -1.6998
 4535TIP3    H235021   5.577   3.724  12.353  1.0954  1.1709 -1.4253
 4536TIP3   OH235022   3.808   3.928  12.975  0.1418  0.4383  0.1503
 4536TIP3    H135023   3.750   3.967  13.040  0.2992  2.1293 -0.6952
 4536TIP3    H235024   3.767   3.948  12.891  0.2923 -1.1403 -0.3173
 4537TIP3   OH235025   1.742   2.296  15.293  0.2699 -0.1653 -0.4163
 4537TIP3    H135026   1.796   2.349  15.235  1.6476 -0.8424  0.2494
 4537TIP3    H235027   1.729   2.214  15.246 -0.5371  0.1430 -0.7500
 4538TIP3   OH235028   2.559   2.454  14.189  0.8743  0.2810 -0.0693
 4538TIP3    H135029   2.572   2.362  14.212  0.1797  0.4141  0.8936
 4538TIP3    H235030   2.464   2.463  14.180  0.9420  0.9115 -0.1311
 4539TIP3   OH235031   1.787   4.235  10.624  0.0684 -0.0080 -0.2330
 4539TIP3    H135032   1.870   4.211  10.583 -0.0655  0.4870 -0.8045
 4539TIP3    H235033   1.797   4.327  10.646 -0.1757 -0.0561  0.0857
 4540TIP3   OH235034   0.266   2.288  13.258 -0.1088  0.3906 -0.3965
 4540TIP3    H135035   0.309   2.280  13.173 -0.5032  0.9548 -0.6537
 4540TIP3    H235036   0.295   2.372  13.293 -0.3706  0.4096 -0.2165
 4541TIP3   OH235037   3.753   5.720   5.207  0.1316 -1.2174  0.2381
 4541TIP3    H135038   3.669   5.757   5.180  0.7502 -0.9153 -1.3008
 4541TIP3    H235039   3.752   5.630   5.174  1.4036 -0.4594 -1.9095
 4542TIP3   OH235040   6.513   4.841  14.874  0.3058  0.4577  0.8079
 4542TIP3    H135041   6.449   4.771  14.890  1.1264 -0.1071  1.6668
 4542TIP3    H235042   6.482   4.884  14.795 -0.4685 -0.5933  0.5268
 4543TIP3   OH235043   0.141   2.404  12.951  0.3703 -0.1823 -0.0518
 4543TIP3    H135044   0.223   2.354  12.952 -0.3606 -1.4780 -1.7713
 4543TIP3    H235045   0.074   2.339  12.969 -0.4497  0.5169 -0.5734
 4544TIP3   OH235046   4.111   1.328   2.373 -0.0821 -0.5443  0.3909
 4544TIP3    H135047   4.140   1.310   2.284 -1.2239  0.0662 -0.1200
 4544TIP3    H235048   4.157   1.408   2.398 -0.5664 -0.1116 -0.0650
 4545TIP3   OH235049   6.168   2.055   4.739  0.0992 -0.2977  0.0689
 4545TIP3    H135050   6.244   2.000   4.755 -2.5221 -4.1401 -0.0950
 4545TIP3    H235051   6.135   2.076   4.827  0.1273 -0.4182  0.1076
 4546TIP3   OH235052   3.970   0.034  12.320 -0.3759  0.1110  0.2336
 4546TIP3    H135053   3.897   0.075  12.368 -1.4989 -0.6999 -0.7420
 4546TIP3    H235054   4.027   0.107  12.297 -1.1007  0.8140  0.6326
 4547TIP3   OH235055   4.172   0.132   3.794  0.6511  0.0492 -0.1163
 4547TIP3    H135056   4.256   0.094   3.767  1.6472  1.2108  1.2163
 4547TIP3    H235057   4.191   0.172   3.879 -0.9247  1.4615 -0.4100
 4548TIP3   OH235058   2.591   5.907   0.255  0.2889 -0.1273  0.4023
 4548TIP3    H135059   2.588   5.848   0.180 -0.8926 -0.6586  0.8610
 4548TIP3    H235060   2.634   5.857   0.324 -0.2007 -0.2460  0.6183
 4549TIP3   OH235061   4.993   5.761  13.040 -0.3798  0.5494  0.1186
 4549TIP3    H135062   4.920   5.714  13.080 -0.5548 -0.7430 -1.6431
 4549TIP3    H235063   4.968   5.771  12.948  0.9155  1.6022 -0.1403
 4550TIP3   OH235064   2.276   0.432   5.905  0.0137  0.3058 -0.0460
 4550TIP3    H135065   2.266   0.485   5.984 -1.9385  1.5085 -1.0530
 4550TIP3    H235066   2.236   0.485   5.836  2.6375 -0.2614 -2.0589
 4551TIP3   OH235067   2.573   5.627   0.540 -0.1491  0.6637 -0.3569
 4551TIP3    H135068   2.586   5.679   0.619  0.4258 -0.4229  0.2680
 4551TIP3    H235069   2.658   5.631   0.495 -1.0647  2.9756 -1.9637
 4552TIP3   OH235070   2.659   6.031   1.175  0.3562  0.3951  0.1711
 4552TIP3    H135071   2.730   5.987   1.129 -1.7119 -1.7394 -1.1320
 4552TIP3    H235072   2.582   6.017   1.119 -1.4265  1.2171  2.3267
 4553TIP3   OH235073   0.240   5.027  16.255 -0.6686  0.0214 -0.3686
 4553TIP3    H135074   0.234   4.932  16.249 -0.4169 -0.1192  1.4277
 4553TIP3    H235075   0.284   5.054  16.174 -1.7248 -1.2764 -1.3970
 4554TIP3   OH235076   3.521   5.917  14.403  0.5911 -0.4202  0.2305
 4554TIP3    H135077   3.577   5.875  14.338 -0.1825 -2.2106  0.6787
 4554TIP3    H235078   3.580   5.973  14.453  1.4141  0.0395 -1.2200
 4555TIP3   OH235079   5.463   0.412  14.138  0.3316 -0.4894 -0.0419
 4555TIP3    H135080   5.479   0.326  14.099  1.6143 -1.0692  1.6969
 4555TIP3    H235081   5.417   0.461  14.070  0.4651 -2.2241 -1.4170
 4556TIP3   OH235082   4.385   0.906  11.635 -0.4204  0.1003  0.1349
 4556TIP3    H135083   4.333   0.836  11.595  0.1064 -0.8182  1.0144
 4556TIP3    H235084   4.345   0.919  11.721 -1.3057  1.7875 -0.4981
 4557TIP3   OH235085   3.411   4.463   2.322 -0.3268 -0.1241  0.3400
 4557TIP3    H135086   3.333   4.412   2.346 -0.8060  0.6100  0.3311
 4557TIP3    H235087   3.476   4.396   2.301 -0.4005 -0.7766  2.0693
 4558TIP3   OH235088   5.859   2.651  15.260 -0.0820 -0.4126 -0.9836
 4558TIP3    H135089   5.867   2.707  15.183 -1.5502  1.1462 -0.0220
 4558TIP3    H235090   5.942   2.660  15.306 -0.1639  0.6429 -1.0431
 4559TIP3   OH235091   4.356   0.271   5.181 -0.5081 -0.0419 -0.3154
 4559TIP3    H135092   4.387   0.317   5.259 -1.0475 -0.5390  0.1942
 4559TIP3    H235093   4.394   0.183   5.188  2.3584  0.9417 -2.4096
 4560TIP3   OH235094   3.047   3.017  12.477  0.4877 -0.0162  0.2398
 4560TIP3    H135095   3.135   3.051  12.493  0.4577  0.2626 -0.1880
 4560TIP3    H235096   2.990   3.093  12.490  0.2089 -0.4429  1.5960
 4561TIP3   OH235097   5.563   5.243   4.165 -0.2377 -0.3936  0.0679
 4561TIP3    H135098   5.470   5.255   4.187 -0.0325  0.1767  0.6335
 4561TIP3    H235099   5.579   5.305   4.094 -0.0038  0.3183  0.7443
 4562TIP3   OH235100   2.983   2.674  11.429  0.0521 -0.0629 -0.0924
 4562TIP3    H135101   2.954   2.766  11.430 -1.3719 -0.4849 -1.1269
 4562TIP3    H235102   2.972   2.647  11.338 -0.5360 -1.5798  0.4246
 4563TIP3   OH235103   2.784   3.035   4.425  0.2156 -0.6619  0.4921
 4563TIP3    H135104   2.699   3.077   4.436  1.1524  1.7973 -1.0706
 4563TIP3    H235105   2.825   3.040   4.511  0.3623  1.8650  0.3099
 4564TIP3   OH235106   3.802   5.861  14.658 -0.4158  0.1945  0.0854
 4564TIP3    H135107   3.796   5.938  14.715 -2.5612  1.4183 -1.7419
 4564TIP3    H235108   3.859   5.801  14.706 -1.5311  1.4952  3.1597
 4565TIP3   OH235109   3.749   3.657   1.741 -0.6942 -0.1322 -0.3037
 4565TIP3    H135110   3.795   3.695   1.816 -1.5223  0.0935  0.0966
 4565TIP3    H235111   3.718   3.573   1.772  0.6028 -0.8914 -0.9999
 4566TIP3   OH235112   0.501   2.589   0.775 -0.1784  0.2163  0.5779
 4566TIP3    H135113   0.478   2.497   0.761 -0.4380  0.6076 -1.7248
 4566TIP3    H235114   0.442   2.618   0.845 -1.7854 -0.7108 -0.3616
 4567TIP3   OH235115   5.631   0.605   3.543 -0.6855 -0.1868  0.4170
 4567TIP3    H135116   5.725   0.618   3.529 -0.7155  1.5038  1.5845
 4567TIP3    H235117   5.625   0.524   3.594 -0.0970 -2.0057 -2.2969
 4568TIP3   OH235118   4.394   6.338   4.488  0.3871 -0.5423 -0.4471
 4568TIP3    H135119   4.331   6.409   4.491 -0.2100 -0.8934 -3.2740
 4568TIP3    H235120   4.413   6.318   4.580 -1.5965  1.3214  0.3965
 4569TIP3   OH235121   1.199   5.592   6.035  0.4468  0.6002  0.3504
 4569TIP3    H135122   1.214   5.542   5.955  1.7271  0.9551  0.3530
 4569TIP3    H235123   1.212   5.530   6.106  0.1841  0.4916  0.3019
 4570TIP3   OH235124   3.927   5.455  14.659 -0.3044  0.3997 -1.1332
 4570TIP3    H135125   3.945   5.501  14.577 -0.1772  0.8240 -0.8639
 4570TIP3    H235126   3.981   5.498  14.724  2.0777 -2.0144 -1.4342
 4571TIP3   OH235127   6.583   3.010   5.248  0.1038  0.3282  0.4288
 4571TIP3    H135128   6.669   3.008   5.206 -0.2489  0.4309 -0.3048
 4571TIP3    H235129   6.543   2.926   5.225  0.2585 -0.0005  1.3186
 4572TIP3   OH235130   2.390   3.834  16.916 -0.2198 -0.0626  0.0048
 4572TIP3    H135131   2.329   3.784  16.971  0.0779 -0.3981  0.0341
 4572TIP3    H235132   2.355   3.923  16.915 -0.1432 -0.0204  0.8718
 4573TIP3   OH235133   3.626   5.007   6.967  0.3272 -0.0448  0.2846
 4573TIP3    H135134   3.631   4.917   6.935 -2.7305 -0.6065  1.2113
 4573TIP3    H235135   3.678   5.058   6.905  1.4860 -2.3225 -0.6657
 4574TIP3   OH235136   6.212   6.139  16.872 -0.1937  0.0493 -0.1210
 4574TIP3    H135137   6.130   6.181  16.898  0.4382  1.7259 -0.7889
 4574TIP3    H235138   6.212   6.143  16.776  0.1774 -0.9394 -0.1740
 4575TIP3   OH235139   0.550   0.924   0.348 -0.2912  0.6813  0.3546
 4575TIP3    H135140   0.636   0.962   0.330  0.1205 -0.3962  0.0411
 4575TIP3    H235141   0.546   0.845   0.295 -0.6695 -0.3508  1.8811
 4576TIP3   OH235142   3.630   5.514  14.085 -0.1569 -0.3177 -0.3706
 4576TIP3    H135143   3.545   5.536  14.123  0.2258  0.6275 -0.0238
 4576TIP3    H235144   3.621   5.424  14.055 -0.7759 -0.7781  1.1306
 4577TIP3   OH235145   2.193   3.634  14.348 -0.4997  0.0223  0.3983
 4577TIP3    H135146   2.158   3.545  14.356 -1.6559  0.5122  0.7730
 4577TIP3    H235147   2.204   3.646  14.254  0.7980 -0.9395  0.3973
 4578TIP3   OH235148   4.329   0.821   3.349  0.0425 -0.3486 -0.4698
 4578TIP3    H135149   4.318   0.882   3.276 -2.1440  1.3759  1.2230
 4578TIP3    H235150   4.251   0.766   3.347 -0.6746  0.5386  1.2652
 4579TIP3   OH235151   6.155   3.800  15.143  0.3423 -0.1952 -0.4454
 4579TIP3    H135152   6.149   3.892  15.171 -1.9652 -0.0279 -1.3754
 4579TIP3    H235153   6.128   3.802  15.051  3.5834 -1.3541 -1.4929
 4580TIP3   OH235154   2.688   1.646  12.781  0.0541 -0.4130  0.1211
 4580TIP3    H135155   2.666   1.665  12.872  0.1132 -0.2561  0.1016
 4580TIP3    H235156   2.742   1.719  12.753 -1.1959  0.2938 -0.4917
 4581TIP3   OH235157   3.948   4.542  16.455  0.4346  0.2358 -0.0140
 4581TIP3    H135158   3.990   4.468  16.500 -1.8874 -0.7391  0.6205
 4581TIP3    H235159   3.909   4.503  16.377  1.7087  1.3590 -1.2502
 4582TIP3   OH235160   6.440   0.034   4.056 -0.0816 -0.0800  0.5906
 4582TIP3    H135161   6.406  -0.051   4.086 -1.7875  0.8727  1.3797
 4582TIP3    H235162   6.371   0.070   4.001  1.3928  0.0161 -1.2631
 4583TIP3   OH235163   5.702   4.559  12.626  0.0493 -0.2774  0.1812
 4583TIP3    H135164   5.759   4.482  12.619  1.5847  0.7644  1.2077
 4583TIP3    H235165   5.661   4.551  12.712  0.1064 -0.0010  0.2328
 4584TIP3   OH235166   1.229   2.929  14.834 -0.3136  0.7296  0.3712
 4584TIP3    H135167   1.247   3.020  14.810  0.4970  1.1050  2.2825
 4584TIP3    H235168   1.294   2.908  14.901 -0.7698 -1.1234  0.2704
 4585TIP3   OH235169   5.312   5.732  12.506 -0.0232 -0.3827  0.0243
 4585TIP3    H135170   5.225   5.753  12.538 -0.0692  1.4354 -1.2516
 4585TIP3    H235171   5.345   5.813  12.469  2.6169 -0.7665  1.3505
 4586TIP3   OH235172   1.199   0.052   0.802 -0.4563 -0.3804  0.3290
 4586TIP3    H135173   1.269  -0.009   0.825 -0.2392 -0.1844  0.1916
 4586TIP3    H235174   1.164   0.018   0.720 -0.8674 -0.7707  0.6640
 4587TIP3   OH235175   2.510   3.917   2.264  0.6415  0.5483 -0.0510
 4587TIP3    H135176   2.578   3.853   2.287 -0.3255 -0.2337  0.6446
 4587TIP3    H235177   2.469   3.938   2.348 -1.4216 -0.6072 -0.7602
 4588TIP3   OH235178   3.582   3.359   6.607 -0.0706  0.4458  0.4295
 4588TIP3    H135179   3.618   3.438   6.646  0.2177  0.2536  0.5503
 4588TIP3    H235180   3.611   3.362   6.516 -1.4350  1.3221 -0.0002
 4589TIP3   OH235181   5.138   5.218  10.800  0.0573  0.7825  0.3212
 4589TIP3    H135182   5.058   5.215  10.853 -0.3251 -1.8504 -0.3410
 4589TIP3    H235183   5.110   5.188  10.714  2.1007 -1.9989  0.5627
 4590TIP3   OH235184   5.400   0.521  16.053  0.2669 -0.0600 -0.0263
 4590TIP3    H135185   5.478   0.465  16.046  0.3017 -0.2521  1.5876
 4590TIP3    H235186   5.430   0.598  16.101 -0.2669  0.3952 -0.4234
 4591TIP3   OH235187   5.510   2.686   3.740  0.0244  0.3434  0.4484
 4591TIP3    H135188   5.530   2.768   3.785 -0.8902 -0.0457  1.6033
 4591TIP3    H235189   5.552   2.618   3.795 -0.1926 -0.0527  0.1252
 4592TIP3   OH235190   3.242   0.393   2.036 -0.3236 -0.7873 -0.4019
 4592TIP3    H135191   3.326   0.436   2.018 -0.1021 -0.8451  0.4608
 4592TIP3    H235192   3.263   0.299   2.038 -0.5124 -0.8367 -0.7301
 4593TIP3   OH235193   3.733   5.056  12.102  0.2312  0.2382 -0.2355
 4593TIP3    H135194   3.754   4.982  12.160  0.9032  1.1784  0.7543
 4593TIP3    H235195   3.818   5.088  12.073  0.0353  1.6939  0.7349
 4594TIP3   OH235196   0.321   0.682  14.783  0.0078  0.0071  0.1623
 4594TIP3    H135197   0.229   0.655  14.786 -0.1357  0.5115  0.3533
 4594TIP3    H235198   0.354   0.644  14.702 -0.9019  1.4839 -0.9156
 4595TIP3   OH235199   4.530   4.866  14.021 -0.2032  0.0623 -0.0289
 4595TIP3    H135200   4.445   4.895  13.989 -0.5949 -1.1599 -0.1350
 4595TIP3    H235201   4.585   4.860  13.943 -0.7797 -1.6451 -0.3256
 4596TIP3   OH235202   1.194   4.583   5.366  0.4069  0.2429 -0.7190
 4596TIP3    H135203   1.196   4.619   5.454  2.1104  0.0766 -0.6639
 4596TIP3    H235204   1.118   4.624   5.324  0.1868  1.0895  0.4919
 4597TIP3   OH235205   0.544   4.019  16.177  0.2728  0.6437 -0.1568
 4597TIP3    H135206   0.573   3.940  16.131 -0.0655  0.8215 -0.6784
 4597TIP3    H235207   0.623   4.071  16.186  0.6857 -0.1613  1.0213
 4598TIP3   OH235208   2.648   5.463  13.095  0.0995  0.4466 -0.0960
 4598TIP3    H135209   2.704   5.439  13.169 -0.1405  1.3314  0.3879
 4598TIP3    H235210   2.686   5.418  13.020  0.0416 -0.8921  0.6596
 4599TIP3   OH235211   1.829   2.814   5.826  0.0490  0.2036 -0.0277
 4599TIP3    H135212   1.776   2.742   5.860 -1.3570  0.5966 -1.3371
 4599TIP3    H235213   1.852   2.786   5.737 -0.6242  1.4218 -0.5928
 4600TIP3   OH235214   5.923   4.032   2.884 -0.0920  0.4004  0.7740
 4600TIP3    H135215   5.902   4.017   2.977 -0.1502  1.3994  0.9264
 4600TIP3    H235216   5.896   4.122   2.868 -0.1629  0.1966 -0.2474
 4601TIP3   OH235217   3.361   4.508  15.633  0.4472 -0.4600  0.2368
 4601TIP3    H135218   3.358   4.569  15.558  3.0670 -0.2499  0.2443
 4601TIP3    H235219   3.343   4.423  15.594  0.2320 -0.1426 -0.3810
 4602TIP3   OH235220   4.058   1.413  15.018  0.4656 -0.3469 -0.3020
 4602TIP3    H135221   4.035   1.423  14.926 -1.2409  1.1844  0.2641
 4602TIP3    H235222   3.974   1.416  15.064  1.1713 -2.5491  1.2112
 4603TIP3   OH235223   0.136   1.786  16.697 -0.6314 -0.5096 -0.0443
 4603TIP3    H135224   0.222   1.820  16.675 -0.0910 -0.5295  1.9003
 4603TIP3    H235225   0.111   1.834  16.776 -1.6466 -1.7214  0.3988
 4604TIP3   OH235226   5.370   3.284  13.852  0.6011  0.0234  0.4033
 4604TIP3    H135227   5.423   3.256  13.777  0.0556  0.6805 -0.2384
 4604TIP3    H235228   5.353   3.377  13.836  0.6552  0.2182  1.4534
 4605TIP3   OH235229   6.412   4.469   0.144 -0.5044 -0.4563 -0.2073
 4605TIP3    H135230   6.438   4.448   0.055  0.2682  0.7404 -0.2702
 4605TIP3    H235231   6.397   4.564   0.143 -2.4544 -0.7413  0.4391
 4606TIP3   OH235232   5.431   5.841   4.718 -0.0184 -0.1959  0.1255
 4606TIP3    H135233   5.418   5.766   4.777 -3.3361  1.3536  1.4492
 4606TIP3    H235234   5.367   5.906   4.747  1.9649  2.7049 -1.8010
 4607TIP3   OH235235   0.945   2.849   5.969  0.1306 -0.6626 -0.1411
 4607TIP3    H135236   1.012   2.907   5.934  0.7157 -0.4762  1.2673
 4607TIP3    H235237   0.985   2.808   6.045 -1.7942  0.5404  1.5863
 4608TIP3   OH235238   4.661   4.077   2.163 -0.0563  0.2451 -0.3084
 4608TIP3    H135239   4.694   3.989   2.180  1.4901  0.4978 -1.7945
 4608TIP3    H235240   4.737   4.134   2.176 -0.8562  1.2836 -0.0696
 4609TIP3   OH235241   1.780   2.249   1.485 -0.0544  0.6225  0.0197
 4609TIP3    H135242   1.725   2.171   1.489  0.5735  0.2230  1.1264
 4609TIP3    H235243   1.847   2.234   1.551  1.3019  1.1722 -1.2201
 4610TIP3   OH235244   0.922   2.791  16.980 -0.3507 -0.3061  0.2241
 4610TIP3    H135245   0.923   2.881  16.949  0.4134 -0.7610 -1.0733
 4610TIP3    H235246   0.853   2.748  16.929 -0.7039 -0.4751  0.8299
 4611TIP3   OH235247   4.798   6.214   3.463  0.0212  0.8066 -0.4805
 4611TIP3    H135248   4.705   6.228   3.445 -0.4946  2.3743  3.0234
 4611TIP3    H235249   4.842   6.290   3.426 -0.2392  0.8081 -0.7919
 4612TIP3   OH235250   5.789   0.310  12.268 -0.5522 -0.5127  0.1196
 4612TIP3    H135251   5.708   0.282  12.226 -0.6506  1.5913 -1.1847
 4612TIP3    H235252   5.852   0.318  12.196 -0.0130  0.6961  0.7078
 4613TIP3   OH235253   3.962   2.761  12.631 -0.0411 -0.4741  0.4985
 4613TIP3    H135254   3.977   2.806  12.548 -1.1622  0.3702  0.7353
 4613TIP3    H235255   3.883   2.710  12.617 -1.7564  1.7158  1.8144
 4614TIP3   OH235256   4.146   5.082  15.855 -0.2128 -0.6927 -0.2285
 4614TIP3    H135257   4.236   5.115  15.859 -0.5522  0.4102 -1.1715
 4614TIP3    H235258   4.127   5.077  15.761 -0.8019 -1.8478 -0.0467
 4615TIP3   OH235259   0.548   6.616  10.551 -0.2630  0.0152 -0.1725
 4615TIP3    H135260   0.484   6.600  10.482  1.5016 -0.0771 -1.8284
 4615TIP3    H235261   0.572   6.529  10.583 -1.1997  0.0660  0.6797
 4616TIP3   OH235262   0.278   2.806   1.216 -0.0017  0.0762  0.2552
 4616TIP3    H135263   0.310   2.790   1.128  0.4814 -1.6146  0.7235
 4616TIP3    H235264   0.276   2.902   1.224 -0.6203  0.2393 -1.7669
 4617TIP3   OH235265   0.731   0.606   4.694 -0.3747  0.0402  0.4389
 4617TIP3    H135266   0.759   0.562   4.614  1.3974  0.3957  0.8227
 4617TIP3    H235267   0.656   0.556   4.725 -1.5630  0.3748 -1.8595
 4618TIP3   OH235268   4.847   6.521  14.852 -0.3498  0.0624 -0.0512
 4618TIP3    H135269   4.836   6.436  14.809  2.7283 -0.6031  0.4048
 4618TIP3    H235270   4.892   6.502  14.934 -1.4512  1.9310  1.0287
 4619TIP3   OH235271   3.546   2.580   5.132  0.3655 -0.4446 -0.3581
 4619TIP3    H135272   3.545   2.662   5.084 -1.2727 -1.2846 -1.8354
 4619TIP3    H235273   3.469   2.533   5.101  2.1171 -3.2044 -0.6961
 4620TIP3   OH235274   6.219   2.519  14.566 -0.6328  0.4297 -0.4291
 4620TIP3    H135275   6.185   2.508  14.478 -0.2542  0.6174 -0.6016
 4620TIP3    H235276   6.296   2.462  14.570 -1.2684 -0.3913  0.1279
 4621TIP3   OH235277   5.869   3.407  16.386 -0.4360 -0.4125 -0.9194
 4621TIP3    H135278   5.922   3.328  16.378  0.0053 -0.0836 -1.2761
 4621TIP3    H235279   5.825   3.415  16.301 -1.1592 -0.7532 -0.5817
 4622TIP3   OH235280   4.784   6.568   4.477  0.3286 -0.4779 -0.1589
 4622TIP3    H135281   4.744   6.499   4.424  1.6795 -1.3932  0.0063
 4622TIP3    H235282   4.825   6.627   4.414  1.8099 -1.4878 -0.1663
 4623TIP3   OH235283   4.224   3.641   0.652  0.2522  0.0586  0.0492
 4623TIP3    H135284   4.130   3.624   0.656  0.3711 -0.4925  0.4691
 4623TIP3    H235285   4.264   3.556   0.635  0.7836  0.0434  1.3510
 4624TIP3   OH235286   0.649   3.334  11.719  0.1368  0.3946 -0.8409
 4624TIP3    H135287   0.591   3.346  11.644 -1.1559  0.1060  0.0991
 4624TIP3    H235288   0.736   3.325  11.681 -0.6728 -1.1103 -2.3949
 4625TIP3   OH235289   0.832   1.032  16.123 -0.5307  0.4320  0.4823
 4625TIP3    H135290   0.894   1.096  16.157  0.3585 -0.3892  0.4255
 4625TIP3    H235291   0.842   1.036  16.028 -0.3566  0.0852  0.4871
 4626TIP3   OH235292   6.202   1.034  14.620 -0.0123  0.5784 -0.8311
 4626TIP3    H135293   6.219   1.075  14.704  0.9446  1.8759 -1.6388
 4626TIP3    H235294   6.137   1.091  14.578 -1.3332 -0.6771 -0.5218
 4627TIP3   OH235295   4.845   6.067   2.858 -0.3437  0.5275  0.4657
 4627TIP3    H135296   4.787   5.994   2.833 -0.1911 -0.0099  1.6329
 4627TIP3    H235297   4.903   6.078   2.782 -0.0973 -0.8492  0.4318
 4628TIP3   OH235298   5.155   2.467  14.853  0.1275  0.6356 -0.1328
 4628TIP3    H135299   5.141   2.497  14.943  1.1184  2.3063 -0.4939
 4628TIP3    H235300   5.073   2.427  14.827  0.3266 -1.2694  2.0406
 4629TIP3   OH235301   4.554   0.276  10.694 -0.1156  0.4480  0.0222
 4629TIP3    H135302   4.540   0.319  10.778 -0.4236 -0.8410  0.6570
 4629TIP3    H235303   4.489   0.314  10.635 -2.1997 -1.0739  1.2898
 4630TIP3   OH235304   1.682   6.179   1.764 -0.5114  0.3353 -0.0113
 4630TIP3    H135305   1.708   6.158   1.854 -1.0275 -1.1360 -0.2047
 4630TIP3    H235306   1.626   6.256   1.774  0.2506  0.8055  0.8219
 4631TIP3   OH235307   6.145   0.422   1.478  0.1310  0.3167 -0.0143
 4631TIP3    H135308   6.170   0.500   1.529  0.6192  1.3125 -1.7320
 4631TIP3    H235309   6.218   0.408   1.418 -0.3839 -0.9151 -0.3681
 4632TIP3   OH235310   6.006   6.569   2.771  0.4157  0.1370  0.3837
 4632TIP3    H135311   5.980   6.572   2.863 -0.4852  1.4936  0.1048
 4632TIP3    H235312   6.028   6.478   2.755 -1.4033 -0.5114  1.4248
 4633TIP3   OH235313   2.007   0.120   1.591 -0.3987 -0.5562 -0.3214
 4633TIP3    H135314   2.079   0.133   1.530  0.1720  0.7464  0.6131
 4633TIP3    H235315   2.049   0.114   1.677 -1.4757  1.2577  0.3454
 4634TIP3   OH235316   4.391   6.183  13.183 -0.6333 -0.1628  0.1424
 4634TIP3    H135317   4.416   6.254  13.124 -0.8054 -0.6553 -0.5288
 4634TIP3    H235318   4.297   6.174  13.171 -1.0913  1.4013  2.3533
 4635TIP3   OH235319   4.524   5.779   5.257 -0.2643  0.3055  0.6712
 4635TIP3    H135320   4.475   5.844   5.306  0.5186  0.9577  0.5933
 4635TIP3    H235321   4.552   5.715   5.322 -2.7761 -1.0863  0.4697
 4636TIP3   OH235322   4.790   3.263  14.755 -0.2624  0.4823 -0.1032
 4636TIP3    H135323   4.884   3.251  14.741 -0.1977 -0.2530  0.9043
 4636TIP3    H235324   4.750   3.232  14.674  0.3446  0.5969 -0.4544
 4637TIP3   OH235325   4.570   0.745  11.116 -0.3992  0.2656  0.0477
 4637TIP3    H135326   4.664   0.731  11.129  0.1073  0.5949 -2.8862
 4637TIP3    H235327   4.528   0.682  11.175  1.6358  0.1884  1.4655
 4638TIP3   OH235328   5.854   0.278  11.214  0.0058  0.0419  0.4717
 4638TIP3    H135329   5.770   0.321  11.232 -1.0411 -1.0518 -1.5475
 4638TIP3    H235330   5.830   0.189  11.188  1.7539 -0.1804 -0.4811
 4639TIP3   OH235331   3.062   2.954   5.735 -0.0407 -0.2739 -0.0532
 4639TIP3    H135332   3.140   2.914   5.775 -0.3541  0.0928  0.9342
 4639TIP3    H235333   3.097   3.024   5.680  0.2746  0.4721  1.0862
 4640TIP3   OH235334   3.765   2.154  13.470 -0.5481  0.8940  0.4104
 4640TIP3    H135335   3.855   2.123  13.456 -1.4955 -1.5628 -0.3486
 4640TIP3    H235336   3.732   2.171  13.382 -1.2768  0.5021  0.6082
 4641TIP3   OH235337   5.146   2.245  11.310  0.0364 -0.0404 -0.4216
 4641TIP3    H135338   5.238   2.245  11.286 -0.0480  0.4475 -0.7359
 4641TIP3    H235339   5.137   2.320  11.369  0.0909 -0.7935  0.5605
 4642TIP3   OH235340   4.055   2.620  16.738 -0.2583 -0.2770  0.4762
 4642TIP3    H135341   4.011   2.674  16.804  1.0440  0.6578  0.6057
 4642TIP3    H235342   4.127   2.578  16.785  1.6881  1.6667 -0.6362
 4643TIP3   OH235343   4.514   4.919  11.450 -0.3611  0.1134 -0.4537
 4643TIP3    H135344   4.465   4.921  11.367 -2.0172  0.4974  0.5112
 4643TIP3    H235345   4.604   4.901  11.424 -0.5299  1.9726 -2.4860
 4644TIP3   OH235346   6.573   6.506  17.101 -0.4032 -0.1374  0.2199
 4644TIP3    H135347   6.585   6.524  17.194 -1.7040  0.6267  0.2546
 4644TIP3    H235348   6.484   6.471  17.096 -0.3348 -0.1661 -0.7399
 4645TIP3   OH235349   4.372   5.742  14.191 -0.0325  0.3869 -0.4333
 4645TIP3    H135350   4.450   5.711  14.143 -0.2374 -0.1430 -0.4251
 4645TIP3    H235351   4.404   5.816  14.242  0.6651 -0.3665  0.2384
 4646TIP3   OH235352   5.848   3.462  14.723  0.0890  1.1138  0.7913
 4646TIP3    H135353   5.927   3.515  14.714  0.9242 -0.0831  1.0327
 4646TIP3    H235354   5.864   3.386  14.667 -1.2905  1.3158  0.0981
 4647TIP3   OH235355   0.135   2.565  12.740 -0.0607 -0.1112 -0.3536
 4647TIP3    H135356   0.175   2.503  12.801  0.6960 -0.8075 -1.5330
 4647TIP3    H235357   0.042   2.565  12.763 -0.0695 -1.6773 -0.3069
 4648TIP3   OH235358   2.595   2.217   5.089  0.4129  0.0432  0.1876
 4648TIP3    H135359   2.591   2.126   5.116  2.6862 -0.2835 -0.5023
 4648TIP3    H235360   2.536   2.224   5.014  0.1459 -0.8226  0.3225
 4649TIP3   OH235361   1.820   0.817   1.221 -0.3795  0.0899  0.1950
 4649TIP3    H135362   1.727   0.814   1.247 -1.1716  2.2903 -2.1875
 4649TIP3    H235363   1.826   0.755   1.149  0.1882 -0.6342  0.8635
 4650TIP3   OH235364   4.806   5.990   6.231 -0.0840 -0.1649 -0.3221
 4650TIP3    H135365   4.737   5.930   6.200 -1.3106  0.8927  0.3039
 4650TIP3    H235366   4.775   6.077   6.206  1.6448  0.2330 -1.1421
 4651TIP3   OH235367   2.330   1.493  16.514 -0.0874  0.0138  0.0741
 4651TIP3    H135368   2.320   1.557  16.584 -1.2900  0.8205 -0.8189
 4651TIP3    H235369   2.389   1.535  16.452 -1.5788  0.6661 -0.9477
 4652TIP3   OH235370   3.732   4.578  14.302 -0.5257  0.3368 -0.0677
 4652TIP3    H135371   3.753   4.567  14.209 -2.8992  2.3579 -0.8941
 4652TIP3    H235372   3.714   4.672  14.312  0.2410  0.2463  2.5718
 4653TIP3   OH235373   2.019   0.236  12.089 -0.0916 -0.6519 -0.2081
 4653TIP3    H135374   2.020   0.142  12.106 -2.0363 -0.3904  1.6847
 4653TIP3    H235375   2.058   0.275  12.168 -2.8589  0.2746  0.7880
 4654TIP3   OH235376   3.683   1.811   6.086  0.0365 -0.0503  0.1766
 4654TIP3    H135377   3.655   1.721   6.066  0.3138 -0.0007 -0.4524
 4654TIP3    H235378   3.703   1.809   6.179  0.2885 -0.7116  0.1166
 4655TIP3   OH235379   6.139   4.407   4.075 -0.0533 -0.8258 -0.6102
 4655TIP3    H135380   6.170   4.333   4.128  1.1297 -0.9384 -1.4337
 4655TIP3    H235381   6.088   4.366   4.005 -2.0210 -0.6497  0.6664
 4656TIP3   OH235382   1.038   5.273   3.004  0.3008 -0.6486  0.6561
 4656TIP3    H135383   1.049   5.188   2.960  1.7827  0.3510 -0.9572
 4656TIP3    H235384   0.943   5.285   3.007  0.1321 -0.5750 -2.7173
 4657TIP3   OH235385   6.463   0.993  15.349 -0.2855  0.4290  0.5486
 4657TIP3    H135386   6.480   0.904  15.380  0.7328 -0.1162 -1.4720
 4657TIP3    H235387   6.424   1.038  15.423 -0.1985 -1.5297  1.7967
 4658TIP3   OH235388   5.152   6.159   1.687 -0.0200  0.9487  0.2100
 4658TIP3    H135389   5.167   6.237   1.741  0.2506  0.4910  0.8021
 4658TIP3    H235390   5.240   6.123   1.674 -0.2843 -0.0679  1.1586
 4659TIP3   OH235391   1.906   6.043  13.985 -0.5851 -0.1079 -0.0807
 4659TIP3    H135392   1.830   6.014  13.934 -0.5029 -0.7514  0.1547
 4659TIP3    H235393   1.920   5.973  14.049 -0.5927  0.6140  0.7235
 4660TIP3   OH235394   4.779   2.728   2.535  0.2605 -0.6295 -0.1992
 4660TIP3    H135395   4.799   2.776   2.454  0.4825 -1.6446 -0.7575
 4660TIP3    H235396   4.723   2.788   2.585 -0.4673 -0.2707 -1.4159
 4661TIP3   OH235397   2.208   4.154   2.708  0.0600 -0.2401  0.3489
 4661TIP3    H135398   2.224   4.208   2.785  0.9959  0.4609 -0.3190
 4661TIP3    H235399   2.221   4.213   2.634 -0.0417 -1.0966 -0.3642
 4662TIP3   OH235400   2.380   6.027   1.554 -0.3127  0.6046  0.1902
 4662TIP3    H135401   2.342   5.942   1.529  0.0625  0.4256  0.2307
 4662TIP3    H235402   2.354   6.086   1.483 -1.2707  0.6504  0.5707
 4663TIP3   OH235403   2.162   6.764   2.705  0.3899  0.0084 -0.0503
 4663TIP3    H135404   2.194   6.854   2.695  0.5647  0.1243  1.4312
 4663TIP3    H235405   2.236   6.717   2.745 -0.6329 -0.1543  1.6848
 4664TIP3   OH235406   0.519   5.901   0.745  0.5444 -0.0433  0.2006
 4664TIP3    H135407   0.600   5.866   0.710  1.9443  1.2067  2.1015
 4664TIP3    H235408   0.486   5.959   0.675  1.7064  0.0886 -0.2525
 4665TIP3   OH235409   5.090   0.904  11.156  0.4333  0.0464 -0.2507
 4665TIP3    H135410   5.044   0.983  11.184  0.8280 -0.1323  0.9125
 4665TIP3    H235411   5.101   0.915  11.061 -0.1489  1.0463 -0.2090
 4666TIP3   OH235412   3.922   0.639  11.117 -0.2295  0.0127  0.6876
 4666TIP3    H135413   3.936   0.722  11.073 -0.8439  0.1875  0.8170
 4666TIP3    H235414   3.868   0.588  11.056  1.3598 -0.8454 -0.0319
 4667TIP3   OH235415   1.154   2.291   0.686  0.2571 -0.4838  0.7376
 4667TIP3    H135416   1.231   2.297   0.743  0.9956 -0.8668 -0.1921
 4667TIP3    H235417   1.158   2.202   0.650  0.9170  0.3885 -1.4301
 4668TIP3   OH235418   1.320   3.655   0.614  0.5875  0.2245  0.4310
 4668TIP3    H135419   1.402   3.655   0.664 -0.0132  0.1301  1.4243
 4668TIP3    H235420   1.260   3.708   0.667  0.3645  1.3369 -0.9063
 4669TIP3   OH235421   2.696   1.295  15.873  0.2454  0.6671  0.2632
 4669TIP3    H135422   2.620   1.354  15.866  0.0573  0.4784  0.6978
 4669TIP3    H235423   2.660   1.214  15.910  0.2820 -0.1312 -1.3918
 4670TIP3   OH235424   3.765   4.034  11.079  0.5115 -0.0658 -0.6091
 4670TIP3    H135425   3.783   3.941  11.093 -1.3744 -0.4313 -0.5575
 4670TIP3    H235426   3.794   4.076  11.160 -1.7041 -1.0421  0.7392
 4671TIP3   OH235427   5.971   2.968   1.517  0.1300 -0.1941 -0.1447
 4671TIP3    H135428   6.065   2.986   1.528 -0.2679  0.4795  2.3243
 4671TIP3    H235429   5.964   2.873   1.520  0.8857 -0.3352 -1.8885
 4672TIP3   OH235430   1.106   5.845  12.734 -0.2151  0.3000  0.3055
 4672TIP3    H135431   1.109   5.750  12.744 -0.6700  0.5288  2.7707
 4672TIP3    H235432   1.043   5.874  12.799 -0.8443  2.2147 -1.1408
 4673TIP3   OH235433   2.720   4.376   2.290  0.1089  0.0270 -0.8250
 4673TIP3    H135434   2.653   4.444   2.294 -0.8357 -0.9253 -0.5293
 4673TIP3    H235435   2.802   4.423   2.308 -0.3034  1.4157 -2.3597
 4674TIP3   OH235436   3.723   4.178  16.978 -0.2599 -0.0361  0.2110
 4674TIP3    H135437   3.646   4.226  17.008 -0.4843 -0.1434 -0.2000
 4674TIP3    H235438   3.763   4.145  17.058  0.5356  1.8047  0.6038
 4675TIP3   OH235439   1.485   3.676  13.199 -0.0041 -0.4526  0.6824
 4675TIP3    H135440   1.498   3.606  13.264  0.0710  0.7699  2.0133
 4675TIP3    H235441   1.573   3.710  13.183 -0.2630  0.7394  1.6623
 4676TIP3   OH235442   3.309   4.332   3.348 -0.1922 -0.1668 -0.0464
 4676TIP3    H135443   3.324   4.299   3.437 -0.8459 -0.6174 -0.0988
 4676TIP3    H235444   3.397   4.341   3.311  0.1716  1.5392  1.1679
 4677TIP3   OH235445   4.592   0.940   1.648  0.0625  0.3326  0.5566
 4677TIP3    H135446   4.588   0.855   1.605 -1.9272  0.4713  0.4275
 4677TIP3    H235447   4.505   0.954   1.684 -0.2462  3.1715 -1.1032
 4678TIP3   OH235448   3.779   6.274   1.392 -0.1095  0.2849  0.6388
 4678TIP3    H135449   3.686   6.296   1.398 -0.3107 -0.3324 -0.0173
 4678TIP3    H235450   3.824   6.357   1.400 -0.7320  0.6107  0.8127
 4679TIP3   OH235451   0.268   3.703   0.519 -0.1811 -0.4670 -0.8930
 4679TIP3    H135452   0.206   3.766   0.557 -0.7193 -1.6361  0.1710
 4679TIP3    H235453   0.288   3.740   0.433 -2.2149  0.0492 -1.1864
 4680TIP3   OH235454   3.978   3.085  16.893  0.0832  0.1742  0.0205
 4680TIP3    H135455   3.990   3.167  16.845  2.1754 -0.0678  0.0696
 4680TIP3    H235456   4.063   3.070  16.935 -1.2516 -0.4063  2.5556
 4681TIP3   OH235457   0.315   3.347  12.864  0.1104 -0.0333 -0.3675
 4681TIP3    H135458   0.240   3.358  12.923 -1.4257 -0.3050 -2.2123
 4681TIP3    H235459   0.312   3.255  12.838  1.9939 -0.4205  0.6919
 4682TIP3   OH235460   3.440   4.123  11.815  0.4591  0.6903 -0.3959
 4682TIP3    H135461   3.526   4.135  11.776  0.3980  0.7328 -0.5166
 4682TIP3    H235462   3.392   4.203  11.794 -0.4354 -0.3449 -2.4338
 4683TIP3   OH235463   2.875   6.195  13.061 -0.1982 -0.1418  0.0939
 4683TIP3    H135464   2.848   6.105  13.044 -0.6742  0.3724 -2.0942
 4683TIP3    H235465   2.937   6.215  12.991  1.6916  0.5021  1.8953
 4684TIP3   OH235466   1.829   1.464  14.087  0.7986 -0.7980 -0.0230
 4684TIP3    H135467   1.812   1.522  14.012 -1.7733  1.3014  2.0790
 4684TIP3    H235468   1.916   1.488  14.117 -0.3514  2.3131  1.0036
 4685TIP3   OH235469   1.408   0.396   4.590 -0.2665  0.3526  0.0363
 4685TIP3    H135470   1.392   0.307   4.622 -1.8515  0.0847 -1.4463
 4685TIP3    H235471   1.322   0.438   4.593  0.2599  1.4673 -0.4051
 4686TIP3   OH235472   1.477   0.942   3.422  0.5392  0.1439 -0.6411
 4686TIP3    H135473   1.442   0.976   3.340 -0.6964 -0.4819 -0.3720
 4686TIP3    H235474   1.486   0.848   3.408  1.5212  0.2085 -0.4886
 4687TIP3   OH235475   4.279   5.655  16.416 -0.2048  0.2040 -0.5944
 4687TIP3    H135476   4.309   5.614  16.496  0.5145  0.3475 -0.7826
 4687TIP3    H235477   4.285   5.586  16.349 -0.0657  0.2982 -0.6820
 4688TIP3   OH235478   3.821   6.399   4.986 -0.3165  0.3016  0.1389
 4688TIP3    H135479   3.734   6.372   5.016  0.0915  0.5646  1.5780
 4688TIP3    H235480   3.873   6.407   5.066  1.4870 -1.4260 -0.8299
 4689TIP3   OH235481   4.000   2.984  10.759 -0.2270 -0.8425  0.4406
 4689TIP3    H135482   4.039   3.031  10.833 -1.1540  1.0630 -0.2613
 4689TIP3    H235483   4.075   2.949  10.710  0.4292 -0.9989  1.5453
 4690TIP3   OH235484   3.926   2.656   0.067  0.0583  0.4094  0.0293
 4690TIP3    H135485   4.008   2.619   0.033  0.0479  1.4101 -1.1217
 4690TIP3    H235486   3.877   2.681  -0.012 -1.2847 -0.0336  0.7135
 4691TIP3   OH235487   0.777   4.860   2.135 -0.1933  0.1954 -0.0457
 4691TIP3    H135488   0.694   4.884   2.175  1.1258  1.4766  2.0555
 4691TIP3    H235489   0.800   4.934   2.079 -0.2958 -0.0142 -0.3684
 4692TIP3   OH235490   2.248   5.991  13.598  0.0302 -0.0977  0.0516
 4692TIP3    H135491   2.281   5.921  13.655 -0.4003 -0.8258 -0.5833
 4692TIP3    H235492   2.270   5.963  13.510 -2.3388 -0.6606 -0.4012
 4693TIP3   OH235493   3.059   6.153  12.380  0.1970 -0.0614 -0.5226
 4693TIP3    H135494   3.129   6.098  12.415 -0.0335  0.2685  0.4948
 4693TIP3    H235495   2.979   6.102  12.394  0.0670  0.2100 -0.2565
 4694TIP3   OH235496   1.364   5.182  13.682 -0.0718 -0.0013 -0.2307
 4694TIP3    H135497   1.449   5.165  13.641 -0.3770 -1.2320 -0.3970
 4694TIP3    H235498   1.325   5.095  13.691 -0.4718  0.3497  1.6750
 4695TIP3   OH235499   4.111   6.164  12.167 -0.2697  0.8447  0.1804
 4695TIP3    H135500   4.118   6.245  12.218 -1.2836  1.1425 -0.1403
 4695TIP3    H235501   4.017   6.153  12.154 -0.3522 -1.8981  2.6497
 4696TIP3   OH235502   3.810   2.615  17.049  0.0438 -0.4188  0.0481
 4696TIP3    H135503   3.883   2.661  17.007 -0.0365  0.9879  1.4276
 4696TIP3    H235504   3.733   2.668  17.028 -0.4673 -1.4338 -0.6742
 4697TIP3   OH235505   2.325   2.850   1.731  0.3069  0.8617 -0.2739
 4697TIP3    H135506   2.329   2.857   1.826  2.1470  0.8926 -0.3449
 4697TIP3    H235507   2.357   2.762   1.712  2.6409  1.8400 -1.0252
 4698TIP3   OH235508   2.394   5.480  16.633  0.5252 -0.2531 -0.0215
 4698TIP3    H135509   2.319   5.471  16.575 -0.4010  0.5207  1.0201
 4698TIP3    H235510   2.393   5.401  16.687  2.1526 -1.5986 -1.8820
 4699TIP3   OH235511   1.621   3.643   0.597 -0.3364 -0.0624  0.6949
 4699TIP3    H135512   1.574   3.679   0.522 -0.3906  0.1952  0.8517
 4699TIP3    H235513   1.652   3.720   0.645  1.1112 -0.2295  0.0562
 4700TIP3   OH235514   4.300   1.142   4.948 -0.5606  0.2526 -0.7757
 4700TIP3    H135515   4.333   1.055   4.924  1.5326  0.1830  1.9853
 4700TIP3    H235516   4.340   1.201   4.884  1.1000 -0.4007 -0.3644
 4701TIP3   OH235517   0.898   6.147   4.861  0.4321  0.1510 -0.2189
 4701TIP3    H135518   0.852   6.230   4.845  0.6635  0.5838  1.3690
 4701TIP3    H235519   0.887   6.098   4.779 -0.8989  1.1824 -0.6769
 4702TIP3   OH235520   4.097   0.195  14.957  0.2826 -0.0628  0.4247
 4702TIP3    H135521   4.167   0.213  14.895  0.9777  1.9865  1.7652
 4702TIP3    H235522   4.020   0.238  14.920  0.6562  1.0153  0.8925
 4703TIP3   OH235523   3.862   5.837  11.785  0.3051  0.2262 -0.1898
 4703TIP3    H135524   3.944   5.882  11.767 -0.2626  0.9273 -1.0893
 4703TIP3    H235525   3.823   5.823  11.698 -0.0381 -1.0109  0.1593
 4704TIP3   OH235526   0.758   0.147   5.182 -0.0412 -0.1810 -0.2066
 4704TIP3    H135527   0.737   0.202   5.106  1.4444 -0.3192 -0.7467
 4704TIP3    H235528   0.790   0.210   5.247  2.3175 -0.4311 -1.0681
 4705TIP3   OH235529   2.026   4.443  12.508 -0.1407 -0.2182  0.2871
 4705TIP3    H135530   1.952   4.451  12.447  0.2919 -0.0663 -0.2254
 4705TIP3    H235531   1.986   4.436  12.594 -0.6959  2.3452  0.2729
 4706TIP3   OH235532   6.719   5.044   4.449 -0.6040 -0.1444 -0.2084
 4706TIP3    H135533   6.633   5.058   4.410 -1.2426  0.8825  1.4956
 4706TIP3    H235534   6.723   5.108   4.520  1.2753 -0.6862  0.1884
 4707TIP3   OH235535   3.803   6.448   3.618  0.0185  0.0060 -0.8332
 4707TIP3    H135536   3.802   6.507   3.543  1.7638  0.0002 -0.8636
 4707TIP3    H235537   3.885   6.465   3.662  0.2706 -1.9407 -0.4808
 4708TIP3   OH235538   0.468   1.775   0.295 -0.5120  0.0170 -0.7282
 4708TIP3    H135539   0.431   1.781   0.207  0.2615  1.0971 -0.9944
 4708TIP3    H235540   0.563   1.779   0.281 -0.4043  1.2366  0.2244
 4709TIP3   OH235541   5.569   5.311   3.718 -0.0489  0.3163  0.9266
 4709TIP3    H135542   5.494   5.364   3.691 -2.4428 -2.8798  1.0343
 4709TIP3    H235543   5.620   5.299   3.638  0.5016  2.6090  0.8782
 4710TIP3   OH235544   6.462   5.370  12.283  0.1464 -0.0793  0.4805
 4710TIP3    H135545   6.449   5.375  12.378 -2.3892 -1.5301  0.2744
 4710TIP3    H235546   6.444   5.278  12.262  1.8232 -0.0270 -1.2698
 4711TIP3   OH235547   0.423   2.428  12.123 -0.1716 -0.2466  0.1050
 4711TIP3    H135548   0.487   2.487  12.163 -0.8843 -0.2423  1.2945
 4711TIP3    H235549   0.426   2.449  12.030 -0.7659  2.0537  0.5501
 4712TIP3   OH235550   0.266   1.312  12.137  0.5798  0.4894 -0.7272
 4712TIP3    H135551   0.263   1.280  12.047  1.3685 -1.0727 -0.2136
 4712TIP3    H235552   0.247   1.235  12.190  2.1752  0.9405  0.5259
 4713TIP3   OH235553   1.275   5.345  16.174  0.1069  0.1374 -0.1465
 4713TIP3    H135554   1.210   5.374  16.239  1.1464 -1.1304  1.4826
 4713TIP3    H235555   1.359   5.375  16.208  0.3979  2.3067 -2.5576
 4714TIP3   OH235556   2.342   6.436  11.808 -0.3521  0.3804  0.0982
 4714TIP3    H135557   2.290   6.363  11.775  0.3198  0.3852 -0.9856
 4714TIP3    H235558   2.353   6.417  11.901 -0.3182 -0.8132 -0.1416
 4715TIP3   OH235559   2.591   0.042  13.545  0.1236 -0.1295  0.0734
 4715TIP3    H135560   2.612   0.056  13.453  1.2626 -0.8148  0.2219
 4715TIP3    H235561   2.531  -0.033  13.545  1.0557 -0.8793 -0.0204
 4716TIP3   OH235562   2.415   6.090  15.089 -0.1891  0.0968 -0.2197
 4716TIP3    H135563   2.507   6.074  15.067 -0.0193  1.7975 -0.7608
 4716TIP3    H235564   2.369   6.086  15.006 -0.4184  0.6013 -0.1130
 4717TIP3   OH235565   3.479   4.838   1.833  0.1175 -0.0605  0.0179
 4717TIP3    H135566   3.495   4.786   1.912 -1.0304 -0.3339  0.0738
 4717TIP3    H235567   3.543   4.807   1.770 -0.2839 -1.2551  0.1912
 4718TIP3   OH235568   2.033   4.121   6.297 -0.2796 -0.8077 -0.1546
 4718TIP3    H135569   1.980   4.110   6.376  1.5762  0.5741  1.3047
 4718TIP3    H235570   2.056   4.031   6.272  0.3638 -1.1988  1.7421
 4719TIP3   OH235571   5.484   2.701  15.106 -0.1819 -0.9256 -0.2863
 4719TIP3    H135572   5.431   2.667  15.034  2.2147  0.0864 -2.6291
 4719TIP3    H235573   5.498   2.793  15.084  1.6895 -0.9168  0.7738
 4720TIP3   OH235574   0.077   5.887  14.015  0.0025 -0.2803 -0.5256
 4720TIP3    H135575   0.119   5.902  14.100  0.6614 -0.5776 -0.7943
 4720TIP3    H235576  -0.016   5.886  14.035  0.2050 -1.8431  0.4400
 4721TIP3   OH235577   1.099   5.164  14.953 -0.1099 -0.2751  0.0161
 4721TIP3    H135578   1.148   5.092  14.914 -1.2252 -1.7390  1.2222
 4721TIP3    H235579   1.131   5.168  15.044  0.2509  1.0420 -0.1576
 4722TIP3   OH235580   4.747   4.206  13.755 -0.0580 -0.2313  0.6893
 4722TIP3    H135581   4.684   4.166  13.695 -1.6494  1.0610  1.4675
 4722TIP3    H235582   4.811   4.137  13.772 -1.1741 -1.5147 -0.2293
 4723TIP3   OH235583   0.349   0.398   5.551  0.1678  0.0067  0.2834
 4723TIP3    H135584   0.296   0.452   5.610 -0.6787 -1.6735  1.0797
 4723TIP3    H235585   0.287   0.337   5.512  0.8587  0.5848 -1.7897
 4724TIP3   OH235586   6.730   2.294  16.522 -0.3735  0.7520 -0.0949
 4724TIP3    H135587   6.678   2.238  16.466 -0.6559  2.1157 -1.2296
 4724TIP3    H235588   6.720   2.382  16.485  1.1387  1.3467  0.8258
 4725TIP3   OH235589   0.751   1.561  11.391 -0.2257  0.0107  0.0522
 4725TIP3    H135590   0.831   1.522  11.426 -0.8727 -0.8571  0.5780
 4725TIP3    H235591   0.728   1.629  11.453 -1.5439 -1.7309  1.5177
 4726TIP3   OH235592   6.188   4.640   3.914 -0.3336  0.3935 -0.0762
 4726TIP3    H135593   6.173   4.545   3.916 -0.9392  0.4181 -2.6998
 4726TIP3    H235594   6.100   4.677   3.905 -0.2548  1.3117  2.4978
 4727TIP3   OH235595   0.093   4.617  15.223 -0.0014 -0.9258 -0.1982
 4727TIP3    H135596   0.031   4.668  15.172 -0.8402 -1.8893 -0.1606
 4727TIP3    H235597   0.044   4.587  15.299  2.0910  3.2443  3.0025
 4728TIP3   OH235598   5.668   6.291  15.720  0.4891  0.0575  0.2227
 4728TIP3    H135599   5.763   6.288  15.717  0.4687  0.9890 -2.3287
 4728TIP3    H235600   5.649   6.363  15.781  1.4296  0.8932 -0.4563
 4729TIP3   OH235601   6.560   3.221   3.886  0.5691  0.9284  0.1669
 4729TIP3    H135602   6.606   3.262   3.813  0.6675  1.3070  0.4422
 4729TIP3    H235603   6.615   3.238   3.962  0.7302  0.0840  0.2480
 4730TIP3   OH235604   6.201   0.674   5.913  0.3241 -0.2383 -0.2427
 4730TIP3    H135605   6.195   0.699   6.005  1.8092 -1.4134  0.1957
 4730TIP3    H235606   6.289   0.636   5.904  0.1101 -0.3425 -2.0895
 4731TIP3   OH235607   4.789   2.183   4.681 -0.1294  0.1317 -0.1727
 4731TIP3    H135608   4.738   2.263   4.669 -0.9345 -0.1790  1.1558
 4731TIP3    H235609   4.824   2.164   4.593 -0.1237  1.7884 -0.5484
 4732TIP3   OH235610   2.850   4.536   2.650  0.4086  0.7064 -0.1596
 4732TIP3    H135611   2.935   4.560   2.686  1.4737 -2.5944 -0.2623
 4732TIP3    H235612   2.853   4.565   2.559  0.8581  1.8780  0.2260
 4733TIP3   OH235613   3.183   3.487  12.054  0.5745  0.2580  0.0841
 4733TIP3    H135614   3.217   3.447  11.974 -1.1904 -0.8744 -0.1433
 4733TIP3    H235615   3.186   3.417  12.119 -2.4414 -0.2890 -0.2903
 4734TIP3   OH235616   2.660   6.066   1.438  0.3879 -0.3643 -0.4487
 4734TIP3    H135617   2.578   6.018   1.454  0.7604 -0.4676  1.2356
 4734TIP3    H235618   2.665   6.072   1.342 -0.9947 -1.3829 -0.6153
 4735TIP3   OH235619   1.501   2.999   2.865  0.4559 -0.3420  0.0158
 4735TIP3    H135620   1.425   3.019   2.811  0.9215 -0.5386 -0.7184
 4735TIP3    H235621   1.474   2.923   2.918  0.4767 -1.0391 -0.9585
 4736TIP3   OH235622   1.403   2.347   2.460 -0.9877 -0.0212 -0.4357
 4736TIP3    H135623   1.428   2.407   2.530 -0.5803  0.4586 -0.9841
 4736TIP3    H235624   1.366   2.403   2.392  1.6968 -0.0498 -2.0187
 4737TIP3   OH235625   4.789   3.137  11.564  0.1072 -0.4590 -0.4618
 4737TIP3    H135626   4.782   3.226  11.596 -0.7111  0.6403 -3.5134
 4737TIP3    H235627   4.730   3.086  11.620 -1.6765  1.4586 -0.5663
 4738TIP3   OH235628   3.560   5.853   6.576 -0.1984 -0.1914  0.6979
 4738TIP3    H135629   3.648   5.878   6.603  0.5977 -1.6772 -0.4458
 4738TIP3    H235630   3.504   5.886   6.646  1.3329  0.1117  1.8202
 4739TIP3   OH235631   4.228   0.266   5.457 -0.1607  0.1507  0.0365
 4739TIP3    H135632   4.216   0.343   5.512 -1.2675  0.2245 -0.2951
 4739TIP3    H235633   4.323   0.262   5.440 -0.1984  1.8696 -0.5814
 4740TIP3   OH235634   6.711   5.225   4.651 -0.1507 -0.1775 -0.3889
 4740TIP3    H135635   6.652   5.221   4.726 -0.9786 -0.1315 -1.0212
 4740TIP3    H235636   6.684   5.305   4.604  0.6304  0.0156 -0.5071
 4741TIP3   OH235637   3.337   3.153   1.558  0.1548 -1.2987  1.4512
 4741TIP3    H135638   3.282   3.197   1.623  0.2686 -0.8618  1.2592
 4741TIP3    H235639   3.278   3.093   1.513 -0.9440  1.4792 -0.9291
 4742TIP3   OH235640   6.127   2.816   0.464  0.3629 -0.3981  0.4063
 4742TIP3    H135641   6.058   2.876   0.437  0.0809 -0.2835  1.3640
 4742TIP3    H235642   6.191   2.873   0.507  0.4922 -0.6736  0.5739
 4743TIP3   OH235643   3.414   1.803   2.823 -0.5111 -0.3140  0.5127
 4743TIP3    H135644   3.485   1.783   2.762 -0.8919 -0.9590  0.2851
 4743TIP3    H235645   3.359   1.726   2.822 -2.9591  1.3698 -1.7212
 4744TIP3   OH235646   4.536   0.624   0.747  0.0378  0.1265 -0.7073
 4744TIP3    H135647   4.550   0.654   0.837 -1.1965 -0.1941 -0.3896
 4744TIP3    H235648   4.532   0.704   0.695 -2.8186  0.5623  0.0653
 4745TIP3   OH235649   4.564   1.307  12.645  0.2804 -0.0067  0.2466
 4745TIP3    H135650   4.470   1.292  12.643 -0.1241  2.3455 -2.2217
 4745TIP3    H235651   4.575   1.384  12.702  0.8774 -1.1350  1.6854
 4746TIP3   OH235652   4.460   3.000  17.204 -0.2343 -0.2542 -0.0471
 4746TIP3    H135653   4.395   3.046  17.257  0.6097  1.8676 -0.8046
 4746TIP3    H235654   4.482   2.922  17.255 -0.6697  0.8955  1.9318
 4747TIP3   OH235655   5.488   0.912   0.712 -0.2748 -0.9239  0.3101
 4747TIP3    H135656   5.557   0.871   0.659 -0.2619 -1.7000  0.9147
 4747TIP3    H235657   5.527   0.923   0.798 -0.5665 -0.4091  0.3800
 4748TIP3   OH235658   3.641   2.896   3.744  0.6152 -0.3665 -0.5960
 4748TIP3    H135659   3.735   2.911   3.730  0.7180 -0.3104  0.1583
 4748TIP3    H235660   3.599   2.943   3.672  1.1186  0.4231 -0.3842
 4749TIP3   OH235661   1.881   5.708   0.186  0.1996 -0.4523  0.1542
 4749TIP3    H135662   1.878   5.681   0.278 -0.8715 -0.0837  0.2286
 4749TIP3    H235663   1.835   5.791   0.183 -0.2508 -0.7283 -0.8128
 4750TIP3   OH235664   4.586   4.686   1.143  0.4391  0.3291  0.0671
 4750TIP3    H135665   4.494   4.709   1.128  0.2026 -0.8923 -0.4259
 4750TIP3    H235666   4.634   4.738   1.078 -0.0279 -0.0628 -0.5948
 4751TIP3   OH235667   3.153   1.171   3.219 -0.0916 -0.2776 -0.5477
 4751TIP3    H135668   3.166   1.216   3.303  0.8436  2.5980 -2.1931
 4751TIP3    H235669   3.211   1.095   3.224  1.0724  0.6613  0.8781
 4752TIP3   OH235670   5.597   5.049  11.818 -0.1247 -0.1077  0.4720
 4752TIP3    H135671   5.558   4.969  11.854 -0.0665  0.7049  2.4144
 4752TIP3    H235672   5.522   5.103  11.792 -0.1825 -0.5042 -0.1740
 4753TIP3   OH235673   4.987   6.225   3.715  0.1305  0.0221 -0.1832
 4753TIP3    H135674   4.947   6.262   3.637 -0.4113  0.3108  0.2282
 4753TIP3    H235675   4.984   6.130   3.701  0.5861  0.0979 -0.7807
 4754TIP3   OH235676   5.014   5.921  13.340  0.3929 -0.0819 -0.3447
 4754TIP3    H135677   4.973   5.988  13.394  1.5103  0.9358 -0.7400
 4754TIP3    H235678   5.073   5.969  13.282  2.0603 -1.4731  0.1330
 4755TIP3   OH235679   2.302   0.122   3.792  0.2723  0.1834 -0.1156
 4755TIP3    H135680   2.340   0.143   3.877 -2.6397  1.5514  0.8994
 4755TIP3    H235681   2.352   0.046   3.761  0.6438 -1.0336  3.3313
 4756TIP3   OH235682   5.404   3.914   3.836  0.0687 -0.4399 -0.5072
 4756TIP3    H135683   5.463   3.952   3.901 -0.6522 -1.2817  0.6730
 4756TIP3    H235684   5.328   3.973   3.835  0.2244 -0.2437 -0.8370
 4757TIP3   OH235685   0.670   4.191  12.388 -0.6427  0.3447 -0.0030
 4757TIP3    H135686   0.673   4.243  12.468  0.3916 -2.0785  1.5887
 4757TIP3    H235687   0.583   4.150  12.390 -1.1678  1.3913 -0.8715
 4758TIP3   OH235688   6.539   6.467  14.494 -0.3065  0.6034 -0.0464
 4758TIP3    H135689   6.450   6.439  14.470 -0.9306  1.0243  1.6888
 4758TIP3    H235690   6.592   6.388  14.489 -1.3755 -0.2463  1.6450
 4759TIP3   OH235691   0.230   3.405   5.468  0.1561  0.0571 -0.4435
 4759TIP3    H135692   0.307   3.410   5.411 -0.4572  1.3566 -1.1772
 4759TIP3    H235693   0.256   3.452   5.547  0.5469 -0.5930 -0.1830
 4760TIP3   OH235694   0.562   0.457   2.197  0.2398 -0.2128 -0.2385
 4760TIP3    H135695   0.591   0.367   2.214  2.0777 -0.1870 -2.9561
 4760TIP3    H235696   0.639   0.511   2.214 -0.8653  0.8925  1.3966
 4761TIP3   OH235697   5.455   5.055   3.453 -0.1207  0.3139  0.1557
 4761TIP3    H135698   5.505   4.999   3.513  1.9549  0.1086 -1.7116
 4761TIP3    H235699   5.409   4.994   3.395 -1.1344  0.5241  0.7286
 4762TIP3   OH235700   3.000   4.627  12.010 -0.2280  0.2769  0.5566
 4762TIP3    H135701   2.985   4.544  12.054 -1.2972 -0.2795 -0.8182
 4762TIP3    H235702   2.983   4.609  11.918  1.0751  1.6384  0.0246
 4763TIP3   OH235703   1.903   2.688  16.024 -0.1583  0.3435 -0.5932
 4763TIP3    H135704   1.921   2.597  16.047 -0.4399  0.2557 -0.7205
 4763TIP3    H235705   1.843   2.719  16.092  1.2811  0.9444  0.4170
 4764TIP3   OH235706   1.966   6.343   5.588 -0.5853 -0.1734  0.4349
 4764TIP3    H135707   1.938   6.317   5.676 -2.0542  1.5937  0.5063
 4764TIP3    H235708   1.954   6.438   5.585 -0.9823 -0.2639 -1.8189
 4765TIP3   OH235709   3.590   0.662  15.683 -0.2092 -0.8398 -0.3024
 4765TIP3    H135710   3.566   0.748  15.647  1.5257  0.4729  1.5379
 4765TIP3    H235711   3.607   0.679  15.776  0.2966 -3.1660  0.0696
 4766TIP3   OH235712   3.098   6.109   5.312 -0.3801 -0.1809 -0.4489
 4766TIP3    H135713   3.173   6.105   5.371  0.1753 -0.3665 -1.1636
 4766TIP3    H235714   3.135   6.095   5.225 -1.4894 -2.1663 -0.6273
 4767TIP3   OH235715   3.516   5.433   4.033  0.0425  0.4263 -0.2235
 4767TIP3    H135716   3.438   5.430   4.087  0.9552  0.7649  1.1317
 4767TIP3    H235717   3.510   5.517   3.987  0.1294  0.9178  0.6630
 4768TIP3   OH235718   2.627   6.164  11.918 -0.1017 -0.1341  0.2199
 4768TIP3    H135719   2.574   6.199  11.989  1.4134 -0.3963  1.5161
 4768TIP3    H235720   2.564   6.119  11.861 -1.0764 -1.7611  2.5195
 4769TIP3   OH235721   1.487   2.304   5.193 -0.3597 -0.1460  0.0023
 4769TIP3    H135722   1.493   2.346   5.279 -1.5538 -0.3368  0.1847
 4769TIP3    H235723   1.508   2.212   5.210  0.6484  0.0537 -0.1271
 4770TIP3   OH235724   5.573   6.216   1.083 -0.4265 -0.1587 -0.1861
 4770TIP3    H135725   5.596   6.123   1.089  1.2408  0.2514  0.1429
 4770TIP3    H235726   5.562   6.243   1.174  2.0834  0.6593 -0.0949
 4771TIP3   OH235727   2.677   4.571  16.400  0.3086  0.0954  0.3572
 4771TIP3    H135728   2.763   4.529  16.395  0.2795  0.1594 -0.8526
 4771TIP3    H235729   2.690   4.644  16.460  0.7241 -0.7650  1.3310
 4772TIP3   OH235730   1.020   2.692   6.185 -0.0968 -0.3939  0.1781
 4772TIP3    H135731   1.035   2.598   6.195 -1.3174 -0.6227 -0.0136
 4772TIP3    H235732   1.070   2.732   6.256 -0.2964 -1.2531  0.8075
 4773TIP3   OH235733   5.096   1.770  15.133  0.0434  0.0587  0.1248
 4773TIP3    H135734   5.138   1.850  15.103 -3.1182  0.9689 -2.1650
 4773TIP3    H235735   5.108   1.708  15.062  0.6067 -0.8327  0.9789
 4774TIP3   OH235736   1.314   6.062  17.119 -0.1662  0.0891 -0.2577
 4774TIP3    H135737   1.231   6.083  17.077 -0.0723  0.8518 -0.0734
 4774TIP3    H235738   1.340   6.143  17.163  1.1975  0.1663 -1.1832
 4775TIP3   OH235739   3.992   5.674  11.005  0.0394  0.1297  0.1162
 4775TIP3    H135740   3.923   5.629  10.957  0.1811 -1.4871  1.3714
 4775TIP3    H235741   3.958   5.684  11.094  1.3984 -0.7135  0.7580
 4776TIP3   OH235742   4.225   0.523   5.584 -0.5400  0.3437  0.2890
 4776TIP3    H135743   4.241   0.568   5.667  1.2764 -1.2277  0.8225
 4776TIP3    H235744   4.278   0.571   5.520 -0.4922  0.4183  0.3850
 4777TIP3   OH235745   4.786   1.007  13.400  0.3602  0.3848 -0.0516
 4777TIP3    H135746   4.864   0.992  13.453 -0.8317 -2.1572  1.0989
 4777TIP3    H235747   4.799   0.953  13.322  0.3922  1.1023 -0.5495
 4778TIP3   OH235748   1.114   6.670  12.859  0.3315  0.2593 -0.0495
 4778TIP3    H135749   1.059   6.748  12.849  0.3745  0.5922  1.9785
 4778TIP3    H235750   1.102   6.621  12.778 -1.7356  1.1031 -0.2963
 4779TIP3   OH235751   1.022   2.424   1.656  0.6325 -0.5996 -0.1875
 4779TIP3    H135752   1.092   2.439   1.720 -1.2609  0.2710  1.7398
 4779TIP3    H235753   1.021   2.503   1.603 -1.4201  1.1183  2.2944
 4780TIP3   OH235754   2.846   3.986   0.978 -0.2170  0.0953 -0.1369
 4780TIP3    H135755   2.765   3.986   1.030 -0.7706 -1.8212 -0.9362
 4780TIP3    H235756   2.818   3.958   0.891  1.1670  0.4026 -0.6874
 4781TIP3   OH235757   5.815   1.615   1.746 -0.0994 -0.0795  0.1942
 4781TIP3    H135758   5.815   1.676   1.672  0.5793 -0.1117  0.1635
 4781TIP3    H235759   5.893   1.639   1.796 -0.5699 -0.0412  0.9170
 4782TIP3   OH235760   1.512   0.095   2.257  0.4738  0.8845  0.2279
 4782TIP3    H135761   1.462   0.062   2.331  0.8449  1.0811  0.5763
 4782TIP3    H235762   1.566   0.165   2.295  0.2008  1.4161 -0.3528
 4783TIP3   OH235763   4.593   0.081  13.232  0.6962  0.0228  0.0891
 4783TIP3    H135764   4.520   0.141  13.246  1.3921  0.7568  0.5670
 4783TIP3    H235765   4.650   0.093  13.307 -0.3439 -3.0178  1.4287
 4784TIP3   OH235766   5.865   4.779   3.314 -0.2614  0.3238 -0.0806
 4784TIP3    H135767   5.831   4.855   3.266  1.7461  1.1473 -0.2222
 4784TIP3    H235768   5.937   4.814   3.366 -0.6716 -1.0915  1.4947
 4785TIP3   OH235769   3.360   3.580  15.797 -0.0978  0.0649  0.3512
 4785TIP3    H135770   3.396   3.583  15.885 -2.2564  2.6076  1.2387
 4785TIP3    H235771   3.279   3.529  15.806  0.6617 -1.3219 -0.5672
 4786TIP3   OH235772   5.952   1.734   1.489 -0.0962 -0.3025 -0.5451
 4786TIP3    H135773   6.005   1.725   1.409  0.6921 -1.4602  0.0883
 4786TIP3    H235774   5.996   1.677   1.553  0.2055  1.8620  1.2099
 4787TIP3   OH235775   5.797   5.261  17.105 -0.0623  0.2035 -0.4808
 4787TIP3    H135776   5.865   5.328  17.115  0.8800 -0.9793  1.1799
 4787TIP3    H235777   5.845   5.183  17.078 -0.4737 -1.1314  2.4652
 4788TIP3   OH235778   3.432   5.548  11.364  0.1771 -0.3842  0.5307
 4788TIP3    H135779   3.502   5.520  11.423 -0.6962 -0.2811  1.6394
 4788TIP3    H235780   3.442   5.492  11.287  2.0659  0.2893  0.2721
 4789TIP3   OH235781   3.693   4.996   4.764 -0.6569  0.2888  0.1430
 4789TIP3    H135782   3.706   4.983   4.670 -2.3941 -0.5901  0.0107
 4789TIP3    H235783   3.761   4.942   4.805  0.3499  0.9691 -0.5960
 4790TIP3   OH235784   5.317   3.798   0.119 -0.1667  0.1386 -0.2728
 4790TIP3    H135785   5.339   3.835   0.033 -0.8401  2.4777  0.5221
 4790TIP3    H235786   5.254   3.728   0.099 -0.0416  0.4131 -1.7115
 4791TIP3   OH235787   2.594   1.700  12.165  0.2897  0.3357  0.4630
 4791TIP3    H135788   2.511   1.659  12.141  0.8719  0.1777 -1.3822
 4791TIP3    H235789   2.598   1.780  12.112  0.7849  0.9463  1.4066
 4792TIP3   OH235790   4.198   6.357  13.940  0.1174  0.3775 -0.6845
 4792TIP3    H135791   4.256   6.432  13.925 -0.5971  1.0376 -0.1740
 4792TIP3    H235792   4.147   6.381  14.017 -0.3732 -0.4805 -0.7386
 4793TIP3   OH235793   3.905   0.346   2.689  0.4762 -1.0779 -0.2219
 4793TIP3    H135794   3.904   0.419   2.627  0.0140 -0.5909  0.3586
 4793TIP3    H235795   3.912   0.387   2.775  1.2021 -1.7554  0.0505
 4794TIP3   OH235796   0.232   1.941   2.051 -0.0480 -0.2373  0.1194
 4794TIP3    H135797   0.314   1.926   2.003  1.2569  1.4016  1.7300
 4794TIP3    H235798   0.244   1.892   2.133 -0.3774  0.5745  0.6594
 4795TIP3   OH235799   4.366   3.816  14.939 -0.2809  0.3913 -0.3562
 4795TIP3    H135800   4.296   3.791  14.999  0.8031  0.8069  1.1440
 4795TIP3    H235801   4.361   3.753  14.868 -3.1376  1.3589 -1.0691
 4796TIP3   OH235802   5.333   0.253  16.204 -0.8265  0.3218  0.4476
 4796TIP3    H135803   5.370   0.277  16.289  0.3493  0.8171 -0.2026
 4796TIP3    H235804   5.388   0.298  16.140 -2.6291  1.1862 -0.5297
 4797TIP3   OH235805   4.580   1.557  11.206 -0.1660  0.3070 -0.1844
 4797TIP3    H135806   4.602   1.464  11.199  0.6846  0.6628 -2.3220
 4797TIP3    H235807   4.653   1.595  11.255 -0.5476 -0.1289  0.7556
 4798TIP3   OH235808   0.974   1.204  11.661  0.0618 -0.4163 -0.2300
 4798TIP3    H135809   1.009   1.148  11.593  1.2383 -1.6679  1.3712
 4798TIP3    H235810   1.039   1.200  11.732  0.4574  3.3577 -0.2599
 4799TIP3   OH235811   2.917   4.399   1.911 -0.0200  0.1930 -0.0346
 4799TIP3    H135812   2.950   4.471   1.965  1.8769 -0.4903 -0.2502
 4799TIP3    H235813   2.995   4.350   1.886 -1.3283 -2.5085  0.9088
 4800TIP3   OH235814   0.383   2.066  11.119  0.6275 -0.2850  0.4115
 4800TIP3    H135815   0.354   2.094  11.032  2.1413  0.9974  0.3035
 4800TIP3    H235816   0.428   2.142  11.155  1.7940 -1.4715  1.5032
 4801TIP3   OH235817   3.454   4.149   0.317 -0.1979 -0.0656  0.2144
 4801TIP3    H135818   3.509   4.103   0.380 -0.2164 -0.5440 -0.1209
 4801TIP3    H235819   3.508   4.154   0.237 -0.0319  0.8589  0.3776
 4802TIP3   OH235820   2.775   1.371  10.533 -0.2379 -0.4047  0.4731
 4802TIP3    H135821   2.714   1.379  10.460 -0.0097  0.3465  0.3488
 4802TIP3    H235822   2.748   1.440  10.594  0.3306 -0.2207  0.5243
 4803TIP3   OH235823   6.522   1.789  14.560  0.8510 -0.1790 -0.2453
 4803TIP3    H135824   6.557   1.856  14.501 -0.2691 -0.5790 -1.3971
 4803TIP3    H235825   6.521   1.709  14.507 -1.7272 -0.1868 -0.2452
 4804TIP3   OH235826   0.232   3.651  16.792 -0.2646  0.1692  0.0740
 4804TIP3    H135827   0.149   3.620  16.757 -0.3897 -0.3929  0.8744
 4804TIP3    H235828   0.216   3.744  16.811 -0.2959  0.3978 -1.0374
 4805TIP3   OH235829   5.836   4.162  13.646 -0.0464  0.0682  0.6226
 4805TIP3    H135830   5.866   4.213  13.721 -0.1981  0.9873  0.0617
 4805TIP3    H235831   5.788   4.225  13.592 -0.1004 -0.6358 -0.1523
 4806TIP3   OH235832   0.440   2.796  13.861  0.2193 -0.1968  0.1095
 4806TIP3    H135833   0.472   2.746  13.936  1.6281 -0.6483 -0.7681
 4806TIP3    H235834   0.363   2.748  13.831  1.9364 -2.2895 -1.1333
 4807TIP3   OH235835   4.196   1.658  10.794  0.2699  0.0934 -0.6154
 4807TIP3    H135836   4.286   1.684  10.813 -0.3510  1.1852  0.9871
 4807TIP3    H235837   4.143   1.729  10.829 -1.2258 -0.5773 -1.4657
 4808TIP3   OH235838   6.402   3.629   4.993 -0.4072  0.2115 -0.1787
 4808TIP3    H135839   6.423   3.713   4.952 -1.2369  1.0110  0.9725
 4808TIP3    H235840   6.481   3.576   4.983  1.2769  2.2384  1.8523
 4809TIP3   OH235841   1.277   4.968   6.106 -0.7085  0.3284  0.6736
 4809TIP3    H135842   1.297   5.052   6.147 -1.5301  2.1156 -2.4124
 4809TIP3    H235843   1.361   4.935   6.074 -0.6886  1.0423 -0.0143
 4810TIP3   OH235844   4.874   0.457   0.452 -0.3169  0.1423 -0.4403
 4810TIP3    H135845   4.902   0.383   0.398  0.0474  0.1681 -0.2878
 4810TIP3    H235846   4.928   0.530   0.422 -1.0206  0.4615 -0.9273
 4811TIP3   OH235847   4.043   3.901  14.974 -0.5798  0.0325 -0.2078
 4811TIP3    H135848   3.997   3.886  14.891 -0.1266  1.2359 -0.6975
 4811TIP3    H235849   4.041   3.817  15.019  1.1380 -1.2757 -2.4432
 4812TIP3   OH235850   3.998   3.614  16.106 -0.3330 -0.0157 -0.6245
 4812TIP3    H135851   4.063   3.552  16.140 -0.4089 -0.5367 -1.4211
 4812TIP3    H235852   4.008   3.610  16.011 -1.6469 -0.2291 -0.7662
 4813TIP3   OH235853   1.603   0.849  14.845 -0.1975 -0.5078  0.5099
 4813TIP3    H135854   1.595   0.791  14.921  0.6758 -1.0579  0.1807
 4813TIP3    H235855   1.697   0.864  14.836 -0.3061 -0.4256 -0.4662
 4814TIP3   OH235856   5.825   4.268   5.166 -0.1992  0.1660  0.1716
 4814TIP3    H135857   5.815   4.210   5.091 -0.7130 -1.8044  1.7238
 4814TIP3    H235858   5.737   4.301   5.183 -0.3003 -0.3778  0.6923
 4815TIP3   OH235859   1.750   1.979   3.865 -0.1131 -0.1483  0.1564
 4815TIP3    H135860   1.700   2.060   3.849  0.9920  0.3147 -1.0375
 4815TIP3    H235861   1.689   1.909   3.844  0.1639  0.4189 -2.7960
 4816TIP3   OH235862   0.939   5.927   2.945  0.4389 -0.0078  0.0867
 4816TIP3    H135863   0.861   5.872   2.937 -0.5115  1.4574 -0.8369
 4816TIP3    H235864   1.006   5.868   2.982 -1.0584 -1.2838  0.8084
 4817TIP3   OH235865   5.175   1.557   0.813  0.4399 -0.1303  0.2435
 4817TIP3    H135866   5.179   1.609   0.893 -2.0213 -0.2529  0.4736
 4817TIP3    H235867   5.215   1.473   0.837 -0.1106 -0.1017  1.2958
 4818TIP3   OH235868   5.900   0.534  12.366 -0.5150 -0.1561  0.0928
 4818TIP3    H135869   5.993   0.524  12.348 -0.8605  0.4781 -2.2481
 4818TIP3    H235870   5.860   0.454  12.332 -0.6146 -1.5248  3.2343
 4819TIP3   OH235871   4.215   0.987  17.120  0.0112  0.0152  0.2894
 4819TIP3    H135872   4.172   0.904  17.096 -1.3422  1.2265 -1.6185
 4819TIP3    H235873   4.220   1.035  17.038  0.5620  1.9402  1.4291
 4820TIP3   OH235874   1.522   2.762   2.172  0.0487 -0.0513  0.2169
 4820TIP3    H135875   1.477   2.742   2.254 -0.8832  0.6389 -0.1292
 4820TIP3    H235876   1.454   2.755   2.105  0.4475  1.0379 -0.3021
 4821TIP3   OH235877   3.989   4.202  11.918  0.2285 -0.6560  0.3177
 4821TIP3    H135878   3.952   4.287  11.895  1.9001  0.1096  0.3534
 4821TIP3    H235879   3.937   4.172  11.992 -0.4890  0.2534  0.1951
 4822TIP3   OH235880   2.790   3.663  11.163 -0.1722 -0.1608 -0.0529
 4822TIP3    H135881   2.771   3.676  11.070 -0.8139  0.4759  0.1598
 4822TIP3    H235882   2.704   3.664  11.205  0.1345 -0.1780  0.5805
 4823TIP3   OH235883   0.189   3.897  15.325 -0.3835  0.0944 -0.4381
 4823TIP3    H135884   0.189   3.983  15.284  0.3316  0.4962  0.4222
 4823TIP3    H235885   0.251   3.903  15.397 -1.2959 -0.7556  0.4375
 4824TIP3   OH235886   2.516   4.961   5.780  0.5346  0.1448  0.2065
 4824TIP3    H135887   2.483   5.044   5.813  2.9409  0.8237  1.0600
 4824TIP3    H235888   2.536   4.978   5.687 -2.8564 -0.7289 -0.7520
 4825TIP3   OH235889   0.341   3.919  11.652 -0.6602  0.1061 -0.3901
 4825TIP3    H135890   0.329   4.011  11.630 -2.6418  0.1536  0.8347
 4825TIP3    H235891   0.359   3.918  11.746  0.5200 -0.6805 -0.6097
 4826TIP3   OH235892   0.245   1.822  14.708  0.0213  0.3191 -0.1788
 4826TIP3    H135893   0.185   1.828  14.782 -0.6304 -0.0534 -0.6777
 4826TIP3    H235894   0.332   1.828  14.748 -0.3445  1.2272  0.5028
 4827TIP3   OH235895   0.942   3.013  12.511 -0.5277  0.3834  0.1455
 4827TIP3    H135896   0.988   2.967  12.581  1.9690 -1.3517 -2.5238
 4827TIP3    H235897   0.873   2.952  12.483 -0.7355  0.5650  0.2564
 4828TIP3   OH235898   3.665   2.457  13.314 -0.5053  0.5207  0.1795
 4828TIP3    H135899   3.720   2.391  13.271 -1.2304 -0.4781  0.7706
 4828TIP3    H235900   3.648   2.522  13.246  1.3518  0.8132 -0.0368
 4829TIP3   OH235901   0.479   0.397  12.641 -0.2982  0.1352  0.1246
 4829TIP3    H135902   0.478   0.407  12.736  1.2830 -1.3968  0.3296
 4829TIP3    H235903   0.558   0.346  12.623 -0.9070 -0.1248 -1.9620
 4830TIP3   OH235904   4.352   5.271   3.766 -0.1001  0.1436  0.2487
 4830TIP3    H135905   4.334   5.178   3.748 -1.0429  0.2406  0.6684
 4830TIP3    H235906   4.417   5.296   3.700  1.4371 -1.2565  1.1707
 4831TIP3   OH235907   1.746   5.847  13.334 -0.0803 -0.3609 -0.0263
 4831TIP3    H135908   1.801   5.774  13.306 -1.1109 -0.0223 -3.0814
 4831TIP3    H235909   1.672   5.846  13.274 -0.5150  2.7311  0.3664
 4832TIP3   OH235910   2.061   5.199  14.826  0.0810 -0.4950 -0.5761
 4832TIP3    H135911   2.108   5.188  14.909 -0.7291  0.6827  0.0526
 4832TIP3    H235912   2.130   5.210  14.761  0.7231 -1.1811 -0.0267
 4833TIP3   OH235913   0.438   4.857  12.630 -0.0531 -0.2314  0.2722
 4833TIP3    H135914   0.352   4.860  12.672  1.3046  2.3343  3.0074
 4833TIP3    H235915   0.444   4.939  12.581 -0.0047 -1.3916 -1.7064
 4834TIP3   OH235916   5.273   5.684  13.990 -0.7799  0.0853  0.6924
 4834TIP3    H135917   5.274   5.640  13.905  0.5027 -1.3997  1.4492
 4834TIP3    H235918   5.306   5.772  13.971 -1.7332  0.1904 -0.5582
 4835TIP3   OH235919   5.938   6.785  12.618 -0.1155  0.6779  0.3437
 4835TIP3    H135920   5.906   6.819  12.534 -0.6980 -0.8007 -0.0429
 4835TIP3    H235921   5.930   6.690  12.610  2.4379  0.3684  1.0202
 4836TIP3   OH235922   5.419   2.081   5.095  0.3262  0.3127 -0.2547
 4836TIP3    H135923   5.442   1.990   5.077  1.6475  0.5202  0.3316
 4836TIP3    H235924   5.361   2.105   5.024  0.7497 -0.6946 -0.9596
 4837TIP3   OH235925   1.821   4.955  14.562 -0.6739  0.0344 -0.3101
 4837TIP3    H135926   1.825   5.039  14.608  2.8156  0.0363 -0.4491
 4837TIP3    H235927   1.824   4.890  14.631 -2.9225 -0.0182 -0.2274
 4838TIP3   OH235928   2.522   2.690  16.136 -0.0965 -0.2284  0.1071
 4838TIP3    H135929   2.588   2.664  16.200 -0.9084 -1.5207  0.4447
 4838TIP3    H235930   2.562   2.673  16.051  0.4594  0.1780  0.2827
 4839TIP3   OH235931   1.704   1.310  13.604 -0.1969 -0.2897  0.0954
 4839TIP3    H135932   1.734   1.388  13.651  0.8731  0.9394 -2.5343
 4839TIP3    H235933   1.612   1.302  13.628  0.4249 -0.0071  2.7612
 4840TIP3   OH235934   2.416   3.128  13.060 -0.1170  0.1142  0.2407
 4840TIP3    H135935   2.453   3.216  13.068  0.8888 -0.2172 -0.6558
 4840TIP3    H235936   2.352   3.136  12.989  0.4272 -0.0281 -0.2638
 4841TIP3   OH235937   5.723   4.988   3.178  0.1014 -0.6414 -0.6793
 4841TIP3    H135938   5.764   5.006   3.093  0.5581 -1.9186 -0.7564
 4841TIP3    H235939   5.648   5.047   3.182  1.3567  1.0021 -0.9971
 4842TIP3   OH235940   1.104   0.214  12.072  0.3215  0.5635  0.5375
 4842TIP3    H135941   1.071   0.300  12.045  0.1019 -0.2451 -1.9108
 4842TIP3    H235942   1.034   0.178  12.126 -0.9105  0.7281 -0.9061
 4843TIP3   OH235943   2.867   3.871  15.247  0.1863  0.4077 -0.1084
 4843TIP3    H135944   2.808   3.946  15.235  2.2020  2.3504  1.5521
 4843TIP3    H235945   2.822   3.816  15.311  1.1111  3.0665  3.0082
 4844TIP3   OH235946   0.177   0.806  15.489  0.1226 -0.1971 -0.5390
 4844TIP3    H135947   0.211   0.803  15.579 -1.5351  0.5955  0.1261
 4844TIP3    H235948   0.195   0.895  15.460 -0.0925 -0.2019 -0.6872
 4845TIP3   OH235949   4.521   5.727  11.493 -0.2918  0.0662  0.5316
 4845TIP3    H135950   4.538   5.821  11.503 -0.9540 -0.0474  3.1538
 4845TIP3    H235951   4.561   5.687  11.570 -0.6444 -1.7458 -0.1835
 4846TIP3   OH235952   0.284   4.442  11.543 -0.5210  0.3876  0.8513
 4846TIP3    H135953   0.321   4.421  11.629 -0.8137 -0.0124  0.8816
 4846TIP3    H235954   0.354   4.423  11.481 -0.9315 -1.0945  0.8390
 4847TIP3   OH235955   1.102   2.435  12.844  0.8593  0.1156 -0.4808
 4847TIP3    H135956   1.047   2.444  12.767  0.5429 -1.9928 -0.5432
 4847TIP3    H235957   1.109   2.340  12.857  1.1384  0.4357  1.9100
 4848TIP3   OH235958   0.839   0.215  16.137  0.6985 -0.5269  0.1327
 4848TIP3    H135959   0.768   0.221  16.073  1.6086 -1.2891 -0.9693
 4848TIP3    H235960   0.795   0.202  16.220 -0.4415 -3.8234 -0.8970
 4849TIP3   OH235961   0.525   5.584  15.949 -0.6913 -0.6069 -0.6098
 4849TIP3    H135962   0.559   5.498  15.972 -1.9371 -1.3094 -1.3451
 4849TIP3    H235963   0.491   5.574  15.860  0.3889  1.0082 -1.2428
 4850TIP3   OH235964   3.363   0.183   5.044  0.0698  0.2524  0.0966
 4850TIP3    H135965   3.338   0.268   5.081  0.8326 -0.2146  1.7605
 4850TIP3    H235966   3.446   0.199   5.000  1.2125 -0.0069  2.0868
 4851TIP3   OH235967   1.889   4.052  14.624 -0.2238 -0.7526  0.3496
 4851TIP3    H135968   1.928   4.139  14.638 -0.6628 -0.4910 -0.0275
 4851TIP3    H235969   1.949   4.010  14.562 -1.8250  0.5734 -2.1947
 4852TIP3   OH235970   5.729   4.143  14.881 -0.6017 -0.2807 -0.3013
 4852TIP3    H135971   5.713   4.052  14.906 -1.9033 -0.0685 -0.3051
 4852TIP3    H235972   5.782   4.137  14.802 -0.0439 -1.0137  0.1145
 4853TIP3   OH235973   2.498   4.823  16.327  0.3239 -0.0871 -0.4369
 4853TIP3    H135974   2.484   4.752  16.390  0.2940 -0.5736 -0.9927
 4853TIP3    H235975   2.573   4.795  16.275 -0.0698 -0.0068 -1.0576
 4854TIP3   OH235976   0.886   5.113   2.660 -0.2979  0.4854 -0.0957
 4854TIP3    H135977   0.861   5.031   2.617  0.4784  1.1498 -1.8431
 4854TIP3    H235978   0.929   5.086   2.741 -0.1099 -0.8277 -0.6282
 4855TIP3   OH235979   5.505   5.349  14.050  0.4180  0.1633 -0.3210
 4855TIP3    H135980   5.466   5.261  14.055 -0.5130  0.5295 -0.9788
 4855TIP3    H235981   5.433   5.409  14.068  0.9220  0.8153 -0.4359
 4856TIP3   OH235982   1.908   6.640   1.415 -0.0337 -0.1250 -0.1706
 4856TIP3    H135983   1.985   6.651   1.470  0.3794  0.3775 -0.8377
 4856TIP3    H235984   1.891   6.546   1.417 -0.3932 -0.0393  1.2998
 4857TIP3   OH235985   6.521   5.284  13.473 -0.2316  0.2569 -0.4006
 4857TIP3    H135986   6.610   5.309  13.496  0.8795 -1.0039 -3.2343
 4857TIP3    H235987   6.485   5.362  13.430  0.2158  0.0362 -1.1742
 4858TIP3   OH235988   2.137   6.453  14.192 -0.1503  0.1794  0.5129
 4858TIP3    H135989   2.054   6.414  14.165 -0.9599  1.1088  1.6105
 4858TIP3    H235990   2.170   6.395  14.261 -0.4370  0.4166  0.8496
 4859TIP3   OH235991   4.370   0.768  13.788 -0.1440  0.2830  0.1439
 4859TIP3    H135992   4.421   0.840  13.753 -0.8257  0.1733 -1.1120
 4859TIP3    H235993   4.290   0.809  13.820 -1.1556 -0.0533 -1.8574
 4860TIP3   OH235994   6.758   2.387   0.721  0.0261  0.4745  0.0748
 4860TIP3    H135995   6.672   2.404   0.760  0.3407  0.4982  0.7682
 4860TIP3    H235996   6.780   2.298   0.748  0.1333  0.3953 -0.2696
 4861TIP3   OH235997   5.414   2.671   1.140  0.4252 -0.5453 -0.6510
 4861TIP3    H135998   5.415   2.709   1.052 -0.1826 -1.9665 -1.2826
 4861TIP3    H235999   5.322   2.679   1.168  0.1510 -2.0768 -1.0457
 4862TIP3   OH236000   5.366   2.884   4.663  0.0437 -0.0247  0.3978
 4862TIP3    H136001   5.305   2.950   4.697 -0.8568 -0.6124 -0.0646
 4862TIP3    H236002   5.364   2.814   4.729  0.0600 -0.1398  0.2754
 4863TIP3   OH236003   6.536   6.406  15.634  0.7102 -0.4718 -0.0910
 4863TIP3    H136004   6.448   6.394  15.670  1.7948  1.7504  3.6172
 4863TIP3    H236005   6.593   6.363  15.697  2.4366 -0.0938 -1.3639
 4864TIP3   OH236006   0.729   1.524   0.116 -0.1496 -0.1157 -0.0523
 4864TIP3    H136007   0.730   1.494   0.026 -0.8550 -0.6974  0.1270
 4864TIP3    H236008   0.680   1.606   0.113 -1.9246 -1.1508  0.0979
 4865TIP3   OH236009   2.994   4.590  15.356  0.0813 -0.5225 -0.1789
 4865TIP3    H136010   2.932   4.518  15.344 -1.1058  0.4123  0.2537
 4865TIP3    H236011   3.027   4.608  15.268 -0.3039 -0.9850 -0.4232
 4866TIP3   OH236012   0.781   1.061  15.061  0.2619  0.4222 -0.3618
 4866TIP3    H136013   0.720   1.114  15.112  0.7982  0.8913 -0.2158
 4866TIP3    H236014   0.821   1.002  15.125 -1.7159 -1.4734 -0.8094
 4867TIP3   OH236015   4.544   4.535   2.316 -0.0507 -0.1457  0.8381
 4867TIP3    H136016   4.493   4.462   2.280 -1.4470  0.5074  1.4353
 4867TIP3    H236017   4.574   4.504   2.401  1.5005 -0.9359  0.0163
 4868TIP3   OH236018   3.262   0.665   5.303 -0.3074 -0.6499  0.1061
 4868TIP3    H136019   3.192   0.698   5.246 -1.0823 -1.8614  0.3226
 4868TIP3    H236020   3.217   0.641   5.384  0.5405 -0.4119  0.6551
 4869TIP3   OH236021   4.825   3.518  12.560  0.5474  0.3455 -0.4376
 4869TIP3    H136022   4.747   3.467  12.535 -1.0145  1.7241  1.4900
 4869TIP3    H236023   4.880   3.456  12.607  0.3512 -0.4906 -1.2868
 4870TIP3   OH236024   5.540   0.023  12.385 -0.5798 -0.0385  0.1930
 4870TIP3    H136025   5.463  -0.031  12.403 -1.1749 -0.1315 -2.3042
 4870TIP3    H236026   5.504   0.111  12.373 -0.4744 -0.2388 -1.8746
 4871TIP3   OH236027   2.179   0.944   5.543 -0.5447  0.4554 -0.0616
 4871TIP3    H136028   2.090   0.911   5.528  0.2900 -1.5297 -0.7008
 4871TIP3    H236029   2.177   0.975   5.634 -2.3645  2.0224 -0.5990
 4872TIP3   OH236030   4.764   3.640   4.476  0.1620  0.1130  0.2853
 4872TIP3    H136031   4.821   3.648   4.399 -1.4047  0.8563 -0.8443
 4872TIP3    H236032   4.785   3.555   4.513  0.0689 -0.8150 -1.7168
 4873TIP3   OH236033   3.555   1.700   5.227  0.5457  0.2463  0.2463
 4873TIP3    H136034   3.627   1.644   5.256  1.6844  1.4378 -0.2795
 4873TIP3    H236035   3.591   1.751   5.155 -0.0234  2.7136  1.6648
 4874TIP3   OH236036   0.205   1.263   2.928 -0.5368 -0.0616  0.0563
 4874TIP3    H136037   0.228   1.261   3.021 -2.6793  1.2819  0.6536
 4874TIP3    H236038   0.248   1.187   2.891  2.6561  0.9182  1.5946
 4875TIP3   OH236039   4.128   3.989   5.548  0.2480 -0.6346 -0.5354
 4875TIP3    H136040   4.163   4.021   5.631  1.0937  0.2910 -1.2366
 4875TIP3    H236041   4.036   4.016   5.548  0.6466  0.7657 -0.5895
 4876TIP3   OH236042   4.627   2.441  12.938 -0.3024 -0.1640  0.1544
 4876TIP3    H136043   4.540   2.443  12.979  0.0095  0.8614  0.7857
 4876TIP3    H236044   4.633   2.522  12.889 -0.2280 -0.8725 -1.0248
 4877TIP3   OH236045   5.805   2.434  15.878  0.2927  0.2181  0.5957
 4877TIP3    H136046   5.776   2.505  15.935  1.1964 -0.8891  2.4875
 4877TIP3    H236047   5.893   2.413  15.908 -0.0002 -1.7680  0.1734
 4878TIP3   OH236048   5.990   4.538   3.610  0.5041 -0.3192 -0.5633
 4878TIP3    H136049   5.987   4.630   3.638  1.6411 -0.3253 -0.3812
 4878TIP3    H236050   6.067   4.533   3.553  1.2914 -1.4712  0.5865
 4879TIP3   OH236051   3.746   6.214   4.770 -0.0466 -0.0772 -0.2141
 4879TIP3    H136052   3.779   6.139   4.720 -1.2866 -1.0124  0.3604
 4879TIP3    H236053   3.705   6.270   4.705  1.8136  0.6503 -0.8064
 4880TIP3   OH236054   0.015   3.454   6.152  0.6700 -0.1077 -0.0710
 4880TIP3    H136055   0.009   3.542   6.191 -2.5185 -0.3231  0.0144
 4880TIP3    H236056  -0.003   3.395   6.224 -0.7112 -0.6945 -0.8947
 4881TIP3   OH236057   4.441   6.219  13.771 -0.1717 -0.7980  0.1390
 4881TIP3    H136058   4.404   6.162  13.705  1.5520 -2.7771  0.8242
 4881TIP3    H236059   4.385   6.206  13.848 -1.9922  1.2761 -0.7779
 4882TIP3   OH236060   5.639   5.438   2.492  0.1856 -0.2455  0.2794
 4882TIP3    H136061   5.692   5.380   2.547  0.5053 -0.2448 -0.0225
 4882TIP3    H236062   5.553   5.397   2.489 -0.2620  0.4956  1.9598
 4883TIP3   OH236063   1.415   5.423  11.439 -0.1237 -0.4032  0.0599
 4883TIP3    H136064   1.395   5.351  11.379 -1.0689 -0.3580  0.3095
 4883TIP3    H236065   1.477   5.478  11.390  0.7982 -1.5031 -0.0346
 4884TIP3   OH236066   3.238   4.904   4.557  0.5089 -0.3686 -0.5944
 4884TIP3    H136067   3.172   4.839   4.532 -1.7983  0.6956  2.3785
 4884TIP3    H236068   3.249   4.892   4.651  3.1850  0.7508 -0.7373
 4885TIP3   OH236069   0.107   0.005  11.786 -0.0849  0.4735 -0.5784
 4885TIP3    H136070   0.183   0.064  11.792 -1.2961  2.0641 -0.4925
 4885TIP3    H236071   0.084  -0.013  11.877  0.3649 -0.2529 -0.6035
 4886TIP3   OH236072   4.828   3.180  14.164 -0.0200  0.3046  0.5134
 4886TIP3    H136073   4.744   3.142  14.137 -0.3837  1.5988 -0.2496
 4886TIP3    H236074   4.885   3.105  14.181 -0.6530 -0.5778 -1.1540
 4887TIP3   OH236075   5.646   5.021  11.559  0.8235  0.4551  0.4721
 4887TIP3    H136076   5.628   5.036  11.651 -0.6303  0.0178  0.2580
 4887TIP3    H236077   5.573   4.968  11.527  0.0167  2.6657 -1.5024
 4888TIP3   OH236078   0.931   2.879   1.988 -0.2580  0.1999  0.1274
 4888TIP3    H136079   0.925   2.785   1.971  2.1761 -0.1088  0.7616
 4888TIP3    H236080   0.843   2.904   2.016 -1.2505 -1.6190 -1.2961
 4889TIP3   OH236081   3.274   0.524   2.298 -0.0445  0.0332  0.2938
 4889TIP3    H136082   3.320   0.588   2.245 -0.2773 -0.9506 -1.1177
 4889TIP3    H236083   3.246   0.457   2.236  0.7981 -1.7906  1.8298
 4890TIP3   OH236084   5.548   2.180   4.683  0.0217  0.2809  0.6804
 4890TIP3    H136085   5.577   2.094   4.712  0.9107 -0.2418 -1.6191
 4890TIP3    H236086   5.479   2.205   4.744 -0.0578 -1.9511  1.5135
 4891TIP3   OH236087   5.122   4.844   4.043 -0.5448 -0.1831  0.1257
 4891TIP3    H136088   5.161   4.850   3.956 -1.9392 -1.4873 -0.6085
 4891TIP3    H236089   5.139   4.929   4.083  1.5563 -0.1461 -0.7945
 4892TIP3   OH236090   1.691   0.469   2.128  0.0268  0.2680  0.0518
 4892TIP3    H136091   1.630   0.516   2.072 -0.8153  0.3548  1.0246
 4892TIP3    H236092   1.777   0.502   2.103 -0.5628  2.5511  0.9358
 4893TIP3   OH236093   4.858   0.713   6.279  0.1596 -0.0323 -0.4493
 4893TIP3    H136094   4.866   0.658   6.356  0.9700  0.4684 -0.1728
 4893TIP3    H236095   4.764   0.713   6.259  0.0188 -0.6074  0.1979
 4894TIP3   OH236096   5.565   1.181   0.894 -0.5445 -0.4722  0.1439
 4894TIP3    H136097   5.581   1.226   0.977 -0.2288 -0.4409  0.0694
 4894TIP3    H236098   5.486   1.222   0.859  0.0217  0.3851 -0.1605
 4895TIP3   OH236099   6.740   4.088  14.498  0.1457  0.7874 -0.2663
 4895TIP3    H136100   6.831   4.116  14.486  0.2234  1.3543  1.5187
 4895TIP3    H236101   6.689   4.168  14.490 -0.0115  0.7876  0.6617
 4896TIP3   OH236102   1.337   6.267  14.813 -0.4680 -0.2743  0.4355
 4896TIP3    H136103   1.379   6.284  14.897  0.7221 -0.3816 -0.1334
 4896TIP3    H236104   1.407   6.274  14.748 -1.0154 -1.9734 -0.3777
 4897TIP3   OH236105   1.742   2.994   4.472  0.5685  0.5601  0.3377
 4897TIP3    H136106   1.675   3.048   4.513  1.1507  1.4267  0.1557
 4897TIP3    H236107   1.796   3.055   4.423 -0.1373 -0.4482 -1.7713
 4898TIP3   OH236108   4.571   4.767  16.917  0.1959 -0.4317  0.0911
 4898TIP3    H136109   4.635   4.747  16.849  0.5971 -2.1049  0.9167
 4898TIP3    H236110   4.595   4.853  16.949  1.6693 -0.7939 -0.0292
 4899TIP3   OH236111   1.188   0.976   0.407  0.9401  0.1551  0.0339
 4899TIP3    H136112   1.098   0.968   0.437  0.9120 -1.0362 -0.3211
 4899TIP3    H236113   1.226   1.046   0.461  0.0660  0.0394  0.8089
 4900TIP3   OH236114   0.993   3.472  13.053  0.4909  0.2279 -0.4049
 4900TIP3    H136115   0.920   3.410  13.063  1.1408 -0.6528 -1.1323
 4900TIP3    H236116   0.971   3.522  12.975 -0.4490  1.5075  0.6454
 4901TIP3   OH236117   6.622   0.651   3.843  0.2656  0.0852  0.1019
 4901TIP3    H136118   6.575   0.721   3.887  0.2506  0.3850 -0.3867
 4901TIP3    H236119   6.684   0.696   3.784  0.2692 -0.3039 -0.1981
 4902TIP3   OH236120   0.081   2.742  11.208 -0.1942  0.1552  0.5866
 4902TIP3    H136121   0.060   2.829  11.174  0.2677 -0.5915 -1.6851
 4902TIP3    H236122   0.130   2.700  11.138 -2.3621 -2.7821  0.7377
 4903TIP3   OH236123   5.440   6.002   3.703  0.0395 -0.5763 -0.2082
 4903TIP3    H136124   5.441   6.095   3.680  1.1125  0.1496  2.5629
 4903TIP3    H236125   5.347   5.978   3.699 -0.7225  1.5918  2.5101
 4904TIP3   OH236126   5.670   2.970  12.483  0.4190 -0.2126 -0.0936
 4904TIP3    H136127   5.623   2.888  12.499  1.3914 -0.2708  2.8170
 4904TIP3    H236128   5.614   3.037  12.523  1.2870  0.0899  0.6324
 4905TIP3   OH236129   1.821   0.759   4.336 -0.4001 -0.3357  0.1630
 4905TIP3    H136130   1.902   0.783   4.382  0.6805 -1.9871 -0.8112
 4905TIP3    H236131   1.793   0.839   4.293 -0.0618  0.6087  1.6544
 4906TIP3   OH236132   2.376   0.105   0.217  0.2380 -0.0987 -0.5135
 4906TIP3    H136133   2.397   0.197   0.200 -0.7534  0.4624  1.2411
 4906TIP3    H236134   2.313   0.082   0.148  0.0775  0.6924 -0.6424
 4907TIP3   OH236135   2.349   5.879   4.218  0.5166 -0.2766  0.7487
 4907TIP3    H136136   2.351   5.784   4.206  1.4529 -0.2061  0.3208
 4907TIP3    H236137   2.262   5.897   4.253  0.2745 -1.2738  0.6651
 4908TIP3   OH236138   1.645   4.615  15.153  0.0469  0.4223 -0.2048
 4908TIP3    H136139   1.621   4.585  15.240  0.4842  1.1118  0.1597
 4908TIP3    H236140   1.562   4.642  15.113 -0.1801 -0.0986 -0.0848
 4909TIP3   OH236141   2.910   3.175  14.207 -0.9073  0.6135  0.2792
 4909TIP3    H136142   2.846   3.212  14.146  0.2398 -2.5490 -2.9865
 4909TIP3    H236143   2.893   3.081  14.205  3.0040 -0.1538  0.2788
 4910TIP3   OH236144   0.493   3.811   4.336  0.5417 -0.0507 -0.4342
 4910TIP3    H136145   0.439   3.874   4.288 -0.6808 -1.3256 -0.7820
 4910TIP3    H236146   0.472   3.727   4.296 -1.0494 -1.2513  2.7760
 4911TIP3   OH236147   5.088   3.360   4.930  0.1339  0.0957 -0.3897
 4911TIP3    H136148   5.126   3.290   4.984  1.0994  1.1125  0.2666
 4911TIP3    H236149   5.026   3.404   4.988  0.9826  1.0289 -0.1828
 4912TIP3   OH236150   2.463   6.433  11.012  0.0102  0.1394  0.2825
 4912TIP3    H136151   2.377   6.411  11.050  1.1090 -1.0092  2.1961
 4912TIP3    H236152   2.493   6.508  11.064 -1.2233  2.6815 -2.5281
 4913TIP3   OH236153   2.930   6.015   1.381  0.2345 -0.1363  0.6706
 4913TIP3    H136154   2.959   5.943   1.437  0.0980 -0.7951 -0.0928
 4913TIP3    H236155   2.840   6.032   1.408  0.8982  1.0756  2.1951
 4914TIP3   OH236156   0.569   3.831  12.295 -0.8323 -0.2270 -0.2390
 4914TIP3    H136157   0.583   3.736  12.288 -1.1601 -0.2970  0.0381
 4914TIP3    H236158   0.643   3.862  12.346 -1.0951 -0.4391  0.2812
 4915TIP3   OH236159   5.595   1.764   4.014 -0.5468 -0.0835 -0.6340
 4915TIP3    H136160   5.533   1.691   4.011 -1.3614  0.5393  0.5718
 4915TIP3    H236161   5.557   1.830   3.955  0.4574 -0.8211 -2.1304
 4916TIP3   OH236162   6.244   4.657   6.129 -0.0599  0.3778  0.3873
 4916TIP3    H136163   6.264   4.567   6.152 -0.3376 -0.0332 -0.9448
 4916TIP3    H236164   6.155   4.671   6.160  1.2516  1.3563  3.8726
 4917TIP3   OH236165   6.740   1.650  15.000  0.1309  0.1665  0.0035
 4917TIP3    H136166   6.802   1.690  15.060  0.5253 -0.7770  0.2310
 4917TIP3    H236167   6.749   1.700  14.919  1.0816  0.1254  0.0793
 4918TIP3   OH236168   0.460   5.375   4.294  0.3010 -0.7637  0.2055
 4918TIP3    H136169   0.456   5.454   4.240 -2.1111 -1.2620 -0.4111
 4918TIP3    H236170   0.543   5.382   4.340  0.1191  2.1696  0.2127
 4919TIP3   OH236171   4.752   2.199   2.171  0.0192  0.2126  0.0789
 4919TIP3    H136172   4.816   2.269   2.181 -0.7621  1.1799 -1.5799
 4919TIP3    H236173   4.675   2.231   2.220  0.2848 -0.2935  0.8328
 4920TIP3   OH236174   5.140   3.908   4.527  0.0750  0.2245  0.1583
 4920TIP3    H136175   5.106   3.983   4.478  1.5898  0.7492 -0.1075
 4920TIP3    H236176   5.229   3.896   4.495 -0.6741 -2.7531 -1.0189
 4921TIP3   OH236177   1.336   4.463   0.816  0.6343 -0.0273  0.7150
 4921TIP3    H136178   1.292   4.387   0.778  0.4212  0.1835  0.5358
 4921TIP3    H236179   1.330   4.450   0.910 -2.3909  1.4272  0.7893
 4922TIP3   OH236180   0.216   0.630  13.758 -0.3363 -0.6508 -0.8040
 4922TIP3    H136181   0.154   0.639  13.830 -0.8153  0.6859 -1.3648
 4922TIP3    H236182   0.167   0.659  13.681  1.1763  1.0303 -1.1505
 4923TIP3   OH236183   0.795   4.731  17.195  0.4195  1.1165  0.5390
 4923TIP3    H136184   0.749   4.715  17.277  0.5146  1.9762  0.7652
 4923TIP3    H236185   0.736   4.788  17.145  0.4476  0.7585  0.0870
 4924TIP3   OH236186   3.848   5.783  12.756  0.5258  0.0793 -0.4425
 4924TIP3    H136187   3.768   5.746  12.718 -1.0090  2.0193  0.7934
 4924TIP3    H236188   3.877   5.717  12.819  1.1438 -1.5943 -2.4028
 4925TIP3   OH236189   3.990   5.797   4.369 -0.2161 -0.5656  0.5274
 4925TIP3    H136190   4.033   5.783   4.285 -0.3259 -1.6533  0.6489
 4925TIP3    H236191   4.060   5.825   4.428 -0.1030 -0.0173  0.1359
 4926TIP3   OH236192   5.767   5.726   0.158 -0.0657 -0.2758  0.1520
 4926TIP3    H136193   5.672   5.739   0.162 -0.0877 -0.3418 -0.1599
 4926TIP3    H236194   5.801   5.806   0.119  0.2687  0.8627  2.6786
 4927TIP3   OH236195   6.410   5.576   0.162  0.7764 -0.0836 -0.0557
 4927TIP3    H136196   6.382   5.494   0.124 -0.5414  0.3853 -0.1318
 4927TIP3    H236197   6.451   5.624   0.090  3.8921 -1.6798  0.5649
 4928TIP3   OH236198   5.897   4.496  14.692  0.3729 -0.2576 -0.2405
 4928TIP3    H136199   5.888   4.591  14.683  0.4866 -0.1738  0.5112
 4928TIP3    H236200   5.987   4.484  14.722  0.4335 -0.6193 -0.5694
 4929TIP3   OH236201   2.572   4.726   1.732 -0.1031  0.0432  0.0875
 4929TIP3    H136202   2.648   4.719   1.790  1.3513  1.2618 -1.5754
 4929TIP3    H236203   2.519   4.649   1.751  1.1950 -0.4522  1.8142
 4930TIP3   OH236204   4.157   1.612  14.784 -0.3564  0.2348  0.2115
 4930TIP3    H136205   4.195   1.639  14.868  0.8766  0.3972 -0.4032
 4930TIP3    H236206   4.214   1.542  14.753 -0.6723  0.3393 -0.6159
 4931TIP3   OH236207   6.263   2.143  11.064  0.5051  0.0391 -0.1532
 4931TIP3    H136208   6.240   2.164  10.973 -2.2004 -2.1453 -0.0311
 4931TIP3    H236209   6.230   2.217  11.114  1.0229  0.7312 -0.8105
 4932TIP3   OH236210   1.492   6.260   4.234 -0.2141  0.5092 -0.6600
 4932TIP3    H136211   1.439   6.234   4.160  0.6408 -0.2721 -1.0104
 4932TIP3    H236212   1.543   6.335   4.202 -4.2628  4.2084  0.9991
 4933TIP3   OH236213   0.626   3.818  11.284 -0.1485 -0.1304 -0.0889
 4933TIP3    H136214   0.671   3.901  11.297 -0.5118  0.0312  0.1496
 4933TIP3    H236215   0.597   3.792  11.372  0.8044 -0.9880 -0.0242
 4934TIP3   OH236216   2.440   3.740  11.484 -0.4517 -1.1911  0.0222
 4934TIP3    H136217   2.353   3.779  11.478 -1.1546 -2.6133  0.6155
 4934TIP3    H236218   2.484   3.790  11.553 -0.7129 -0.3195 -0.4332
 4935TIP3   OH236219   4.515   4.245   1.212 -0.0694  0.2848  0.4170
 4935TIP3    H136220   4.575   4.192   1.264  1.5732  1.3296 -0.3738
 4935TIP3    H236221   4.569   4.316   1.178 -1.0804 -0.4205 -2.8201
 4936TIP3   OH236222   0.017   5.965   6.192  0.0875  0.3453 -0.2086
 4936TIP3    H136223   0.095   6.019   6.182  0.3221  0.3220  1.4088
 4936TIP3    H236224  -0.032   6.006   6.264 -0.7898 -0.3521 -0.3903
 4937TIP3   OH236225   2.785   4.191   4.858  0.3213  0.0422  0.3160
 4937TIP3    H136226   2.749   4.103   4.843 -2.5131  0.8656  1.9115
 4937TIP3    H236227   2.870   4.190   4.813 -0.0293 -3.2214 -0.4144
 4938TIP3   OH236228   3.894   1.014   5.263  0.9129  0.0204 -0.6073
 4938TIP3    H136229   3.837   0.994   5.189 -0.5746 -1.0212  0.7695
 4938TIP3    H236230   3.870   1.103   5.288  0.5475 -0.0763 -0.6122
 4939TIP3   OH236231   0.066   0.042   0.042  0.3025  0.0967  0.1079
 4939TIP3    H136232   0.013   0.105  -0.008 -0.7249  0.2033  1.3120
 4939TIP3    H236233   0.113   0.096   0.105  1.8761  0.0006 -0.9588
 4940TIP3   OH236234   6.451   0.629   0.601  0.1493  0.0737 -0.3116
 4940TIP3    H136235   6.399   0.710   0.592 -0.2960 -0.3024 -1.1736
 4940TIP3    H236236   6.479   0.629   0.693  0.2682  1.2779 -0.3330
 4941TIP3   OH236237   4.769   0.725  12.034  0.7191  0.3316 -0.2427
 4941TIP3    H136238   4.717   0.805  12.045  0.3340  0.3676 -2.0527
 4941TIP3    H236239   4.730   0.663  12.095  0.6212  1.3454  0.7380
 4942TIP3   OH236240   4.677   3.012   3.518  0.1759  0.6868 -0.7429
 4942TIP3    H136241   4.732   2.956   3.572  0.0115  2.0170  0.8414
 4942TIP3    H236242   4.702   3.101   3.542 -0.7796  1.3021 -1.9676
 4943TIP3   OH236243   0.452   1.974   1.908  0.2663  0.1309  0.0705
 4943TIP3    H136244   0.547   1.979   1.897  0.2900 -0.1826  0.1374
 4943TIP3    H236245   0.416   2.003   1.824  0.4116  1.0663  0.3196
 4944TIP3   OH236246   5.813   3.449  15.852  0.3206  0.0360  0.1768
 4944TIP3    H136247   5.834   3.532  15.895  0.2342 -0.1206  0.5188
 4944TIP3    H236248   5.856   3.383  15.906  1.3763 -0.0555 -0.7453
 4945TIP3   OH236249   6.350   1.683   4.351  0.2221 -0.0323  0.2817
 4945TIP3    H136250   6.285   1.751   4.334 -0.2470  0.3859  3.4295
 4945TIP3    H236251   6.426   1.709   4.300 -0.8594  1.3592 -0.6758
 4946TIP3   OH236252   1.477   1.871   6.390  0.8124 -0.1173  0.0682
 4946TIP3    H136253   1.442   1.960   6.387 -0.0591 -0.4477  0.3870
 4946TIP3    H236254   1.539   1.872   6.463 -1.0908 -0.4559  1.7125
 4947TIP3   OH236255   5.361   5.060  10.787  0.2465  0.2656 -0.3635
 4947TIP3    H136256   5.321   4.997  10.846  0.9781  0.8153  0.7518
 4947TIP3    H236257   5.307   5.139  10.796  0.2469  0.2934 -0.5865
 4948TIP3   OH236258   2.508   2.655  12.516  0.1470 -0.7095 -0.4051
 4948TIP3    H136259   2.470   2.718  12.455  2.8032  0.1503 -1.2334
 4948TIP3    H236260   2.547   2.588  12.459 -1.1850 -2.2486  0.4433
 4949TIP3   OH236261   3.554   4.190   0.713 -0.3173 -0.7578  0.2863
 4949TIP3    H136262   3.616   4.201   0.785  0.0741  0.3749 -0.2221
 4949TIP3    H236263   3.528   4.098   0.718  0.5557 -0.9624  1.1874
 4950TIP3   OH236264   0.313   4.022   4.998 -0.4862  0.2005 -0.0943
 4950TIP3    H136265   0.396   4.061   4.971 -0.1691  0.2419  0.9145
 4950TIP3    H236266   0.261   4.097   5.028 -1.3381  0.3311 -1.7990
 4951TIP3   OH236267   2.212   2.960   3.136  0.8072 -0.5521 -0.2216
 4951TIP3    H136268   2.120   2.939   3.123  0.0430  1.0897  2.2266
 4951TIP3    H236269   2.234   3.018   3.064 -0.4779  0.1587 -0.0562
 4952TIP3   OH236270   6.473   6.191   3.368  0.4687 -0.1398 -0.2467
 4952TIP3    H136271   6.482   6.115   3.426 -0.4495  0.4449  0.6887
 4952TIP3    H236272   6.524   6.259   3.411  0.8192 -0.0604 -0.7882
 4953TIP3   OH236273   0.455   0.092  13.644  0.1506 -0.5474 -0.6774
 4953TIP3    H136274   0.477   0.157  13.578  1.2051  1.7106  1.7737
 4953TIP3    H236275   0.538   0.072  13.687 -0.5317 -1.8145  0.1151
 4954TIP3   OH236276   0.457   4.313   3.439  0.0252 -0.2536 -0.7715
 4954TIP3    H136277   0.507   4.394   3.446 -1.0997  0.4381 -0.6872
 4954TIP3    H236278   0.524   4.244   3.439  0.9831  0.6574 -0.7713
 4955TIP3   OH236279   2.452   5.839  10.670 -0.1079  0.2350 -0.3174
 4955TIP3    H136280   2.543   5.860  10.654  0.5538 -1.1002  1.4711
 4955TIP3    H236281   2.405   5.921  10.654  0.9663  0.2018 -4.2640
 4956TIP3   OH236282   2.895   5.866  10.953 -0.0418  0.2849 -0.0772
 4956TIP3    H136283   2.888   5.788  10.897  1.0358  0.3937 -0.3829
 4956TIP3    H236284   2.931   5.933  10.895 -1.5896  1.2032  0.0182
 4957TIP3   OH236285   1.953   4.881   3.548  0.2071 -0.7241 -0.3761
 4957TIP3    H136286   2.046   4.868   3.528  0.5511  1.6292 -0.4354
 4957TIP3    H236287   1.952   4.934   3.628 -1.0891 -0.5911 -0.4605
 4958TIP3   OH236288   3.463   4.126   5.971 -0.1256  0.2082  0.2944
 4958TIP3    H136289   3.489   4.172   6.050 -1.9573  0.5193  0.7220
 4958TIP3    H236290   3.443   4.195   5.908  0.6304 -0.0373 -0.2354
 4959TIP3   OH236291   6.165   6.189   2.221 -0.5775 -0.3534  0.0820
 4959TIP3    H136292   6.205   6.145   2.297 -1.5685 -1.3559  0.0406
 4959TIP3    H236293   6.083   6.140   2.206 -1.3320  1.0531 -0.4310
 4960TIP3   OH236294   0.161   1.088   5.949 -0.3765 -0.4992 -0.7252
 4960TIP3    H136295   0.111   1.008   5.933  0.3908 -1.1714  0.2141
 4960TIP3    H236296   0.138   1.114   6.038 -0.9791  0.6061 -1.1782
 4961TIP3   OH236297   1.904   3.917   3.875 -0.2681  0.0677 -0.0644
 4961TIP3    H136298   1.905   3.885   3.965 -0.6193 -0.4688 -0.2428
 4961TIP3    H236299   1.939   3.844   3.823 -0.9952  0.0021 -0.4721
 4962TIP3   OH236300   6.719   3.060  12.227 -0.1934  0.2202 -0.1423
 4962TIP3    H136301   6.712   3.021  12.314 -0.8986 -1.1761 -0.8048
 4962TIP3    H236302   6.653   3.129  12.226  0.1966  0.6115  0.6106
 4963TIP3   OH236303   6.018   4.029  16.837 -0.1795  0.7448 -0.1979
 4963TIP3    H136304   5.959   3.970  16.790 -0.4193  1.1363 -0.3880
 4963TIP3    H236305   5.972   4.048  16.919  0.3178 -0.0796  0.2810
 4964TIP3   OH236306   3.073   5.887  12.678 -0.0584 -0.2131  0.7697
 4964TIP3    H136307   3.126   5.853  12.751 -0.0841 -2.0936 -0.0764
 4964TIP3    H236308   2.991   5.838  12.683 -0.8626  1.0934  0.6842
 4965TIP3   OH236309   2.360   2.256   4.290 -1.1780 -0.2737 -0.1145
 4965TIP3    H136310   2.389   2.302   4.212  0.0777  0.0047  0.5017
 4965TIP3    H236311   2.267   2.239   4.275 -1.2189  0.8108 -1.1438
 4966TIP3   OH236312   6.712   1.891  15.295 -0.2950  0.2765 -0.2894
 4966TIP3    H136313   6.709   1.976  15.339 -0.0313 -0.5455  1.3550
 4966TIP3    H236314   6.631   1.888  15.244 -1.8318  0.2218  2.1049
 4967TIP3   OH236315   1.213   3.058   3.558  0.3852  0.8071  0.9142
 4967TIP3    H136316   1.275   3.116   3.514  1.1551 -1.4959 -1.1444
 4967TIP3    H236317   1.127   3.099   3.543  1.0906  2.4721  1.2821
 4968TIP3   OH236318   5.712   2.626  16.786  0.4674 -0.0196  0.3985
 4968TIP3    H136319   5.626   2.599  16.819  0.5098 -2.1899 -1.1691
 4968TIP3    H236320   5.712   2.599  16.694  2.2198  1.4473 -0.0620
 4969TIP3   OH236321   3.549   0.932   2.887  0.1616 -0.1745  0.0756
 4969TIP3    H136322   3.639   0.960   2.906 -0.2082 -0.0475  1.7085
 4969TIP3    H236323   3.546   0.925   2.792  2.0610 -0.6926  0.0278
 4970TIP3   OH236324   4.243   4.684   1.759  0.3116  0.1285  0.1215
 4970TIP3    H136325   4.198   4.726   1.686 -0.9567 -2.7547 -0.8136
 4970TIP3    H236326   4.204   4.724   1.837 -2.2980 -0.6827 -0.7065
 4971TIP3   OH236327   3.868   4.116   5.580 -0.7472 -0.8495  0.4485
 4971TIP3    H136328   3.834   4.064   5.653 -3.8099  0.2292 -0.1478
 4971TIP3    H236329   3.905   4.194   5.622  0.1337 -1.5733  1.0393
 4972TIP3   OH236330   2.055   6.081   4.621 -0.3374  0.2675  0.4182
 4972TIP3    H136331   2.026   6.006   4.672 -0.1602  0.0803  0.2456
 4972TIP3    H236332   2.011   6.156   4.661 -0.1162  0.1349  0.9157
 4973TIP3   OH236333   1.235   3.277   2.449 -0.4001  0.6551 -0.7444
 4973TIP3    H136334   1.174   3.243   2.514 -0.9381  1.8682 -0.6035
 4973TIP3    H236335   1.186   3.274   2.366  0.1750 -0.5937 -1.0524
 4974TIP3   OH236336   3.419   6.433   0.849 -0.2974  0.0435 -0.0208
 4974TIP3    H136337   3.345   6.372   0.840  0.8831 -1.7781  2.0501
 4974TIP3    H236338   3.456   6.439   0.761  0.0104 -2.8717 -0.1465
 4975TIP3   OH236339   6.626   3.930  15.101  0.0417  0.3536  0.5646
 4975TIP3    H136340   6.554   3.868  15.085  0.8233 -0.1388 -1.1419
 4975TIP3    H236341   6.662   3.904  15.185 -1.7471  0.5758  1.4203
 4976TIP3   OH236342   1.948   1.714  15.853  0.3559 -0.3245  0.2689
 4976TIP3    H136343   1.923   1.686  15.765  0.5055 -1.5922  0.6177
 4976TIP3    H236344   1.915   1.804  15.860  0.1455 -0.2927 -0.9947
 4977TIP3   OH236345   5.818   6.363   5.368 -0.0460 -0.1430 -0.2196
 4977TIP3    H136346   5.911   6.341   5.378  0.0309  0.3887  0.2598
 4977TIP3    H236347   5.795   6.331   5.281  0.4473 -0.7667 -0.1220
 4978TIP3   OH236348   6.646   0.731   0.388 -0.0631  0.2753  0.1791
 4978TIP3    H136349   6.566   0.749   0.339  0.2602  0.6043 -0.2250
 4978TIP3    H236350   6.616   0.721   0.478 -0.8415 -1.6608 -0.2620
 4979TIP3   OH236351   3.943   6.404  11.936  0.0798 -0.2752  0.0106
 4979TIP3    H136352   4.021   6.351  11.948 -1.7304 -3.2322 -0.7214
 4979TIP3    H236353   3.893   6.391  12.017 -0.8170 -0.4950 -0.5725
 4980TIP3   OH236354   1.260   0.903  14.420  0.2603 -0.0630  0.2770
 4980TIP3    H136355   1.201   0.942  14.485 -0.8581 -2.3806  0.7283
 4980TIP3    H236356   1.344   0.895  14.467 -0.5876 -1.8914  1.5464
 4981TIP3   OH236357   4.905   3.022   2.765  0.0474 -0.1328  0.2934
 4981TIP3    H136358   4.952   3.026   2.682  0.1780  0.8244  0.4115
 4981TIP3    H236359   4.955   2.959   2.818  2.4856  2.4723  1.2028
 4982TIP3   OH236360   5.433   4.978   3.100 -0.6368  0.0233  0.6731
 4982TIP3    H136361   5.418   4.907   3.163 -1.7609 -0.9170 -0.6171
 4982TIP3    H236362   5.493   4.940   3.036 -1.0316  0.3082  0.1302
 4983TIP3   OH236363   4.800   5.850   0.650  0.0109 -0.0302 -0.2071
 4983TIP3    H136364   4.864   5.822   0.715 -1.0541 -1.5208  0.2206
 4983TIP3    H236365   4.845   5.917   0.599  1.9259 -1.1099  0.0422
 4984TIP3   OH236366   6.063   2.981   0.890  0.0162  0.3319  0.3550
 4984TIP3    H136367   6.157   3.003   0.890  0.3823 -1.1237  1.9237
 4984TIP3    H236368   6.062   2.886   0.879 -1.2385  0.2063  1.5415
 4985TIP3   OH236369   5.736   0.195  10.957  1.0063 -0.2402  0.4260
 4985TIP3    H136370   5.824   0.167  10.931  1.8757  1.1256  1.8070
 4985TIP3    H236371   5.724   0.279  10.913  1.5696  0.9660  2.5176
 4986TIP3   OH236372   2.307   1.352  13.143 -0.0155 -0.5666  0.6753
 4986TIP3    H136373   2.310   1.414  13.216  0.1989 -0.2534  0.4052
 4986TIP3    H236374   2.394   1.358  13.104 -1.0571  1.5467 -1.4580
 4987TIP3   OH236375   2.754   5.020  13.919  0.3005 -0.8038  0.7688
 4987TIP3    H136376   2.678   5.022  13.978 -1.4242  3.0596 -1.4025
 4987TIP3    H236377   2.817   5.079  13.961  0.2179 -0.3215  0.2140
 4988TIP3   OH236378   6.556   3.207   0.750 -0.5232 -0.0235  0.1837
 4988TIP3    H136379   6.574   3.204   0.656 -0.6794 -0.3648  0.1621
 4988TIP3    H236380   6.499   3.283   0.761 -2.5356 -1.4174 -0.3634
 4989TIP3   OH236381   4.140   5.079  13.925 -0.4058  0.2894  0.2496
 4989TIP3    H136382   4.128   5.170  13.898 -1.1105 -0.1694 -1.0333
 4989TIP3    H236383   4.062   5.058  13.976  0.4037  0.8137  1.7340
 4990TIP3   OH236384   0.274   3.909  13.905  0.5636  0.3787 -0.4855
 4990TIP3    H136385   0.325   3.906  13.824  0.2481  0.3988 -0.6890
 4990TIP3    H236386   0.338   3.927  13.974  0.7720  0.7946 -0.7870
 4991TIP3   OH236387   4.150   0.573   2.995  0.0216  0.7812  0.1146
 4991TIP3    H136388   4.201   0.605   2.921 -0.0609 -0.2690 -0.4081
 4991TIP3    H236389   4.116   0.488   2.966 -1.2534  1.0383  0.7891
 4992TIP3   OH236390   6.748   3.579   1.366 -0.6301 -0.6734 -0.3002
 4992TIP3    H136391   6.695   3.603   1.442 -0.8644  1.8737 -1.2447
 4992TIP3    H236392   6.701   3.504   1.328 -2.6872  0.5121 -0.1855
 4993TIP3   OH236393   4.351   3.427   0.901 -0.0841 -0.4091  0.2643
 4993TIP3    H136394   4.257   3.408   0.901 -0.0333 -0.6634  0.8591
 4993TIP3    H236395   4.364   3.483   0.978 -0.2810  2.3550 -1.6237
 4994TIP3   OH236396   3.484   1.925   4.856 -0.5264  0.7499  0.0375
 4994TIP3    H136397   3.422   1.974   4.802 -1.0360  0.1593  0.0822
 4994TIP3    H236398   3.523   1.861   4.796  0.7804  1.7600 -0.2330
 4995TIP3   OH236399   4.830   4.048  14.527  0.1959 -0.6174 -0.4566
 4995TIP3    H136400   4.919   4.030  14.496  0.5978  1.0840 -0.3313
 4995TIP3    H236401   4.837   4.131  14.575 -1.0868 -1.4401  1.2366
 4996TIP3   OH236402   1.955   4.314   3.451 -0.0627  0.4431 -0.2076
 4996TIP3    H136403   1.929   4.361   3.371 -1.4605 -0.0975 -0.0903
 4996TIP3    H236404   1.924   4.370   3.522 -0.7876 -0.1270 -0.0663
 4997TIP3   OH236405   5.549   6.101  16.556 -0.4693  0.5617  0.0951
 4997TIP3    H136406   5.510   6.157  16.489  0.2941  0.8357 -0.1159
 4997TIP3    H236407   5.473   6.061  16.600 -0.9442 -0.5923 -1.7261
 4998TIP3   OH236408   3.181   2.194  11.988 -0.2388 -0.8040  0.2884
 4998TIP3    H136409   3.260   2.240  11.960 -0.1014 -1.9598 -1.3031
 4998TIP3    H236410   3.210   2.141  12.063  0.0024  0.3444  1.0113
 4999TIP3   OH236411   1.957   0.950   2.227 -0.8828  0.0756  0.1122
 4999TIP3    H136412   1.980   0.893   2.300 -1.4523  2.2301  2.0303
 4999TIP3    H236413   1.884   0.905   2.185 -1.8386 -0.2704  2.0668
 5000TIP3   OH236414   0.962   0.971   1.797  0.6242 -0.1430 -0.5925
 5000TIP3    H136415   0.875   1.011   1.788  0.4040 -0.4136  0.2526
 5000TIP3    H236416   0.988   0.950   1.708 -0.8745 -1.5238 -0.7307
 5001TIP3   OH236417   1.087   5.832   3.635 -0.8645 -0.3237  0.1665
 5001TIP3    H136418   1.087   5.914   3.586  0.3236 -1.2117 -1.3365
 5001TIP3    H236419   1.164   5.839   3.692 -2.0561  0.5620  1.7298
 5002TIP3   OH236420   4.364   6.041  15.142  0.0558 -0.1911  0.8438
 5002TIP3    H136421   4.384   6.130  15.168 -1.5734  0.4321  0.0791
 5002TIP3    H236422   4.304   6.009  15.210 -0.7812 -0.0644  0.1725
 5003TIP3   OH236423   0.323   5.237   5.860 -0.6369 -0.1872 -0.0271
 5003TIP3    H136424   0.366   5.318   5.834 -0.3556 -0.4452 -0.3650
 5003TIP3    H236425   0.381   5.167   5.829 -1.2481 -0.5382 -0.3987
 5004TIP3   OH236426   6.405   5.998   5.186  0.3246 -0.2603 -0.3155
 5004TIP3    H136427   6.317   6.004   5.149  1.2816 -1.8476 -3.0098
 5004TIP3    H236428   6.450   6.077   5.158  0.4983 -0.6199 -1.0650
 5005TIP3   OH236429   2.875   0.735  16.487  0.0232 -0.1231  0.0263
 5005TIP3    H136430   2.857   0.816  16.534  0.6360  0.1096 -0.1311
 5005TIP3    H236431   2.953   0.754  16.435  0.1170 -0.7816 -0.0866
 5006TIP3   OH236432   0.676   4.684  12.069  0.0840  0.8337  0.4269
 5006TIP3    H136433   0.719   4.727  12.143 -0.2439  0.4195  0.8665
 5006TIP3    H236434   0.684   4.591  12.088 -0.7111  0.7453  0.3464
 5007TIP3   OH236435   6.117   5.940   2.985 -0.0780  0.1852  0.1166
 5007TIP3    H136436   6.080   5.895   2.909  0.5929 -0.7452  0.3343
 5007TIP3    H236437   6.078   5.896   3.061  1.1409 -0.5432  0.3421
 5008TIP3   OH236438   2.066   3.591   4.869 -0.3984 -0.5895  0.6999
 5008TIP3    H136439   2.002   3.576   4.799  1.5370  2.2311 -1.7926
 5008TIP3    H236440   2.146   3.548   4.837  0.1922 -0.2667  1.7358
 5009TIP3   OH236441   3.539   3.843   1.697 -0.3213  0.1157 -0.2617
 5009TIP3    H136442   3.586   3.860   1.615 -1.8527  1.5991 -0.8659
 5009TIP3    H236443   3.590   3.774   1.740  1.4497  0.4964 -1.6700
 5010TIP3   OH236444   6.674   3.591   3.547 -0.1096  0.2396 -0.1951
 5010TIP3    H136445   6.615   3.664   3.531  1.4351  1.3010 -1.1562
 5010TIP3    H236446   6.662   3.533   3.472 -0.1315  0.3212 -0.2541
 5011TIP3   OH236447   4.846   0.602   4.880 -0.3053  0.3699 -0.2976
 5011TIP3    H136448   4.857   0.542   4.806 -0.7312  0.0234 -0.0787
 5011TIP3    H236449   4.830   0.545   4.955  1.5394  0.6369  0.3419
 5012TIP3   OH236450   5.931   3.245  14.568  0.2876  0.5098 -0.3334
 5012TIP3    H136451   6.019   3.274  14.542  0.8650 -0.8678  0.0096
 5012TIP3    H236452   5.947   3.173  14.630 -1.0862 -0.0044 -0.5533
 5013TIP3   OH236453   6.483   0.334  13.015 -0.4495 -0.2445  0.2127
 5013TIP3    H136454   6.464   0.428  13.006  2.2906  0.2214 -1.1184
 5013TIP3    H236455   6.559   0.331  13.073 -0.5220 -1.6503  0.2369
 5014TIP3   OH236456   4.021   2.979  17.188  0.5856 -0.9698  0.5767
 5014TIP3    H136457   4.032   3.050  17.252 -0.6216 -0.6216  0.4059
 5014TIP3    H236458   4.087   2.914  17.213  1.7594  0.2357  0.6965
 5015TIP3   OH236459   5.258   5.029   3.820  0.0337 -0.2787  0.2702
 5015TIP3    H136460   5.181   5.082   3.838  0.2766  0.3087 -0.4148
 5015TIP3    H236461   5.238   4.985   3.737  0.6926  0.3644 -0.2333
 5016TIP3   OH236462   2.181   4.072  14.851 -0.2812 -0.4981  0.4396
 5016TIP3    H136463   2.128   4.139  14.807 -0.4556  0.0587  1.4871
 5016TIP3    H236464   2.155   4.078  14.943  2.1574  0.3307  1.1092
 5017TIP3   OH236465   5.804   0.505  13.088  0.2826 -0.1827  0.0490
 5017TIP3    H136466   5.894   0.473  13.076  0.8196  1.3030  0.1034
 5017TIP3    H236467   5.787   0.493  13.182  0.4178 -0.4541  0.0402
 5018TIP3   OH236468   1.965   3.729  12.504 -0.1836 -0.2172  0.3007
 5018TIP3    H136469   2.007   3.812  12.483  1.5906 -0.8865  1.1012
 5018TIP3    H236470   1.925   3.701  12.421  2.3811 -0.3540 -0.9621
 5019TIP3   OH236471   6.326   2.233  14.341  0.8767 -0.0795 -0.2934
 5019TIP3    H136472   6.248   2.238  14.396 -0.1947  0.9033 -1.8532
 5019TIP3    H236473   6.382   2.304  14.372  0.3907  0.3028 -0.2825
 5020TIP3   OH236474   4.203   5.007   0.989 -0.2528  0.1119 -0.1754
 5020TIP3    H136475   4.283   4.956   0.996  0.3538  1.0505 -0.1271
 5020TIP3    H236476   4.225   5.091   1.031 -1.6551 -0.0923  1.0111
 5021TIP3   OH236477   5.702   4.164  16.105  0.2379 -0.3702 -0.3478
 5021TIP3    H136478   5.622   4.115  16.087  0.7654 -1.2220 -0.4078
 5021TIP3    H236479   5.733   4.191  16.018  0.3681 -0.6267 -0.3873
 5022TIP3   OH236480   6.102   5.462  12.113  0.3903 -0.2698 -0.3482
 5022TIP3    H136481   6.123   5.474  12.020 -0.1452 -0.2644 -0.4695
 5022TIP3    H236482   6.185   5.476  12.158  0.4977  0.5092 -0.7700
 5023TIP3   OH236483   2.722   1.883   6.170  1.3674 -0.0991 -0.1312
 5023TIP3    H136484   2.704   1.891   6.264 -0.1810  0.4321 -0.4538
 5023TIP3    H236485   2.648   1.834   6.135  0.8668  1.4852 -1.3861
 5024TIP3   OH236486   5.021   3.950   5.187 -0.9804  0.2582  0.1507
 5024TIP3    H136487   5.104   3.963   5.141 -0.5432 -0.4537  0.7335
 5024TIP3    H236488   4.976   4.034   5.179  0.7235  1.3642  1.6599
 5025TIP3   OH236489   1.974   0.183   2.502 -0.7411  0.1199  0.0880
 5025TIP3    H136490   2.051   0.187   2.559 -1.3120  0.0251  0.8804
 5025TIP3    H236491   1.995   0.115   2.437  1.2152  2.4336 -1.7770
 5026TIP3   OH236492   1.637   2.537  13.547  0.2448  0.7801  0.7937
 5026TIP3    H136493   1.576   2.599  13.506  0.5609  0.9246  0.5381
 5026TIP3    H236494   1.683   2.590  13.612  0.6841  0.8742  0.4101
 5027TIP3   OH236495   4.070   0.110   3.190 -0.1560 -0.2611  0.3821
 5027TIP3    H136496   4.118   0.191   3.172 -1.2247  0.0380 -1.2759
 5027TIP3    H236497   4.043   0.079   3.103 -2.7768 -0.5351  1.2572
 5028TIP3   OH236498   5.221   3.545   5.663 -0.4906 -0.6591 -0.0327
 5028TIP3    H136499   5.289   3.612   5.660 -0.4288 -0.7186  0.0854
 5028TIP3    H236500   5.157   3.575   5.597 -0.9351  0.0259  0.6985
 5029TIP3   OH236501   5.790   6.677   5.630  0.0682 -0.0297 -0.5439
 5029TIP3    H136502   5.801   6.696   5.537 -1.7991  0.0452 -0.7603
 5029TIP3    H236503   5.697   6.693   5.647  0.1928 -0.9962  1.1073
 5030TIP3   OH236504   3.712   1.616  12.733  0.2866 -0.0104 -0.2156
 5030TIP3    H136505   3.718   1.622  12.829 -0.3361 -2.2834  0.0030
 5030TIP3    H236506   3.712   1.707  12.703 -1.6212  0.8180  2.0999
 5031TIP3   OH236507   1.893   1.533  11.288 -0.6204 -0.5867 -0.3319
 5031TIP3    H136508   1.987   1.552  11.287 -0.7635  0.3071  1.1523
 5031TIP3    H236509   1.883   1.459  11.228  1.2152 -1.4402  0.3592
 5032TIP3   OH236510   5.797   5.552  11.084  0.2127  0.2428 -0.0809
 5032TIP3    H136511   5.757   5.555  11.171 -1.3229  0.6022 -0.7843
 5032TIP3    H236512   5.772   5.635  11.043 -1.3768 -1.0547 -1.8494
 5033TIP3   OH236513   0.327   6.603   5.632  0.0735 -0.2133 -0.0728
 5033TIP3    H136514   0.341   6.697   5.635 -0.0686 -0.1875 -0.1777
 5033TIP3    H236515   0.396   6.569   5.575 -0.3898 -0.0678 -0.7257
 5034TIP3   OH236516   2.920   4.279  11.803  0.2142  0.4461  0.4983
 5034TIP3    H136517   3.008   4.289  11.766  0.0479 -2.9812 -0.9351
 5034TIP3    H236518   2.932   4.225  11.881 -0.5772  0.1917  0.4513
 5035TIP3   OH236519   4.421   6.584  13.362 -0.3603  0.1778  0.5506
 5035TIP3    H136520   4.500   6.583  13.416 -0.7236 -0.2291  1.0847
 5035TIP3    H236521   4.449   6.548  13.278  0.0194  0.0317  0.7381
 5036TIP3   OH236522   5.962   2.474  16.775 -0.4552  0.1315 -0.0580
 5036TIP3    H136523   5.879   2.473  16.823  1.4465 -0.7204  3.4271
 5036TIP3    H236524   5.997   2.562  16.792  1.1308 -0.8320  1.8422
 5037TIP3   OH236525   0.885   0.098  13.733 -0.1492 -0.0678 -0.1005
 5037TIP3    H136526   0.976   0.086  13.707 -0.1866  0.7376 -0.6075
 5037TIP3    H236527   0.873   0.037  13.806  0.9443  0.2105  0.3222
 5038TIP3   OH236528   0.756   0.871   6.503 -0.4707 -0.0249  0.0088
 5038TIP3    H136529   0.726   0.789   6.542  0.4269  0.7748  2.4372
 5038TIP3    H236530   0.741   0.937   6.571  1.5351  1.3408 -0.8363
 5039TIP3   OH236531   0.396   4.384   4.804  0.0536 -0.3244  0.2270
 5039TIP3    H136532   0.309   4.351   4.781 -0.2756 -0.1450  1.1953
 5039TIP3    H236533   0.391   4.478   4.789  1.1113 -0.6942 -2.9111
 5040TIP3   OH236534   4.545   5.334  16.366 -0.0756 -0.2850  0.0742
 5040TIP3    H136535   4.581   5.410  16.412 -1.8712 -0.4120  1.7287
 5040TIP3    H236536   4.548   5.263  16.430 -1.2479 -0.8348 -0.4772
 5041TIP3   OH236537   6.725   6.204   0.519 -0.7115  0.8583  0.1233
 5041TIP3    H136538   6.678   6.199   0.435  0.4530  0.7237 -0.5292
 5041TIP3    H236539   6.729   6.113   0.549  2.2122  0.3807 -1.5597
 5042TIP3   OH236540   3.575   1.911  15.079 -0.9073 -0.0926  0.2758
 5042TIP3    H136541   3.555   1.822  15.050  0.3868 -0.0400 -0.7792
 5042TIP3    H236542   3.656   1.903  15.129 -0.1106  0.6774 -0.8773
 5043TIP3   OH236543   5.897   3.283  11.800 -0.3773  0.4264 -0.0357
 5043TIP3    H136544   5.940   3.238  11.871 -0.0872 -2.8114 -2.1622
 5043TIP3    H236545   5.809   3.245  11.796 -0.7004  1.2088 -0.8312
 5044TIP3   OH236546   1.569   1.434  14.859  0.6744  0.2920 -0.0645
 5044TIP3    H136547   1.655   1.473  14.844  0.6411  0.7670  0.9301
 5044TIP3    H236548   1.506   1.498  14.826  0.6516  0.6554  0.6799
 5045TIP3   OH236549   1.550   5.781   0.092  0.0094  0.1355 -0.0742
 5045TIP3    H136550   1.461   5.749   0.077 -0.1431  0.9682 -1.0771
 5045TIP3    H236551   1.545   5.874   0.070  1.5576 -0.1981 -1.9887
 5046TIP3   OH236552   2.383   6.203   0.994  0.4620  0.0802 -1.3507
 5046TIP3    H136553   2.418   6.116   0.980  1.2499  0.3684 -1.1992
 5046TIP3    H236554   2.288   6.192   0.993  0.5639 -0.7685 -1.3525
 5047TIP3   OH236555   2.477   4.470   0.471 -0.1761  0.6168 -0.0392
 5047TIP3    H136556   2.405   4.411   0.493  1.0071 -0.6879  0.3943
 5047TIP3    H236557   2.522   4.427   0.398  1.0710  0.6376  0.6931
 5048TIP3   OH236558   0.364   0.077   5.564  0.1392  0.7948 -0.3236
 5048TIP3    H136559   0.292   0.099   5.504  1.3821  0.8678 -1.8153
 5048TIP3    H236560   0.418   0.156   5.566  0.7023  0.3970  0.0329
 5049TIP3   OH236561   0.372   2.133  14.223 -0.2238  0.2830 -0.1183
 5049TIP3    H136562   0.310   2.124  14.295 -0.6944 -2.5452 -0.7898
 5049TIP3    H236563   0.451   2.089  14.255  0.0198  0.2292 -0.7947
 5050TIP3   OH236564   5.584   4.675   2.633 -0.0377  0.2939 -0.2197
 5050TIP3    H136565   5.595   4.622   2.554 -1.6806  0.3207 -0.4681
 5050TIP3    H236566   5.537   4.619   2.694 -1.8475  1.4590 -0.5110
 5051TIP3   OH236567   2.967   5.118  12.272  0.0593  0.0523 -0.5243
 5051TIP3    H136568   3.049   5.128  12.224  0.4890 -2.7104 -0.4210
 5051TIP3    H236569   2.901   5.098  12.205 -0.3783  1.2797 -0.4900
 5052TIP3   OH236570   5.330   2.298  14.540  0.4736 -0.4074  0.6009
 5052TIP3    H136571   5.318   2.279  14.633 -0.4341 -0.9180  0.3886
 5052TIP3    H236572   5.379   2.223  14.507 -1.4310 -1.4985  0.1578
 5053TIP3   OH236573   5.073   1.813   2.891 -0.6873 -0.4904  0.2070
 5053TIP3    H136574   5.022   1.737   2.918 -1.1713  0.4336  1.9753
 5053TIP3    H236575   5.105   1.851   2.973  0.5508  0.5158 -0.7259
 5054TIP3   OH236576   2.236   3.055  12.633 -0.2119  0.6070  0.2132
 5054TIP3    H136577   2.311   3.075  12.577  0.7065 -1.6470  0.5784
 5054TIP3    H236578   2.267   2.984  12.689 -2.2873  0.3788  1.1038
 5055TIP3   OH236579   3.045   0.267   2.967 -0.5069  0.0288 -0.1987
 5055TIP3    H136580   3.029   0.340   2.907 -2.2677  0.1370  0.3781
 5055TIP3    H236581   2.970   0.269   3.027  0.9377 -0.4516  1.6354
 5056TIP3   OH236582   5.750   6.295   4.636  0.1089 -0.2783 -0.0736
 5056TIP3    H136583   5.669   6.340   4.660 -0.0040  0.2103 -1.3696
 5056TIP3    H236584   5.760   6.226   4.702 -1.2481 -0.2047  0.2066
 5057TIP3   OH236585   2.874   0.592   4.881 -0.5597 -0.2885 -0.2528
 5057TIP3    H136586   2.949   0.634   4.839 -0.3325  0.1800  0.6310
 5057TIP3    H236587   2.833   0.542   4.810  0.2474 -0.0879 -0.8711
 5058TIP3   OH236588   4.911   0.667  10.059 -0.0684 -0.4196 -0.1389
 5058TIP3    H136589   4.935   0.590  10.008 -0.9393 -0.9961  0.3221
 5058TIP3    H236590   4.988   0.683  10.114  1.0010  0.3814 -1.7909
 5059TIP3   OH236591   0.532   4.530  10.992  0.0435  0.5418  0.3333
 5059TIP3    H136592   0.624   4.508  10.973 -0.4008 -1.2451  0.1557
 5059TIP3    H236593   0.523   4.516  11.086 -0.3170 -0.3701  0.1714
 5060TIP3   OH236594   1.766   6.002  17.063  0.2470  0.3636  0.0369
 5060TIP3    H136595   1.717   6.083  17.080 -0.5075 -0.1188  0.1479
 5060TIP3    H236596   1.701   5.932  17.071  0.8587 -0.2408 -0.2578
 5061TIP3   OH236597   0.223   3.650  13.182 -0.1575 -0.4107  0.0377
 5061TIP3    H136598   0.201   3.572  13.131  2.9447 -0.7694 -0.9022
 5061TIP3    H236599   0.220   3.722  13.119 -0.8847 -0.0961  0.4220
 5062TIP3   OH236600   0.395   2.561   5.004  0.2500  0.2985 -0.4883
 5062TIP3    H136601   0.340   2.639   5.012  1.0708  0.8929 -0.5582
 5062TIP3    H236602   0.432   2.567   4.916  0.7660  0.1349 -0.2873
 5063TIP3   OH236603   6.508   0.940  12.699  0.0551  0.3173 -0.9307
 5063TIP3    H136604   6.519   1.035  12.690  1.4141  0.1608 -1.0748
 5063TIP3    H236605   6.597   0.905  12.689 -0.1814 -0.8389  0.8089
 5064TIP3   OH236606   1.120   5.148   1.229  0.4442 -0.4716 -0.3494
 5064TIP3    H136607   1.053   5.173   1.166 -2.1328 -1.2916  1.9842
 5064TIP3    H236608   1.128   5.224   1.287  0.4983 -0.9020  0.2142
 5065TIP3   OH236609   4.050   6.618   0.779  0.0081 -0.5349 -0.5653
 5065TIP3    H136610   4.122   6.668   0.819 -1.8470  1.1694  0.7259
 5065TIP3    H236611   4.075   6.527   0.793  2.4426  0.0174 -1.0926
 5066TIP3   OH236612   5.735   3.622  12.616  0.1411 -0.3248 -0.6367
 5066TIP3    H136613   5.812   3.620  12.559 -0.4760  0.9081 -1.5182
 5066TIP3    H236614   5.672   3.677  12.570 -0.8737 -0.4369  0.5978
 5067TIP3   OH236615   1.266   5.147   2.584  0.2727 -0.5301  0.4997
 5067TIP3    H136616   1.238   5.225   2.536 -0.1869 -0.3125  1.1115
 5067TIP3    H236617   1.350   5.172   2.623  0.9947 -0.9456 -0.7574
 5068TIP3   OH236618   6.594   1.791   3.843 -0.4440  0.4731 -0.7716
 5068TIP3    H136619   6.657   1.849   3.801  0.3664  0.5420  0.5069
 5068TIP3    H236620   6.609   1.705   3.803  0.4193  0.5066 -0.5315
 5069TIP3   OH236621   6.066   2.925   2.312 -0.3161 -0.0153  0.2349
 5069TIP3    H136622   6.060   2.853   2.374  0.1598 -0.1283  0.1520
 5069TIP3    H236623   6.088   2.883   2.229  1.3147  0.3459  0.4647
 5070TIP3   OH236624   5.857   5.544  15.001  0.2683 -0.4955  0.4896
 5070TIP3    H136625   5.829   5.622  15.049 -0.1883 -0.8348  0.7802
 5070TIP3    H236626   5.809   5.548  14.918 -0.2960 -0.8309  0.7957
 5071TIP3   OH236627   5.257   4.255  13.815  0.0573  0.2175 -0.2444
 5071TIP3    H136628   5.333   4.228  13.867  0.1408  0.5043 -0.2148
 5071TIP3    H236629   5.191   4.277  13.880 -0.5810 -1.5072 -0.2747
 5072TIP3   OH236630   5.731   1.201   4.870  0.5461 -0.0024 -0.4117
 5072TIP3    H136631   5.808   1.257   4.882  0.6367 -0.1486 -0.3061
 5072TIP3    H236632   5.688   1.202   4.956  0.0938  0.5762 -0.6402
 5073TIP3   OH236633   1.584   1.868  14.216 -0.3349  0.7626 -0.2071
 5073TIP3    H136634   1.545   1.954  14.205  0.8695  1.2538 -0.7417
 5073TIP3    H236635   1.652   1.881  14.282 -0.6051  0.0686  0.2148
 5074TIP3   OH236636   1.898   0.997  11.235 -0.1493  0.5304  0.0259
 5074TIP3    H136637   1.982   1.007  11.191 -0.1987 -0.1555 -0.2316
 5074TIP3    H236638   1.837   1.048  11.182  0.1385  1.1968  0.3286
 5075TIP3   OH236639   5.617   1.651   1.911 -0.2160  0.5941 -0.4746
 5075TIP3    H136640   5.702   1.621   1.879 -0.0663 -0.2657  0.6891
 5075TIP3    H236641   5.636   1.686   1.998 -1.1578 -0.1091  0.0080
 5076TIP3   OH236642   0.770   0.051   1.828  0.2220  0.2092 -0.1880
 5076TIP3    H136643   0.795   0.006   1.909  1.1546 -0.4627 -0.8315
 5076TIP3    H236644   0.707   0.117   1.855  0.2383 -0.2716  1.0355
 5077TIP3   OH236645   6.107   1.721   1.237  0.8351 -0.1889  0.1649
 5077TIP3    H136646   6.202   1.712   1.225  0.6839 -0.5819 -0.7944
 5077TIP3    H236647   6.083   1.794   1.181  0.6525  0.2860  0.8573
 5078TIP3   OH236648   0.437   3.274   2.665  0.3023  0.1400 -0.1361
 5078TIP3    H136649   0.438   3.217   2.589 -1.0151  0.9086 -0.7587
 5078TIP3    H236650   0.344   3.283   2.687  0.6213  0.5385  1.0933
 5079TIP3   OH236651   2.585   0.737   3.939  0.2419 -0.4232  0.4816
 5079TIP3    H136652   2.558   0.659   3.891  0.5571 -0.4051  0.2769
 5079TIP3    H236653   2.669   0.762   3.901  0.4186 -0.3156  0.9344
 5080TIP3   OH236654   6.344   2.282   4.659 -0.4751  0.1094  0.3044
 5080TIP3    H136655   6.259   2.242   4.642 -0.3756  0.9387 -2.4003
 5080TIP3    H236656   6.338   2.313   4.749 -3.3206  0.7555 -0.0512
 5081TIP3   OH236657   1.839   0.551   5.163 -0.2328  0.1364 -0.2213
 5081TIP3    H136658   1.881   0.524   5.244 -1.4813  1.1964  0.8137
 5081TIP3    H236659   1.911   0.565   5.102  0.8598  0.9764  1.2153
 5082TIP3   OH236660   5.998   0.838   5.813 -0.2677 -0.1183 -0.3843
 5082TIP3    H136661   6.033   0.775   5.876 -2.7356 -2.0667 -0.8629
 5082TIP3    H236662   5.993   0.789   5.731 -0.0130  1.4297 -1.3224
 5083TIP3   OH236663   2.541   6.355   1.326  0.0950 -0.2609 -0.6539
 5083TIP3    H136664   2.563   6.380   1.416 -2.2001  1.4385 -0.5055
 5083TIP3    H236665   2.623   6.322   1.289  1.2560 -0.2493  1.8126
 5084TIP3   OH236666   2.823   6.389   6.190  0.1768  0.3346 -0.3397
 5084TIP3    H136667   2.765   6.319   6.222  0.3954 -0.2065 -1.0955
 5084TIP3    H236668   2.825   6.453   6.260  0.4213 -0.6907  0.6010
 5085TIP3   OH236669   1.653   4.035   2.143 -0.0631 -0.4629 -0.0622
 5085TIP3    H136670   1.594   3.981   2.092 -0.2209 -0.7279  0.3955
 5085TIP3    H236671   1.658   3.991   2.228 -0.3953  0.3813  0.4010
 5086TIP3   OH236672   4.504   1.923  11.035  0.4177  0.3980  0.2135
 5086TIP3    H136673   4.502   1.837  10.994  0.1930  0.6450 -0.2900
 5086TIP3    H236674   4.595   1.935  11.061  0.4022 -0.0983  0.5201
 5087TIP3   OH236675   1.575   4.181   1.825  0.3458  0.6572  0.5659
 5087TIP3    H136676   1.542   4.118   1.761  0.8679 -1.0395  1.9099
 5087TIP3    H236677   1.525   4.163   1.904  1.9561  0.4631  1.5769
 5088TIP3   OH236678   6.120   0.436  11.033 -0.3056 -0.2131 -0.3731
 5088TIP3    H136679   6.135   0.386  11.114 -0.5880 -0.3711 -0.4195
 5088TIP3    H236680   6.190   0.501  11.033 -0.7349  0.2551  0.3588
 5089TIP3   OH236681   5.157   2.064   1.806  0.1076 -0.5469 -0.0283
 5089TIP3    H136682   5.210   2.138   1.836  1.1704 -1.6511  0.8840
 5089TIP3    H236683   5.124   2.024   1.886 -0.7274 -0.8699 -0.5295
 5090TIP3   OH236684   1.788   4.569  12.054  0.1405 -0.0772  0.4205
 5090TIP3    H136685   1.699   4.589  12.086  0.2357 -1.1001  1.3381
 5090TIP3    H236686   1.805   4.637  11.989 -1.6104 -0.3042 -0.3132
 5091TIP3   OH236687   5.284   6.673   5.759 -0.2747 -0.1205  0.2888
 5091TIP3    H136688   5.265   6.753   5.709 -0.6932  0.3040  1.1338
 5091TIP3    H236689   5.203   6.623   5.757 -0.0304 -0.5095 -0.1902
 5092TIP3   OH236690   4.701   3.060   1.618  0.0646 -0.6760  0.5914
 5092TIP3    H136691   4.675   3.144   1.579  4.1766  1.0859  1.4466
 5092TIP3    H236692   4.743   3.012   1.547  0.2704 -0.8205  0.8086
 5093TIP3   OH236693   3.947   2.403  12.506  0.0768 -0.3100  0.9132
 5093TIP3    H136694   4.018   2.453  12.466 -0.3933  0.6067  1.2179
 5093TIP3    H236695   3.882   2.469  12.531 -1.5605 -1.2729 -0.7269
 5094TIP3   OH236696   1.187   6.691   0.245 -0.1045 -0.6793 -0.5317
 5094TIP3    H136697   1.138   6.616   0.212 -1.9451  0.6850 -0.9474
 5094TIP3    H236698   1.164   6.695   0.338 -1.1855  0.2644 -0.8371
 5095TIP3   OH236699   2.148   2.832   2.069 -0.7074 -0.4122 -0.2803
 5095TIP3    H136700   2.149   2.748   2.023 -0.8680 -1.4545  1.5638
 5095TIP3    H236701   2.236   2.866   2.059 -0.4555 -1.1178 -0.4748
 5096TIP3   OH236702   1.151   4.314  16.104  0.0691 -0.0085 -0.0775
 5096TIP3    H136703   1.198   4.360  16.035  1.1183 -0.0876  0.5789
 5096TIP3    H236704   1.104   4.383  16.151 -2.4035 -0.1783 -2.1693
 5097TIP3   OH236705   3.792   2.277   2.669  0.3753  1.1017 -0.5989
 5097TIP3    H136706   3.878   2.305   2.699  1.9797 -3.5568 -0.3672
 5097TIP3    H236707   3.732   2.345   2.698  3.5569  2.9090  2.0167
 5098TIP3   OH236708   5.636   3.938   1.562 -0.5737  0.3515  0.3712
 5098TIP3    H136709   5.661   3.890   1.483  1.9417  0.0908  1.2900
 5098TIP3    H236710   5.626   4.028   1.534 -3.1976 -0.2868 -0.9293
 5099TIP3   OH236711   6.141   5.839  15.551 -0.1327  0.0681 -0.3947
 5099TIP3    H136712   6.088   5.780  15.604  1.1959 -1.9990 -1.3139
 5099TIP3    H236713   6.209   5.783  15.514  0.9435  2.1188 -1.5840
 5100TIP3   OH236714   6.550   1.137   3.513 -0.2555  0.2167  0.0728
 5100TIP3    H136715   6.514   1.049   3.527 -0.6011  0.3482  0.0018
 5100TIP3    H236716   6.500   1.193   3.571 -1.0233  0.6040 -0.9561
 5101TIP3   OH236717   3.831   5.221  14.984  0.0568 -0.3940  0.3835
 5101TIP3    H136718   3.863   5.281  15.051 -0.0303 -1.4537  1.3988
 5101TIP3    H236719   3.905   5.163  14.966 -0.1681 -0.6040  0.1349
 5102TIP3   OH236720   1.282   4.358   2.009 -0.7534 -0.3760 -0.2008
 5102TIP3    H136721   1.214   4.312   2.059 -0.8712 -0.4469 -0.4279
 5102TIP3    H236722   1.287   4.444   2.049 -0.5455 -0.5790  0.2189
 5103TIP3   OH236723   5.574   5.897  12.107  0.3905 -0.7212  0.5898
 5103TIP3    H136724   5.669   5.893  12.094  0.8145 -1.1342  3.4555
 5103TIP3    H236725   5.547   5.805  12.112 -0.0166 -0.5968  0.6575
 5104TIP3   OH236726   6.230   0.139   3.899 -0.9144 -0.3375 -0.4304
 5104TIP3    H136727   6.158   0.096   3.944  0.4573 -1.6850  0.5270
 5104TIP3    H236728   6.221   0.114   3.807 -1.7006 -0.4399 -0.3222
 5105TIP3   OH236729   5.947   1.980  13.003  0.0123 -0.2102  0.2094
 5105TIP3    H136730   5.881   2.028  12.953 -0.0101 -0.7320 -0.2686
 5105TIP3    H236731   6.031   2.018  12.974 -0.1372  1.2849  1.7133
 5106TIP3   OH236732   2.404   6.579   6.680 -0.5573  0.0963 -0.2895
 5106TIP3    H136733   2.477   6.566   6.620 -0.4285  0.3830 -0.1938
 5106TIP3    H236734   2.365   6.492   6.690 -0.7898  0.1070 -1.0580
 5107TIP3   OH236735   0.425   1.648  13.809  0.1252 -0.5847 -0.0699
 5107TIP3    H136736   0.513   1.609  13.805  0.8832  1.0885 -0.4208
 5107TIP3    H236737   0.437   1.737  13.775 -1.5585 -0.0671  0.6292
 5108TIP3   OH236738   2.017   2.694   0.150  0.0128 -0.4967  0.9630
 5108TIP3    H136739   2.103   2.683   0.191  0.6164 -0.4590 -0.2928
 5108TIP3    H236740   2.033   2.748   0.073 -1.5172  1.5739  2.0385
 5109TIP3   OH236741   1.978   2.079   3.986  0.8958  0.2677  0.2701
 5109TIP3    H136742   2.017   2.121   3.910  0.4350  2.3462  1.1481
 5109TIP3    H236743   1.899   2.036   3.953 -0.9273  3.6362  0.0359
 5110TIP3   OH236744   3.024   4.197   2.096  0.4651 -0.0001 -0.0699
 5110TIP3    H136745   3.048   4.245   2.175  0.2366  0.9968 -0.6011
 5110TIP3    H236746   3.101   4.143   2.076  0.3163 -0.6812  1.1401
 5111TIP3   OH236747   2.293   1.938   1.285 -0.2479 -0.8304  0.0973
 5111TIP3    H136748   2.244   2.018   1.304 -0.0191 -1.1074  1.9702
 5111TIP3    H236749   2.371   1.968   1.239  0.2910  0.1482  1.5959
 5112TIP3   OH236750   6.129   3.508  16.674 -0.4588  0.7224  0.4394
 5112TIP3    H136751   6.092   3.540  16.593 -1.7869  0.2792  0.8593
 5112TIP3    H236752   6.173   3.584  16.712 -0.1948  1.0321 -0.4844
 5113TIP3   OH236753   2.353   1.600  12.108 -0.1525 -0.1936 -0.2674
 5113TIP3    H136754   2.302   1.680  12.099  0.2423 -0.2467 -3.9801
 5113TIP3    H236755   2.289   1.529  12.096  0.2641 -0.3060 -1.9837
 5114TIP3   OH236756   5.564   0.852   2.261 -0.2417 -0.3744  0.1131
 5114TIP3    H136757   5.585   0.944   2.271  0.6623 -0.6410  0.7348
 5114TIP3    H236758   5.545   0.822   2.350  2.3497 -1.4650  0.3227
 5115TIP3   OH236759   0.832   3.060   4.252  0.3422 -0.3163 -0.2474
 5115TIP3    H136760   0.838   3.074   4.346  0.7046  1.0330 -0.4533
 5115TIP3    H236761   0.830   2.965   4.241 -2.3633 -0.4853  1.2853
 5116TIP3   OH236762   0.997   6.496   5.746  0.4623 -0.8088  0.0975
 5116TIP3    H136763   0.998   6.504   5.841  1.1314 -0.7716  0.0885
 5116TIP3    H236764   1.083   6.460   5.724 -0.2073 -2.1741 -0.3659
 5117TIP3   OH236765   5.048   4.903   0.129 -0.2287  0.3035  0.5739
 5117TIP3    H136766   5.092   4.844   0.190 -1.4952 -0.8963  0.3588
 5117TIP3    H236767   5.099   4.897   0.048  1.1509  1.5022  1.3326
 5118TIP3   OH236768   2.715   3.981  10.612  0.3104 -0.2890 -0.1533
 5118TIP3    H136769   2.789   3.936  10.653  0.0100  0.6581  1.4868
 5118TIP3    H236770   2.662   3.911  10.574 -0.2550 -1.3556  2.5242
 5119TIP3   OH236771   6.344   1.071  15.748  0.0583  0.0940  0.3480
 5119TIP3    H136772   6.361   1.139  15.813 -3.3364  0.3061  1.0721
 5119TIP3    H236773   6.312   1.118  15.671  0.3761 -0.4760 -0.1383
 5120TIP3   OH236774   3.103   1.823  14.577  0.6772 -0.1341 -0.5496
 5120TIP3    H136775   3.138   1.906  14.545  0.7549  0.3654  0.7874
 5120TIP3    H236776   3.019   1.846  14.617  0.8225 -0.6494  0.0618
 5121TIP3   OH236777   1.188   4.549  13.876  0.2480  0.1707  0.3241
 5121TIP3    H136778   1.128   4.616  13.908 -0.4068  0.1828 -0.8884
 5121TIP3    H236779   1.134   4.470  13.867  0.5910 -0.0299 -0.0211
 5122TIP3   OH236780   3.978   4.552   2.179 -0.0625 -0.1176 -0.3119
 5122TIP3    H136781   3.898   4.525   2.134  0.1210  0.3301 -0.9083
 5122TIP3    H236782   3.974   4.647   2.180  0.7701 -0.0757 -0.8908
 5123TIP3   OH236783   5.023   0.619   2.762 -0.0717 -0.2695  0.2251
 5123TIP3    H136784   5.068   0.607   2.846 -1.5097 -0.3247  0.9999
 5123TIP3    H236785   4.934   0.643   2.786  0.4012  3.3264 -1.2495
 5124TIP3   OH236786   3.075   6.374  13.512 -0.2099  0.6121 -0.1305
 5124TIP3    H136787   3.047   6.356  13.602  0.2492 -0.4144 -0.1890
 5124TIP3    H236788   2.999   6.416  13.471 -0.5411  0.7628  0.6327
 5125TIP3   OH236789   5.649   4.037  13.206 -0.0293 -0.2483  0.3033
 5125TIP3    H136790   5.555   4.054  13.207  0.0470  0.1374  1.0619
 5125TIP3    H236791   5.665   3.990  13.288  0.6423  0.7523  0.7439
 5126TIP3   OH236792   6.529   0.601  11.875 -0.4451  0.0537  0.0193
 5126TIP3    H136793   6.444   0.565  11.850 -1.0026  1.8710 -0.7490
 5126TIP3    H236794   6.519   0.696  11.868  1.8923  0.2890 -0.8877
 5127TIP3   OH236795   0.736   1.074  13.903 -0.2819 -0.1932  0.2070
 5127TIP3    H136796   0.811   1.018  13.883  0.2516  0.6765 -0.2356
 5127TIP3    H236797   0.672   1.015  13.942 -0.1334 -1.3232 -1.2148
 5128TIP3   OH236798   4.378   1.599  17.028  0.0694 -0.6381  0.5185
 5128TIP3    H136799   4.429   1.626  17.104 -0.5565 -2.1189  1.4842
 5128TIP3    H236800   4.293   1.641  17.040  0.3819  0.1557 -0.0234
 5129TIP3   OH236801   0.289   3.006  14.899  0.2249 -0.2051 -0.1156
 5129TIP3    H136802   0.351   2.992  14.970  1.2754 -0.7129 -1.1268
 5129TIP3    H236803   0.215   3.051  14.941  1.6763  1.2948  0.9077
 5130TIP3   OH236804   1.744   2.598  16.972  0.3743 -0.4467 -0.3644
 5130TIP3    H136805   1.812   2.631  16.914 -0.1802  2.1154  0.3925
 5130TIP3    H236806   1.790   2.582  17.055  0.2720  0.2716 -0.1662
 5131TIP3   OH236807   0.263   3.923  12.598 -0.1811  0.3002  0.2196
 5131TIP3    H136808   0.172   3.948  12.613 -0.2506 -0.1138  0.4891
 5131TIP3    H236809   0.258   3.836  12.559  0.0743  0.5647 -0.4211
 5132TIP3   OH236810   1.429   6.322  16.871  0.1196  0.0499  0.4996
 5132TIP3    H136811   1.369   6.367  16.931 -1.0402  1.4035 -1.6298
 5132TIP3    H236812   1.396   6.342  16.784  1.5659 -2.2014 -0.6139
 5133TIP3   OH236813   5.072   5.874   0.850 -0.4189 -0.7222 -0.2043
 5133TIP3    H136814   4.997   5.842   0.900 -2.0626  1.1122 -1.4094
 5133TIP3    H236815   5.075   5.968   0.869  3.6364 -1.2352  2.4208
 5134TIP3   OH236816   2.626   3.601  12.324  0.0950  0.3196  0.4034
 5134TIP3    H136817   2.716   3.585  12.354  1.6238 -0.2276 -4.0642
 5134TIP3    H236818   2.582   3.516  12.331  1.4647 -0.6473 -1.9579
 5135TIP3   OH236819   2.443   4.801   2.482 -0.1832  0.9149  0.4369
 5135TIP3    H136820   2.466   4.879   2.532 -0.1130  0.3164  1.3545
 5135TIP3    H236821   2.461   4.728   2.542  0.3337  0.1590 -0.6182
 5136TIP3   OH236822   0.001   2.706  13.516 -0.0690 -0.4861 -0.0662
 5136TIP3    H136823  -0.050   2.628  13.496 -0.9318  0.0390  0.0611
 5136TIP3    H236824  -0.059   2.763  13.563  0.6903  0.0668  0.2532
 5137TIP3   OH236825   0.132   0.926  14.516 -0.4334 -0.0657  0.6114
 5137TIP3    H136826   0.157   0.941  14.607  0.7868 -0.2630  0.3155
 5137TIP3    H236827   0.214   0.931  14.467 -1.0021 -0.5128 -0.4121
 5138TIP3   OH236828   2.769   4.218   3.753 -0.5551 -0.3344  0.2553
 5138TIP3    H136829   2.857   4.193   3.722 -0.4972  0.1782 -0.0009
 5138TIP3    H236830   2.777   4.311   3.774 -1.3290 -0.0037 -0.8518
 5139TIP3   OH236831   3.545   5.276   3.816 -0.9563 -0.4495 -0.0767
 5139TIP3    H136832   3.464   5.300   3.771 -1.6204 -0.7240  0.9523
 5139TIP3    H236833   3.541   5.325   3.899 -1.7275 -3.0838  1.5116
 5140TIP3   OH236834   0.926   2.137  15.862 -0.0089 -0.2367 -0.7573
 5140TIP3    H136835   0.888   2.209  15.811 -0.0356  2.3437  2.7112
 5140TIP3    H236836   1.017   2.162  15.875  0.1016 -1.0545  0.0876
 5141TIP3   OH236837   0.914   2.135  13.924 -0.2915 -0.7164 -0.4311
 5141TIP3    H136838   0.998   2.179  13.917  0.7796 -2.3263  1.8738
 5141TIP3    H236839   0.856   2.185  13.866  1.4950  2.2035  0.2073
 5142TIP3   OH236840   4.537   2.771   0.085  0.3434  0.6548  0.1865
 5142TIP3    H136841   4.512   2.709   0.016  0.6945  1.2528 -0.4821
 5142TIP3    H236842   4.595   2.721   0.143  0.7009  0.3886 -0.4021
 5143TIP3   OH236843   1.576   1.283  12.159  0.0251  0.0819  0.3583
 5143TIP3    H136844   1.620   1.287  12.244 -1.0302  0.6874  0.8854
 5143TIP3    H236845   1.483   1.275  12.180 -0.0469 -2.2429 -0.7455
 5144TIP3   OH236846   3.421   4.299   4.235  0.5458 -0.2789  0.3607
 5144TIP3    H136847   3.353   4.364   4.219 -0.7693 -2.2149 -2.1167
 5144TIP3    H236848   3.384   4.242   4.303 -0.0988 -0.9899 -0.5746
 5145TIP3   OH236849   6.637   6.007  17.061  0.2128  0.3066  0.1410
 5145TIP3    H136850   6.726   5.991  17.031  0.1161 -1.7150  0.8338
 5145TIP3    H236851   6.647   6.064  17.137  0.8368  0.9237 -0.4036
 5146TIP3   OH236852   4.891   3.832  12.045 -0.7024 -0.1325 -0.1859
 5146TIP3    H136853   4.984   3.852  12.032 -1.0673  2.2765  0.7434
 5146TIP3    H236854   4.852   3.846  11.958 -0.6677  1.7278  0.0741
 5147TIP3   OH236855   2.215   2.897  13.242  0.8272 -0.3616  0.1973
 5147TIP3    H136856   2.309   2.911  13.244  0.8646 -0.7176  1.1989
 5147TIP3    H236857   2.180   2.956  13.308  0.2743  0.2530 -0.6341
 5148TIP3   OH236858   4.524   0.679   0.301 -0.8460 -0.1686 -0.1175
 5148TIP3    H136859   4.482   0.728   0.371 -0.2005 -0.6907  0.6491
 5148TIP3    H236860   4.607   0.724   0.285 -1.4072  0.5015 -1.2036
 5149TIP3   OH236861   0.085   3.987   6.744  0.5354 -0.2583 -0.7170
 5149TIP3    H136862   0.137   3.909   6.764  1.5705  0.5058 -0.4495
 5149TIP3    H236863   0.149   4.056   6.727 -0.2638  1.7458  3.6321
 5150TIP3   OH236864   0.015   3.413  15.169 -0.3680  0.0728 -0.4756
 5150TIP3    H136865  -0.013   3.446  15.254 -1.8473 -1.1372 -0.4628
 5150TIP3    H236866   0.020   3.491  15.113  2.6098  1.1459  1.2057
 5151TIP3   OH236867   6.267   2.156  16.244 -0.4598 -0.3480 -0.1205
 5151TIP3    H136868   6.174   2.163  16.268 -0.8063 -1.7088 -0.9946
 5151TIP3    H236869   6.266   2.138  16.150  0.7061 -0.0926 -0.1877
 5152TIP3   OH236870   6.298   3.489  13.993 -0.1264 -0.2814 -0.0876
 5152TIP3    H136871   6.227   3.430  13.969 -0.7014  0.0647  0.7353
 5152TIP3    H236872   6.259   3.577  13.990  0.2189 -0.1009  0.4884
 5153TIP3   OH236873   5.304   1.560  14.179  0.4385 -0.2766 -0.3142
 5153TIP3    H136874   5.368   1.528  14.116  1.0266 -1.4509  0.8350
 5153TIP3    H236875   5.254   1.482  14.204  0.9192 -0.0510  1.4406
 5154TIP3   OH236876   6.758   6.555  16.502  0.1063 -0.0567  0.4820
 5154TIP3    H136877   6.779   6.624  16.439 -0.3469  0.3344  0.7558
 5154TIP3    H236878   6.693   6.501  16.458  0.6011 -0.4180  0.1966
 5155TIP3   OH236879   4.455   2.451  11.791  0.0463  0.8361  0.1850
 5155TIP3    H136880   4.530   2.503  11.821 -0.3953  1.5832  0.0011
 5155TIP3    H236881   4.471   2.363  11.827  0.9180  1.0317  0.2988
 5156TIP3   OH236882   1.909   0.863   3.570  0.2961  0.4771 -0.0774
 5156TIP3    H136883   1.852   0.834   3.641  1.5789 -0.5560  0.5702
 5156TIP3    H236884   1.850   0.891   3.500 -1.0016  1.9084  1.5492
 5157TIP3   OH236885   2.388   2.277  13.755 -0.3514 -0.1024  0.2207
 5157TIP3    H136886   2.374   2.356  13.808 -1.6166 -0.1593 -0.0358
 5157TIP3    H236887   2.312   2.272  13.698  0.3935 -0.7574 -0.7334
 5158TIP3   OH236888   1.585   2.340   0.455  0.4887 -0.3218 -0.1536
 5158TIP3    H136889   1.679   2.332   0.472  1.0313  1.4576 -2.0882
 5158TIP3    H236890   1.574   2.309   0.365 -0.5987  0.5072 -0.3204
 5159TIP3   OH236891   0.553   3.090  13.051  0.5924 -0.5519  0.1303
 5159TIP3    H136892   0.610   3.040  13.110  1.6329  0.9140  0.4189
 5159TIP3    H236893   0.573   3.182  13.071 -1.9660  0.0125  0.3117
 5160TIP3   OH236894   3.895   5.780   0.160  0.3644 -0.2732  0.6107
 5160TIP3    H136895   3.830   5.827   0.211 -0.3832 -1.2802  0.5991
 5160TIP3    H236896   3.928   5.712   0.218 -0.7553 -1.6566 -0.3446
 5161TIP3   OH236897   2.908   0.343   2.345 -0.2163 -0.3642  0.1122
 5161TIP3    H136898   2.947   0.393   2.273 -0.0165  0.2475  0.6412
 5161TIP3    H236899   2.982   0.302   2.389 -0.3426 -0.7773 -0.0567
 5162TIP3   OH236900   1.087   1.021  14.602  0.3006  0.3125  0.9324
 5162TIP3    H136901   0.998   1.002  14.633  1.0794 -0.2396  2.9076
 5162TIP3    H236902   1.119   1.088  14.662 -1.1966  5.7601 -3.8548
 5163TIP3   OH236903   5.962   3.688   1.955 -0.0645 -0.0999 -0.8551
 5163TIP3    H136904   6.000   3.736   2.029 -1.1629 -0.1714 -0.2292
 5163TIP3    H236905   6.037   3.654   1.907  0.6587 -1.8591  1.4190
 5164TIP3   OH236906   2.312   4.027   5.392 -0.0105 -0.1700  0.0230
 5164TIP3    H136907   2.247   3.960   5.415  0.1948 -0.0976  0.8375
 5164TIP3    H236908   2.262   4.097   5.351 -0.1012 -1.2540 -1.7457
 5165TIP3   OH236909   4.593   4.621   2.786  0.6914  0.3464  0.4463
 5165TIP3    H136910   4.662   4.621   2.719  0.0436  0.8940 -0.2298
 5165TIP3    H236911   4.634   4.580   2.862  0.7409 -2.4091 -1.0030
 5166TIP3   OH236912   1.449   2.259   5.714 -0.2985  0.0336 -0.3070
 5166TIP3    H136913   1.396   2.187   5.746  1.1478 -1.0599 -0.3252
 5166TIP3    H236914   1.387   2.332   5.704 -1.6531 -1.0145  0.2848
 5167TIP3   OH236915   3.990   3.216  11.219 -0.3499  0.0505 -0.0064
 5167TIP3    H136916   3.963   3.240  11.308  1.3205  0.8587  0.3033
 5167TIP3    H236917   3.915   3.239  11.164 -1.3466 -0.3374  1.1767
 5168TIP3   OH236918   6.672   4.768  16.078 -0.1906  0.1162 -0.1779
 5168TIP3    H136919   6.610   4.835  16.105 -1.1013 -0.7119 -0.1921
 5168TIP3    H236920   6.757   4.811  16.082 -0.3404  0.2008  3.3909
 5169TIP3   OH236921   5.030   6.202   0.436 -0.1364  0.3222  0.1469
 5169TIP3    H136922   5.007   6.256   0.511 -0.3115 -2.0526  1.8571
 5169TIP3    H236923   5.114   6.163   0.459  0.7614  1.0737 -1.7432
 5170TIP3   OH236924   5.023   3.681   2.799  0.3449  0.0684  0.6338
 5170TIP3    H136925   5.007   3.744   2.729  3.6664  0.3195 -0.0035
 5170TIP3    H236926   4.998   3.727   2.879 -0.2456  1.0217 -0.0910
 5171TIP3   OH236927   5.628   5.096   4.911 -0.1768  0.5113 -0.1862
 5171TIP3    H136928   5.647   5.150   4.988 -0.3941  0.0721  0.1805
 5171TIP3    H236929   5.712   5.055   4.889  0.0463  1.1879 -0.6209
 5172TIP3   OH236930   4.377   5.427   0.837  0.1068 -0.5578 -0.6298
 5172TIP3    H136931   4.297   5.462   0.797  0.3299 -0.2552 -0.8132
 5172TIP3    H236932   4.416   5.502   0.882  0.1403 -0.7723 -0.2996
 5173TIP3   OH236933   0.183   4.444  13.336  0.0056 -0.4434 -0.0434
 5173TIP3    H136934   0.227   4.362  13.315 -0.1503 -0.5631  0.0931
 5173TIP3    H236935   0.185   4.494  13.255  0.5228 -0.3860 -0.0022
 5174TIP3   OH236936   4.081   6.749   2.680 -0.0193 -0.2193  0.0874
 5174TIP3    H136937   4.048   6.781   2.595 -2.3747  0.2369  1.1243
 5174TIP3    H236938   4.166   6.792   2.690  1.3030 -1.9391 -2.9995
 5175TIP3   OH236939   2.151   0.236   5.079 -0.3192  0.6419  0.6090
 5175TIP3    H136940   2.191   0.214   5.163 -1.9502  1.7427  1.7176
 5175TIP3    H236941   2.203   0.188   5.014  1.5764  0.5368  2.1393
 5176TIP3   OH236942   4.999   2.782   3.929  0.3229 -0.0501  0.8115
 5176TIP3    H136943   5.055   2.857   3.909 -0.8935  0.4261 -0.8742
 5176TIP3    H236944   5.059   2.716   3.965  1.7522  0.9156  0.2325
 5177TIP3   OH236945   1.982   6.436   2.881  0.0165  0.1571 -0.1277
 5177TIP3    H136946   1.947   6.491   2.812  3.8495  3.0386  0.0521
 5177TIP3    H236947   1.947   6.472   2.962 -0.4598 -0.0473 -0.2430
 5178TIP3   OH236948   4.943   6.244   1.520 -0.3246 -0.1259 -0.2235
 5178TIP3    H136949   4.951   6.339   1.530  1.1544 -0.0950 -1.5127
 5178TIP3    H236950   5.015   6.208   1.573 -0.3804 -0.4981 -0.3974
 5179TIP3   OH236951   0.704   0.039   3.563  0.3463 -0.5014  0.0531
 5179TIP3    H136952   0.739  -0.010   3.489  1.0196 -2.9596  1.8996
 5179TIP3    H236953   0.782   0.065   3.613 -0.1621 -0.9736  1.1248
 5180TIP3   OH236954   0.614   3.266  11.427  0.0801  0.3984 -0.6267
 5180TIP3    H136955   0.697   3.239  11.468 -0.2086 -0.7690 -0.7794
 5180TIP3    H236956   0.640   3.313  11.348  0.6227 -3.2022 -2.7262
 5181TIP3   OH236957   2.136   4.786  16.016 -0.0172  0.1647 -0.3249
 5181TIP3    H136958   2.144   4.741  16.101  1.6652  0.6976 -0.1769
 5181TIP3    H236959   2.091   4.867  16.036 -0.9523 -0.3849 -0.1920
 5182TIP3   OH236960   3.702   1.860  12.207 -0.5186  0.0981 -0.0549
 5182TIP3    H136961   3.715   1.779  12.256 -1.9805 -1.4004 -2.0812
 5182TIP3    H236962   3.669   1.922  12.272  0.8260 -0.8459  1.5593
 5183TIP3   OH236963   4.848   1.732   2.317  0.4827 -0.4466  0.6066
 5183TIP3    H136964   4.934   1.729   2.359  0.0089 -0.8556  1.5880
 5183TIP3    H236965   4.817   1.821   2.332  1.3190  0.1209 -0.9741
 5184TIP3   OH236966   4.940   3.261   4.293  0.0472  0.2412 -0.6829
 5184TIP3    H136967   4.964   3.232   4.205 -1.9702 -0.1375 -1.1196
 5184TIP3    H236968   4.879   3.194   4.324 -1.8198  2.1065 -0.2857
 5185TIP3   OH236969   5.677   3.106   3.724 -0.0400  0.0030 -0.1637
 5185TIP3    H136970   5.722   3.022   3.717 -0.0261 -0.1406  1.4240
 5185TIP3    H236971   5.724   3.164   3.665  0.4723 -0.8950 -0.6436
 5186TIP3   OH236972   0.235   3.670   2.362 -0.0339  0.2277 -0.3164
 5186TIP3    H136973   0.205   3.719   2.439 -0.5492  1.7245 -1.4349
 5186TIP3    H236974   0.322   3.706   2.344  0.5971 -0.9751  0.2694
 5187TIP3   OH236975   5.132   0.734  12.782 -0.3218  0.2770  0.4183
 5187TIP3    H136976   5.116   0.762  12.873  1.0594 -0.4833  0.9148
 5187TIP3    H236977   5.165   0.812  12.738  0.5906  0.2318  1.0074
 5188TIP3   OH236978   2.462   1.591  17.159  0.1674  0.4527 -0.2502
 5188TIP3    H136979   2.548   1.631  17.141 -0.3935  1.8631  0.1408
 5188TIP3    H236980   2.471   1.555  17.247 -0.1683  2.1539  0.5160
 5189TIP3   OH236981   4.224   5.376   4.440 -0.0099 -0.1806  0.0680
 5189TIP3    H136982   4.317   5.374   4.462 -0.0586 -0.3296  0.2719
 5189TIP3    H236983   4.181   5.333   4.515 -0.2180 -0.3369 -0.1387
 5190TIP3   OH236984   5.155   0.487   6.434 -0.7810  0.1725  0.1394
 5190TIP3    H136985   5.133   0.580   6.441  2.5465  1.0494 -0.4973
 5190TIP3    H236986   5.248   0.486   6.416 -0.3174 -3.3862  2.3641
 5191TIP3   OH236987   1.937   2.168  12.426  0.4373  1.0195 -0.1768
 5191TIP3    H136988   2.003   2.100  12.419 -0.7464 -0.9139  4.9496
 5191TIP3    H236989   1.983   2.244  12.461  0.6670  1.0125 -0.4624
 5192TIP3   OH236990   2.271   4.863   2.763  0.1669  0.4790 -0.0619
 5192TIP3    H136991   2.210   4.925   2.803  0.5715  2.1676 -1.9927
 5192TIP3    H236992   2.352   4.913   2.753  1.0971 -0.9614  0.1150
 5193TIP3   OH236993   4.996   0.095  13.741 -0.1405  0.0454  0.2470
 5193TIP3    H136994   4.944   0.046  13.805  0.7747 -1.0572  0.1550
 5193TIP3    H236995   5.062   0.140  13.794 -0.6921  0.8347  0.2821
 5194TIP3   OH236996   1.215   6.176   5.593  0.3447 -0.3585  0.6720
 5194TIP3    H136997   1.288   6.149   5.537  2.1695  0.8955  2.3955
 5194TIP3    H236998   1.239   6.147   5.681 -0.9014  0.6923  1.3840
 5195TIP3   OH236999   2.301   4.073  16.264  0.0382  0.5580  0.1221
 5195TIP3    H137000   2.254   4.014  16.324 -0.1135  1.5280  0.9685
 5195TIP3    H237001   2.393   4.055  16.281  0.0040  1.1913  1.0294
 5196TIP3   OH237002   2.577   0.403  13.203  0.1770  0.0023 -0.6232
 5196TIP3    H137003   2.538   0.317  13.218  1.9457 -0.5048  1.3681
 5196TIP3    H237004   2.610   0.400  13.114  1.7636 -2.0412  0.0056
 5197TIP3   OH237005   1.641   2.412   2.986  1.0080  0.1837  0.0662
 5197TIP3    H137006   1.701   2.371   3.049  0.2237 -2.9493 -1.1074
 5197TIP3    H237007   1.679   2.392   2.900 -0.0770  0.8456 -0.5827
 5198TIP3   OH237008   3.588   1.454  16.121  0.4356  0.2577  0.1186
 5198TIP3    H137009   3.513   1.473  16.066 -0.1624  1.4939  1.3170
 5198TIP3    H237010   3.563   1.376  16.171 -0.2920  0.9723  0.8988
 5199TIP3   OH237011   4.545   6.783  15.341  0.0522 -0.3506 -0.4961
 5199TIP3    H137012   4.567   6.793  15.248  0.3343  0.6900 -0.3195
 5199TIP3    H237013   4.628   6.800  15.387  0.2760 -2.3003 -0.1113
 5200TIP3   OH237014   5.593   3.828   0.800 -0.2383 -0.0977 -0.3298
 5200TIP3    H137015   5.626   3.799   0.715 -0.4202 -1.4449  0.0555
 5200TIP3    H237016   5.510   3.871   0.781 -0.7414 -1.2464 -0.7245
 5201TIP3   OH237017   2.962   5.669   4.630 -0.4826 -0.1227  0.0215
 5201TIP3    H137018   3.024   5.710   4.570 -1.6934  0.3675 -0.9317
 5201TIP3    H237019   2.957   5.729   4.704 -0.8871  0.5728 -0.5550
 5202TIP3   OH237020   0.614   1.620  15.079 -0.1065 -0.6357 -0.1722
 5202TIP3    H137021   0.643   1.569  15.004 -0.2992 -0.3197 -0.4616
 5202TIP3    H237022   0.533   1.663  15.050 -1.4870 -2.3739  0.9899
 5203TIP3   OH237023   2.024   5.028   4.058 -0.2248  0.9679  0.3751
 5203TIP3    H137024   1.964   5.085   4.107 -0.7293  0.3219  0.5272
 5203TIP3    H237025   2.110   5.048   4.093 -0.4235  1.5164  0.5496
 5204TIP3   OH237026   4.450   3.201   5.720  0.3169  0.0443  0.5319
 5204TIP3    H137027   4.515   3.232   5.657 -0.2565  0.6792  0.2427
 5204TIP3    H237028   4.445   3.271   5.786 -0.3437  0.1838  0.3431
 5205TIP3   OH237029   2.900   4.882  14.567  0.1980  0.1665  0.1154
 5205TIP3    H137030   2.856   4.822  14.507  2.1524 -1.7881  0.5683
 5205TIP3    H237031   2.840   4.891  14.641 -1.3452  1.0167 -1.2271
 5206TIP3   OH237032   4.968   6.157   0.938  0.1667 -0.0015  0.6401
 5206TIP3    H137033   4.957   6.213   1.015 -1.2477  0.4668  0.1065
 5206TIP3    H237034   4.887   6.167   0.889  2.0430  1.6908 -2.2457
 5207TIP3   OH237035   3.725   1.803   2.157 -0.4757  0.2841  0.2515
 5207TIP3    H137036   3.699   1.889   2.122  0.8935  0.2447 -0.9224
 5207TIP3    H237037   3.821   1.802   2.149 -0.4809 -1.3694  0.1927
 5208TIP3   OH237038   6.065   0.564   2.372  0.1922  0.2436 -0.4052
 5208TIP3    H137039   6.005   0.591   2.442  1.2477 -1.6143  1.2726
 5208TIP3    H237040   6.008   0.524   2.306 -0.9896  3.3003 -1.3488
 5209TIP3   OH237041   0.416   1.359  16.050 -0.3156 -0.2919  0.0411
 5209TIP3    H137042   0.412   1.446  16.010 -1.1113 -0.4699 -0.2785
 5209TIP3    H237043   0.326   1.325  16.043 -0.1174 -0.9467  0.5900
 5210TIP3   OH237044   2.943   1.628   4.223 -0.2155 -0.6241 -1.0416
 5210TIP3    H137045   2.997   1.693   4.178  0.4938 -0.5238 -0.0852
 5210TIP3    H237046   3.007   1.566   4.260 -0.5698  0.7791  2.0690
 5211TIP3   OH237047   1.623   4.563  12.333  0.1867 -0.4186  0.2299
 5211TIP3    H137048   1.637   4.649  12.374  0.1011  0.3455 -1.2861
 5211TIP3    H237049   1.528   4.556  12.325  0.1795 -0.8146  0.6877
 5212TIP3   OH237050   0.513   3.721  11.563 -0.0081  0.1005  0.1686
 5212TIP3    H137051   0.468   3.643  11.594  0.9595 -0.3858  0.3922
 5212TIP3    H237052   0.461   3.794  11.595 -1.3562 -0.4633 -0.7212
 5213TIP3   OH237053   6.504   1.350   3.722 -0.6013  0.4418 -0.2838
 5213TIP3    H137054   6.416   1.387   3.721  0.0399  2.0035 -1.6402
 5213TIP3    H237055   6.559   1.420   3.688  0.5722 -2.0350 -3.6624
 5214TIP3   OH237056   4.890   6.177   5.209  0.0239 -0.0043  0.0504
 5214TIP3    H137057   4.838   6.109   5.168  1.5729  0.4660 -2.8146
 5214TIP3    H237058   4.977   6.138   5.219  0.8632  1.4462 -1.4046
 5215TIP3   OH237059   0.174   1.508  14.070  0.0970 -0.5525 -0.1690
 5215TIP3    H137060   0.246   1.446  14.054 -0.4352 -0.8992 -1.2898
 5215TIP3    H237061   0.099   1.468  14.026 -0.5121  0.3563  0.0474
 5216TIP3   OH237062   2.375   1.675   1.639  0.2296  0.2232 -0.7634
 5216TIP3    H137063   2.329   1.627   1.708  2.0017  3.1226  2.6332
 5216TIP3    H237064   2.308   1.697   1.575 -1.2760 -3.4434 -0.5309
 5217TIP3   OH237065   3.709   3.051   4.222 -0.5525 -0.0202  0.2710
 5217TIP3    H137066   3.674   2.985   4.162 -0.8758  0.2997  0.1073
 5217TIP3    H237067   3.640   3.064   4.286  0.1604 -1.0513  1.2705
 5218TIP3   OH237068   0.818   3.910   4.793 -0.5684  0.2223  0.1589
 5218TIP3    H137069   0.789   3.872   4.876 -2.4079 -0.0558 -0.5903
 5218TIP3    H237070   0.912   3.928   4.806 -0.5638 -0.9392  1.8579
 5219TIP3   OH237071   5.398   0.644  14.768  0.4044  0.4446 -0.1780
 5219TIP3    H137072   5.396   0.549  14.780 -1.7543  0.0631 -3.0094
 5219TIP3    H237073   5.490   0.664  14.751  1.2416 -0.7772  2.5527
 5220TIP3   OH237074   5.243   5.329   1.783  0.0646  0.3655  0.2699
 5220TIP3    H137075   5.194   5.410   1.770 -1.0940  0.2894  3.6401
 5220TIP3    H237076   5.323   5.340   1.732 -1.6616  2.1553 -2.1046
 5221TIP3   OH237077   6.066   4.300   4.883  0.3450  1.0245  0.0693
 5221TIP3    H137078   6.048   4.389   4.914  1.2003  1.0571  0.4807
 5221TIP3    H237079   5.990   4.249   4.912  0.8254  1.1887  1.7017
 5222TIP3   OH237080   4.294   1.122  14.404  0.1724  0.0840  0.6074
 5222TIP3    H137081   4.324   1.172  14.480  1.9969  0.9750 -0.6835
 5222TIP3    H237082   4.292   1.185  14.332 -1.2562 -0.8221 -0.1587
 5223TIP3   OH237083   5.651   3.981   5.545  0.1393  0.1506 -0.1106
 5223TIP3    H137084   5.615   4.055   5.498  0.2624 -0.1674 -0.7096
 5223TIP3    H237085   5.601   3.906   5.515 -0.6301  0.1098  1.2040
 5224TIP3   OH237086   3.217   1.370  12.093 -0.2958 -0.2492  0.4103
 5224TIP3    H137087   3.140   1.313  12.105 -0.7900  0.1604 -0.7955
 5224TIP3    H237088   3.194   1.450  12.140 -0.4938 -0.2242  0.2715
 5225TIP3   OH237089   4.920   5.086   2.140 -0.3457 -0.1921 -0.1486
 5225TIP3    H137090   4.916   5.071   2.046 -0.8716  0.2031 -0.1921
 5225TIP3    H237091   4.858   5.157   2.156 -0.2183 -0.2173  0.4884
 5226TIP3   OH237092   2.950   4.295   3.077 -0.3820 -0.2031  0.2003
 5226TIP3    H137093   3.031   4.252   3.050 -1.1580 -0.5119 -1.7231
 5226TIP3    H237094   2.967   4.325   3.167  1.6569 -0.7394  0.0139
 5227TIP3   OH237095   1.093   0.741   5.562 -0.1765  0.3566 -0.2797
 5227TIP3    H137096   1.130   0.757   5.649 -1.7892  0.6294  0.3850
 5227TIP3    H237097   1.162   0.695   5.514  0.5515 -0.2730  1.3242
 5228TIP3   OH237098   2.274   5.678  12.899  0.2123 -0.0219 -0.2722
 5228TIP3    H137099   2.280   5.631  12.982 -0.1441 -2.1190 -1.3913
 5228TIP3    H237100   2.315   5.619  12.836 -1.6211  0.5015 -1.9927
 5229TIP3   OH237101   3.957   1.631   3.284 -0.1501  0.2659 -0.3698
 5229TIP3    H137102   3.942   1.671   3.369 -2.2246 -0.9648 -0.1259
 5229TIP3    H237103   3.937   1.538   3.297  3.0218 -0.6226 -1.3107
 5230TIP3   OH237104   3.214   4.210   5.458 -0.2497  0.0467 -0.4519
 5230TIP3    H137105   3.165   4.218   5.539 -0.7345  0.5090 -0.7893
 5230TIP3    H237106   3.156   4.160   5.400 -0.0880  0.1002 -0.6619
 5231TIP3   OH237107   4.886   2.818   2.311 -0.7079  0.4875 -0.0466
 5231TIP3    H137108   4.968   2.792   2.353 -0.5818  0.4988 -0.2856
 5231TIP3    H237109   4.912   2.851   2.225 -1.0754 -0.6955 -0.6220
 5232TIP3   OH237110   0.914   3.284  10.360  0.5967 -0.3233 -0.3657
 5232TIP3    H137111   0.820   3.292  10.375  0.6799  0.2439 -0.1159
 5232TIP3    H237112   0.921   3.237  10.277  0.0887  0.0082 -0.6005
 5233TIP3   OH237113   6.003   2.693   2.794 -0.6318 -0.4612  0.1907
 5233TIP3    H137114   5.916   2.690   2.755 -0.9221 -0.1588  0.8088
 5233TIP3    H237115   6.023   2.786   2.801  0.1270 -0.5375 -0.7895
 5234TIP3   OH237116   6.775   1.436  11.248  0.5384 -0.2622  0.8255
 5234TIP3    H137117   6.863   1.400  11.259  2.1818  2.7515 -1.5416
 5234TIP3    H237118   6.742   1.392  11.169  0.2293 -0.8221  1.2654
 5235TIP3   OH237119   6.005   2.934  14.714 -0.5743 -0.2613 -0.2944
 5235TIP3    H137120   6.059   2.883  14.653 -0.3538  1.0496 -1.2126
 5235TIP3    H237121   5.941   2.870  14.747  1.3087 -1.7501  0.5666
 5236TIP3   OH237122   6.302   1.581  15.739 -0.2204  0.2893 -0.1992
 5236TIP3    H137123   6.268   1.599  15.827  0.2518  0.6094 -0.0801
 5236TIP3    H237124   6.298   1.486  15.731  1.8620  0.0731  1.0343
 5237TIP3   OH237125   5.194   5.150   1.206 -0.1521  0.3284  0.4499
 5237TIP3    H137126   5.250   5.228   1.212  0.1546  0.2163 -0.7839
 5237TIP3    H237127   5.245   5.088   1.153 -0.1968 -0.8907  1.8064
 5238TIP3   OH237128   6.295   1.456   0.201  0.7589  0.2988  0.4838
 5238TIP3    H137129   6.249   1.534   0.233  0.0331  0.2265 -0.3800
 5238TIP3    H237130   6.370   1.447   0.260  1.2898  2.1278  0.1171
 5239TIP3   OH237131   5.458   3.399  12.093 -0.4364 -0.0110  0.9786
 5239TIP3    H137132   5.434   3.489  12.073 -1.9060 -0.1203  2.1371
 5239TIP3    H237133   5.379   3.348  12.073  0.0965 -0.9266  1.1558
 5240TIP3   OH237134   1.440   5.612   5.591  0.1910  0.0379 -0.2408
 5240TIP3    H137135   1.530   5.582   5.593  0.1537 -0.0419  0.7911
 5240TIP3    H237136   1.389   5.534   5.568  0.2436 -0.3083  0.7860
 5241TIP3   OH237137   1.247   6.249   6.061  0.1235  0.2461  0.1849
 5241TIP3    H137138   1.214   6.247   6.150  0.3537  0.3322  0.2733
 5241TIP3    H237139   1.322   6.309   6.064 -1.4282  2.2751 -0.6212
 5242TIP3   OH237140   1.134   0.277  15.601  0.1110 -0.0969 -0.3129
 5242TIP3    H137141   1.198   0.293  15.531  1.4965  0.0093  0.9561
 5242TIP3    H237142   1.187   0.255  15.677 -1.2641  2.2413  1.3864
 5243TIP3   OH237143   1.490   6.019  11.200  0.0190  0.3393 -0.0932
 5243TIP3    H137144   1.554   5.967  11.151 -1.1380 -0.8646 -0.3658
 5243TIP3    H237145   1.415   6.026  11.140 -0.5294  0.7717  0.6479
 5244TIP3   OH237146   6.452   6.167  10.571  0.2795 -0.2699  0.1453
 5244TIP3    H137147   6.399   6.244  10.591  0.6740  0.2057 -0.6081
 5244TIP3    H237148   6.457   6.119  10.653  0.9740  1.0822  0.8967
 5245TIP3   OH237149   2.233   1.968   5.812 -0.4988  0.9086  0.4087
 5245TIP3    H137150   2.277   1.903   5.757 -0.0995  0.9107  0.7290
 5245TIP3    H237151   2.241   2.050   5.763 -0.8197  0.7638  0.1038
 5246TIP3   OH237152   2.988   5.303   3.771  0.2928 -0.8591  1.0240
 5246TIP3    H137153   2.981   5.382   3.825 -1.3291 -0.4482  0.2244
 5246TIP3    H237154   2.975   5.230   3.833 -1.7213 -0.3908  1.1816
 5247TIP3   OH237155   2.511   2.824   4.193  0.4145  0.1135  0.2594
 5247TIP3    H137156   2.522   2.775   4.112 -1.3013 -1.1501  0.7420
 5247TIP3    H237157   2.426   2.794   4.227  0.8507  1.0245  2.2257
 5248TIP3   OH237158   1.589   0.793   6.068 -0.1276  0.2227  0.7061
 5248TIP3    H137159   1.611   0.864   6.128 -0.7623  1.4731 -0.5094
 5248TIP3    H237160   1.529   0.738   6.117  0.5548  0.3959  1.7436
 5249TIP3   OH237161   1.366   1.921   2.190 -0.1669 -0.4312  0.1479
 5249TIP3    H137162   1.324   1.977   2.125 -0.9380 -1.5073 -0.3094
 5249TIP3    H237163   1.418   1.980   2.243  1.5519  0.3113 -2.2752
 5250TIP3   OH237164   2.200   2.460   6.265 -0.5053 -0.2889  0.3949
 5250TIP3    H137165   2.257   2.389   6.236  0.1868  0.7014 -0.6983
 5250TIP3    H237166   2.243   2.494   6.343  0.3526  0.3672 -0.3500
 5251TIP3   OH237167   5.409   4.030   5.035  0.4492 -0.3179 -0.1390
 5251TIP3    H137168   5.387   3.947   4.992  1.2986 -1.4166  1.4556
 5251TIP3    H237169   5.458   4.080   4.970  0.5928 -1.3979 -0.8714
 5252TIP3   OH237170   3.389   1.788   0.527 -0.4662  0.5496 -0.2405
 5252TIP3    H137171   3.413   1.822   0.613 -1.2519  1.8807 -0.5305
 5252TIP3    H237172   3.310   1.837   0.503 -1.2449 -1.0285 -0.9714
 5253TIP3   OH237173   5.601   0.188  15.298  0.8563 -0.1661 -0.0203
 5253TIP3    H137174   5.518   0.157  15.335  1.8015 -1.6185  0.9118
 5253TIP3    H237175   5.598   0.161  15.206  0.6904 -1.0385  0.2368
 5254TIP3   OH237176   0.984   5.128   3.498  0.1786 -0.2101  0.4707
 5254TIP3    H137177   1.044   5.054   3.504  0.9656  0.4753  1.3382
 5254TIP3    H237178   1.041   5.203   3.482 -0.7557 -0.0100 -2.0741
 5255TIP3   OH237179   0.662   0.617  13.155  0.1472  0.6826 -0.0655
 5255TIP3    H137180   0.688   0.607  13.247 -1.1598 -0.4656  0.1991
 5255TIP3    H237181   0.743   0.640  13.109  1.0988 -0.2146  1.1326
 5256TIP3   OH237182   2.604   6.174   4.479 -0.3866 -0.0049 -0.4970
 5256TIP3    H137183   2.583   6.093   4.432 -2.2911  0.5331 -0.5883
 5256TIP3    H237184   2.534   6.185   4.542  1.5797 -0.1186  1.7735
 5257TIP3   OH237185   5.367   6.786  10.985  0.4458 -0.1885 -0.4717
 5257TIP3    H137186   5.291   6.815  10.934  1.6359  2.5226 -0.7849
 5257TIP3    H237187   5.332   6.722  11.046 -2.1439  1.1791 -0.4696
 5258TIP3   OH237188   0.003   1.434   2.237  0.4695  0.0093 -0.3654
 5258TIP3    H137189   0.045   1.377   2.302  3.2542  0.8074 -1.4059
 5258TIP3    H237190  -0.051   1.493   2.289 -0.0758 -1.6108  0.9577
 5259TIP3   OH237191   5.451   3.832  13.035 -0.5096  0.3060 -0.1718
 5259TIP3    H137192   5.397   3.806  13.110 -1.2906  0.4262 -0.7006
 5259TIP3    H237193   5.459   3.927  13.043 -1.4151  0.4403 -0.7930
 5260TIP3   OH237194   5.566   2.291  12.836  0.0748 -0.0998  0.2930
 5260TIP3    H137195   5.644   2.240  12.859 -0.1088  0.0368  1.2264
 5260TIP3    H237196   5.520   2.303  12.919  0.0553  1.4899  0.0696
 5261TIP3   OH237197   4.231   5.766  11.441  0.2043 -0.5334  0.0714
 5261TIP3    H137198   4.308   5.708  11.442 -0.4920 -1.4516  2.0728
 5261TIP3    H237199   4.255   5.840  11.497  0.8322  0.8221 -1.9325
 5262TIP3   OH237200   5.307   0.984   3.548  0.8951  0.2898  0.2181
 5262TIP3    H137201   5.345   0.896   3.548 -0.2431 -0.2125 -0.7708
 5262TIP3    H237202   5.354   1.030   3.479  0.3383 -0.0665 -0.4094
 5263TIP3   OH237203   1.502   0.154  15.040  0.0011 -0.0676 -0.1422
 5263TIP3    H137204   1.479   0.241  15.008  0.4061  0.5980  1.3518
 5263TIP3    H237205   1.444   0.140  15.115  1.2541 -0.2827  0.7994
 5264TIP3   OH237206   1.455   1.242  11.379  0.5794  0.0907 -0.2764
 5264TIP3    H137207   1.548   1.229  11.360  0.5063 -0.9738  0.0452
 5264TIP3    H237208   1.453   1.280  11.466  0.7368  0.7042 -0.5394
 5265TIP3   OH237209   4.848   4.425   1.659 -0.0223  0.3700 -0.2643
 5265TIP3    H137210   4.753   4.433   1.653  0.1152  1.9943 -0.3760
 5265TIP3    H237211   4.862   4.364   1.732 -1.1342  0.3789 -0.0361
 5266TIP3   OH237212   6.586   1.268  12.768  0.1611 -0.3307 -0.4757
 5266TIP3    H137213   6.499   1.236  12.794  1.5416 -2.5273  1.6000
 5266TIP3    H237214   6.629   1.290  12.851  1.6165  0.6395 -1.4750
 5267TIP3   OH237215   6.678   1.038   2.822  0.3973 -0.2189 -0.0260
 5267TIP3    H137216   6.676   1.131   2.802 -0.6080 -0.4784 -1.1454
 5267TIP3    H237217   6.764   1.024   2.863 -0.1240  1.5084  1.7146
 5268TIP3   OH237218   1.273   2.399   1.335  0.1063  0.6410 -0.9478
 5268TIP3    H137219   1.234   2.384   1.249  1.9715  0.2740 -1.7561
 5268TIP3    H237220   1.367   2.390   1.321  0.4303  0.2799  1.1924
 5269TIP3   OH237221   0.068   6.617   4.633 -0.2024  0.5994 -0.1459
 5269TIP3    H137222   0.147   6.580   4.673  0.6691  0.4169 -2.0165
 5269TIP3    H237223   0.090   6.628   4.541 -2.3485  0.6146 -0.6813
 5270TIP3   OH237224   1.887   2.499  17.214 -0.1830 -0.0374 -0.1179
 5270TIP3    H137225   1.953   2.552  17.259  0.9469 -2.7233  1.4874
 5270TIP3    H237226   1.808   2.508  17.266 -0.4170  1.2380 -0.6854
 5271TIP3   OH237227   1.236   3.909   5.651  0.1157  0.0904 -0.5217
 5271TIP3    H137228   1.162   3.848   5.651  0.3417 -0.1893  0.3700
 5271TIP3    H237229   1.206   3.982   5.596 -1.6941  0.9890  1.5547
 5272TIP3   OH237230   5.449   1.067  15.990 -0.0221  0.3592 -0.6627
 5272TIP3    H137231   5.375   1.114  15.952  1.0618  2.2443 -0.4767
 5272TIP3    H237232   5.526   1.099  15.942  0.9975  0.5179  1.0303
 5273TIP3   OH237233   3.330   3.532   3.758  0.6297  0.2473  0.3292
 5273TIP3    H137234   3.408   3.586   3.745  0.6632  1.1896  3.8323
 5273TIP3    H237235   3.363   3.451   3.797 -0.0042  0.1239  0.6204
 5274TIP3   OH237236   4.811   4.884  17.230 -0.2477  0.1665  0.1415
 5274TIP3    H137237   4.830   4.912  17.141  0.5321  1.3049  0.6464
 5274TIP3    H237238   4.895   4.893  17.276 -1.3459  2.6595  1.7529
 5275TIP3   OH237239   1.645   4.745  12.666  0.5911 -0.1108  0.3516
 5275TIP3    H137240   1.591   4.814  12.704  0.9943 -0.0510  0.8168
 5275TIP3    H237241   1.678   4.784  12.585  0.2421 -0.0133  0.2511
 5276TIP3   OH237242   0.545   5.305  12.940  0.2429  0.4336 -0.1791
 5276TIP3    H137243   0.503   5.220  12.936  1.8730 -0.3505 -1.3548
 5276TIP3    H237244   0.475   5.366  12.965 -1.4450 -0.9050 -1.5265
 5277TIP3   OH237245   0.840   6.156  11.315 -0.1118  0.0919  0.4856
 5277TIP3    H137246   0.804   6.233  11.272 -1.7175 -1.2002 -0.5211
 5277TIP3    H237247   0.929   6.149  11.280  0.1030  1.5426  0.6901
 5278TIP3   OH237248   1.741   6.750   0.482  0.4257 -0.7958 -0.0620
 5278TIP3    H137249   1.664   6.780   0.531  0.7296 -0.0658 -0.0380
 5278TIP3    H237250   1.713   6.667   0.444  0.0059 -1.1100  0.9099
 5279TIP3   OH237251   6.103   0.144   1.445  0.2493 -0.6587 -0.1810
 5279TIP3    H137252   6.105   0.227   1.493 -0.3966 -0.3904 -0.6234
 5279TIP3    H237253   6.188   0.140   1.400  0.2024 -0.1520 -0.3108
 5280TIP3   OH237254   5.045   2.694  14.149  0.4744 -0.5995  0.1436
 5280TIP3    H137255   5.137   2.675  14.132  0.5243 -1.2554  1.1001
 5280TIP3    H237256   5.019   2.629  14.214 -0.2657  0.5354  0.9866
 5281TIP3   OH237257   6.564   5.087  12.756  0.1838  0.4250 -0.1224
 5281TIP3    H137258   6.599   5.004  12.788  0.6141  1.6152  2.5917
 5281TIP3    H237259   6.637   5.148  12.763 -0.3674  1.2408 -1.3441
 5282TIP3   OH237260   5.041   2.442  10.529  0.3195 -0.3802 -0.6032
 5282TIP3    H137261   4.983   2.431  10.604  0.5047 -2.3753 -0.7223
 5282TIP3    H237262   5.034   2.360  10.480  1.4414  0.2551 -1.8928
 5283TIP3   OH237263   5.829   1.442   2.612 -0.3277 -0.0406 -0.0545
 5283TIP3    H137264   5.771   1.498   2.664 -1.4817 -0.4660 -0.8641
 5283TIP3    H237265   5.772   1.373   2.578  0.5405 -0.1586 -1.3098
 5284TIP3   OH237266   0.800   5.849  10.880  0.1663  0.6559  0.7380
 5284TIP3    H137267   0.877   5.880  10.928  0.0001  1.4183  0.5081
 5284TIP3    H237268   0.831   5.771  10.834  1.0012  1.3687  0.0712
 5285TIP3   OH237269   3.604   4.424   1.870  0.2989  0.2817 -0.2809
 5285TIP3    H137270   3.521   4.432   1.918  0.1072 -0.2674 -0.5209
 5285TIP3    H237271   3.584   4.456   1.782  0.4338  0.4862 -0.2373
 5286TIP3   OH237272   3.981   5.021  14.871 -0.2650 -0.3273 -0.2191
 5286TIP3    H137273   3.931   5.001  14.792  2.3334 -1.5367 -1.5999
 5286TIP3    H237274   4.060   5.065  14.839  0.9210 -1.0354  1.6526
 5287TIP3   OH237275   4.045   4.636  14.876 -0.6394  0.0071  0.9257
 5287TIP3    H137276   4.073   4.556  14.831  1.4973 -0.0970  2.3970
 5287TIP3    H237277   4.057   4.705  14.811  0.5247 -0.4162  0.6774
 5288TIP3   OH237278   2.045   4.236  13.456 -0.2758  0.4216  0.6509
 5288TIP3    H137279   1.996   4.154  13.457 -0.3760  0.4463 -0.8251
 5288TIP3    H237280   2.015   4.281  13.377 -1.1912  2.4931  2.1318
 5289TIP3   OH237281   6.569   5.553   5.316  0.3798  0.3824  0.4216
 5289TIP3    H137282   6.623   5.520   5.388  1.2128  1.4947  0.3234
 5289TIP3    H237283   6.631   5.591   5.254 -0.2794 -1.1998 -1.2558
 5290TIP3   OH237284   4.942   5.728   4.363 -0.1703  0.5878  0.4499
 5290TIP3    H137285   5.028   5.736   4.321  0.0146 -0.6653  0.5459
 5290TIP3    H237286   4.955   5.764   4.451 -0.2907  2.2677 -0.2011
 5291TIP3   OH237287   1.398   0.121   5.982  0.2657 -0.1144 -0.2824
 5291TIP3    H137288   1.376   0.192   6.042 -3.9892 -1.6927  0.2381
 5291TIP3    H237289   1.440   0.055   6.036 -2.9896 -1.2665  0.9788
 5292TIP3   OH237290   3.359   2.874   3.262 -0.0696 -0.6730 -0.4404
 5292TIP3    H137291   3.291   2.854   3.327  0.4999 -0.6145  0.1711
 5292TIP3    H237292   3.336   2.819   3.186  1.2833 -3.3990  1.0801
 5293TIP3   OH237293   0.379   5.330   1.282  0.0810  0.2506 -0.3299
 5293TIP3    H137294   0.300   5.378   1.306  0.0091 -0.3234  0.6089
 5293TIP3    H237295   0.368   5.244   1.322  0.3120 -0.4719 -1.8122
 5294TIP3   OH237296   1.475   5.292   2.668 -0.2380 -0.2490 -0.2651
 5294TIP3    H137297   1.478   5.357   2.738  0.3175 -0.4903 -0.0652
 5294TIP3    H237298   1.531   5.328   2.599  0.3992 -0.6985  0.0073
 5295TIP3   OH237299   2.240   6.235   3.680 -0.5333 -0.2320  0.3612
 5295TIP3    H137300   2.261   6.322   3.715  0.8751 -0.7958  0.9661
 5295TIP3    H237301   2.325   6.192   3.672 -1.2479 -1.6431  0.2920
 5296TIP3   OH237302   4.647   1.494   5.665  0.5100 -0.2628  0.1844
 5296TIP3    H137303   4.644   1.400   5.686  0.7982 -0.7959 -2.0159
 5296TIP3    H237304   4.557   1.517   5.645  0.4026 -0.0028  0.9419
 5297TIP3   OH237305   6.320   4.993  10.908 -0.3180  0.0891 -0.1823
 5297TIP3    H137306   6.311   4.900  10.886 -2.5145  0.8149 -2.6014
 5297TIP3    H237307   6.403   5.019  10.867  0.1402 -0.7321  0.2255
 5298TIP3   OH237308   3.617   2.669  13.031  0.4395 -1.1925 -1.0198
 5298TIP3    H137309   3.555   2.626  12.971 -0.7223  0.5728 -1.0892
 5298TIP3    H237310   3.576   2.752  13.053  1.6760 -1.0718  0.8791
 5299TIP3   OH237311   5.152   6.409   1.867 -0.1661  0.2410  0.3234
 5299TIP3    H137312   5.246   6.400   1.853  0.2220  0.8907  2.3181
 5299TIP3    H237313   5.143   6.494   1.910 -1.6699  0.2011  0.0972
 5300TIP3   OH237314   6.571   0.509  15.009 -0.8163 -0.4162 -0.0054
 5300TIP3    H137315   6.606   0.484  15.094  0.0014  1.0716  0.1140
 5300TIP3    H237316   6.642   0.560  14.968 -0.7739 -2.0592 -2.0318
 5301TIP3   OH237317   5.916   2.219   3.771  0.1271 -0.1222  0.4808
 5301TIP3    H137318   5.849   2.212   3.703 -0.5656 -2.2722  1.3530
 5301TIP3    H237319   5.870   2.201   3.852  1.6335 -1.0444  1.1553
 5302TIP3   OH237320   2.345   0.640  16.207 -0.4364  0.1974  0.5794
 5302TIP3    H137321   2.419   0.658  16.264  0.0541  0.9237 -0.2811
 5302TIP3    H237322   2.320   0.550  16.228  1.9942 -0.7779 -0.5906
 5303TIP3   OH237323   2.226   5.154   2.968 -0.0515 -0.4426 -0.2659
 5303TIP3    H137324   2.152   5.194   2.924 -1.6771 -3.5026 -0.4740
 5303TIP3    H237325   2.275   5.227   3.006 -2.0929  1.7621 -1.7823
 5304TIP3   OH237326   3.664   6.032  10.846  0.5962  0.1662  0.2582
 5304TIP3    H137327   3.619   6.042  10.762  0.3568 -0.0593  0.3597
 5304TIP3    H237328   3.653   6.117  10.889  2.5378  0.9771 -0.8274
 5305TIP3   OH237329   2.302   0.004  11.349 -0.1107  1.0435  0.0880
 5305TIP3    H137330   2.297   0.043  11.262 -0.0179  0.4936 -0.1600
 5305TIP3    H237331   2.312  -0.090  11.334  0.0650  0.9609  0.6900
 5306TIP3   OH237332   6.260   3.217  13.686  0.0948 -0.0696  0.3079
 5306TIP3    H137333   6.176   3.203  13.732  0.6227 -0.1315  1.2760
 5306TIP3    H237334   6.242   3.288  13.625 -0.0112  1.6329  2.2661
 5307TIP3   OH237335   0.143   0.127  15.033 -0.4250 -0.2600  0.1661
 5307TIP3    H137336   0.078   0.163  15.093 -0.3776 -0.1700  0.1636
 5307TIP3    H237337   0.115   0.156  14.946  1.6997  2.9763  0.4756
 5308TIP3   OH237338   4.725   2.336  14.971 -0.7344 -0.4336  0.5305
 5308TIP3    H137339   4.732   2.423  14.932 -0.4719 -0.0544  1.4157
 5308TIP3    H237340   4.631   2.318  14.974 -0.6895 -1.3741 -2.2420
 5309TIP3   OH237341   3.862   3.635   2.817  0.3126  0.4613  0.2622
 5309TIP3    H137342   3.825   3.655   2.731 -0.8444 -1.4395  0.2995
 5309TIP3    H237343   3.949   3.599   2.797  0.0617  0.0576 -0.0996
 5310TIP3   OH237344   1.986   4.926   2.979  0.0776  0.0442 -0.2078
 5310TIP3    H137345   1.983   4.991   3.050 -2.5430 -0.2171 -0.0288
 5310TIP3    H237346   1.983   4.842   3.024  0.3304 -0.1553 -0.5662
 5311TIP3   OH237347   4.095   1.265   5.153  0.2257  0.2418  0.1429
 5311TIP3    H137348   4.159   1.258   5.083  0.3231 -1.8371  0.4092
 5311TIP3    H237349   4.013   1.233   5.114  0.1797 -0.5111  0.8538
 5312TIP3   OH237350   4.283   2.687   0.701 -0.0337 -0.0085  0.8182
 5312TIP3    H137351   4.225   2.696   0.777 -1.3254  0.8442 -0.2402
 5312TIP3    H237352   4.223   2.679   0.627  1.2190  0.4991 -0.2556
 5313TIP3   OH237353   5.412   0.148  11.388  0.4925  0.3224  0.4971
 5313TIP3    H137354   5.419   0.161  11.482  1.3842 -0.2866  0.5197
 5313TIP3    H237355   5.501   0.126  11.360  0.4954  1.7341 -0.6702
 5314TIP3   OH237356   1.946   6.494  12.677  0.5246 -0.4299  0.3835
 5314TIP3    H137357   1.892   6.434  12.728  0.0176 -0.4368 -0.1546
 5314TIP3    H237358   1.960   6.569  12.736 -0.8446 -0.0200  0.2186
 5315TIP3   OH237359   0.725   1.448   6.394 -0.1038 -0.0728 -0.0731
 5315TIP3    H137360   0.668   1.404   6.457  1.7800 -1.0159  1.0202
 5315TIP3    H237361   0.737   1.383   6.323 -1.1852  0.5025 -0.7899
 5316TIP3   OH237362   4.491   4.436  10.596  0.1470  0.3609 -0.7764
 5316TIP3    H137363   4.404   4.446  10.634  0.1974  0.3547 -0.6607
 5316TIP3    H237364   4.542   4.509  10.631  0.1935  0.3544 -0.8283
 5317TIP3   OH237365   1.614   0.560   6.322  0.3634  0.1496 -0.3178
 5317TIP3    H137366   1.597   0.483   6.376  2.8246 -0.5889 -0.5718
 5317TIP3    H237367   1.526   0.592   6.299 -0.6949 -1.8716  0.7517
 5318TIP3   OH237368   3.015   4.763  15.999 -1.0242  0.5245  0.3877
 5318TIP3    H137369   2.987   4.782  15.909 -4.4797 -0.6194  1.1537
 5318TIP3    H237370   2.938   4.782  16.052 -0.2587 -2.5616  2.6863
 5319TIP3   OH237371   3.120   4.547  10.505 -0.2707  0.0401  0.5923
 5319TIP3    H137372   3.044   4.603  10.496 -0.3346 -0.2026 -0.5016
 5319TIP3    H237373   3.163   4.575  10.585 -0.5316  1.3691  0.2658
 5320TIP3   OH237374   1.261   4.876  14.167  0.5661 -0.4371  0.1254
 5320TIP3    H137375   1.277   4.862  14.074 -2.5436 -0.8747 -0.3920
 5320TIP3    H237376   1.329   4.826  14.212  0.2832 -2.6635 -1.8843
 5321TIP3   OH237377   5.756   2.885   4.302  0.1788  0.3412 -0.0137
 5321TIP3    H137378   5.740   2.969   4.344 -0.6203  0.2828 -0.1867
 5321TIP3    H237379   5.747   2.821   4.373 -0.5589  0.2922 -0.1524
 5322TIP3   OH237380   5.981   1.156  13.880  0.2274 -0.2622  0.2730
 5322TIP3    H137381   5.930   1.237  13.880  0.1360 -0.3026 -1.1110
 5322TIP3    H237382   6.068   1.182  13.850  0.8708 -0.2907  2.0879
 5323TIP3   OH237383   2.516   1.146  14.434  0.1171  0.7826 -0.4714
 5323TIP3    H137384   2.516   1.217  14.498 -1.2030  0.7260 -0.3959
 5323TIP3    H237385   2.506   1.066  14.486 -1.1074  0.7477 -0.7456
 5324TIP3   OH237386   6.296   5.140   3.500  0.3751  0.1799 -0.3242
 5324TIP3    H137387   6.213   5.187   3.500  0.5618  0.5073 -0.1768
 5324TIP3    H237388   6.319   5.134   3.407 -0.3625 -0.8804 -0.4514
 5325TIP3   OH237389   5.750   3.186   0.419  0.2053  0.1624 -0.2628
 5325TIP3    H137390   5.671   3.174   0.471  1.1186 -0.8857  0.9162
 5325TIP3    H237391   5.719   3.191   0.328 -1.2375  0.2147  0.2251
 5326TIP3   OH237392   5.788   5.231   2.579  0.1368  0.8338  0.2444
 5326TIP3    H137393   5.786   5.148   2.627  2.3719  0.4371 -0.3036
 5326TIP3    H237394   5.874   5.268   2.598  0.3798  1.5276 -2.0186
 5327TIP3   OH237395   4.319   0.615  16.778  0.6451  0.4204 -0.3096
 5327TIP3    H137396   4.325   0.520  16.769  1.8299  0.4456  0.1676
 5327TIP3    H237397   4.409   0.643  16.797  0.2502  1.6022 -0.1749
 5328TIP3   OH237398   4.723   4.028  14.091  0.2141  0.0829 -0.0052
 5328TIP3    H137399   4.734   4.110  14.139 -1.3094 -0.3690  1.1480
 5328TIP3    H237400   4.765   3.963  14.146 -0.1061 -0.1795 -0.0717
 5329TIP3   OH237401   1.209   1.204   1.110 -0.0331 -0.5443 -0.3109
 5329TIP3    H137402   1.141   1.271   1.107 -1.8295 -2.2301  1.1815
 5329TIP3    H237403   1.290   1.252   1.127 -0.9921  1.4096 -1.1755
 5330TIP3   OH237404   0.659   6.696  16.899  0.1794 -0.0318 -0.0134
 5330TIP3    H137405   0.595   6.655  16.842  0.7710  0.0746 -0.7607
 5330TIP3    H237406   0.607   6.740  16.966 -0.5457  0.8725 -1.1654
 5331TIP3   OH237407   6.140   0.673  16.213  0.0387 -0.2373 -0.1130
 5331TIP3    H137408   6.054   0.670  16.255  0.0581 -1.6217 -0.1472
 5331TIP3    H237409   6.123   0.709  16.126 -0.4314 -0.0379  0.0583
 5332TIP3   OH237410   1.311   2.791   1.594 -0.1046 -0.6293  0.0723
 5332TIP3    H137411   1.355   2.848   1.531 -0.0647 -0.2817  0.4116
 5332TIP3    H237412   1.335   2.827   1.680  0.0202 -1.2323  0.2898
 5333TIP3   OH237413   0.114   2.219   3.163 -0.3037 -0.4061 -0.0191
 5333TIP3    H137414   0.119   2.167   3.083 -0.4914  0.0336 -0.3143
 5333TIP3    H237415   0.043   2.178   3.213 -0.7594 -0.1463 -0.4539
 5334TIP3   OH237416   5.111   5.211   1.458 -0.3753  0.7320 -0.0363
 5334TIP3    H137417   5.136   5.154   1.531 -0.5890  0.1175 -0.4396
 5334TIP3    H237418   5.178   5.197   1.392 -0.2001  1.2650  0.0240
 5335TIP3   OH237419   4.606   0.895   3.305 -1.0368  0.0853  0.0558
 5335TIP3    H137420   4.516   0.867   3.286 -0.5835 -1.8859  0.7478
 5335TIP3    H237421   4.606   0.914   3.399 -1.0662  1.4112 -0.2053
 5336TIP3   OH237422   5.221   4.406  12.422  0.0922  0.0935  0.2741
 5336TIP3    H137423   5.144   4.462  12.435 -0.0063  0.2021 -0.7314
 5336TIP3    H237424   5.293   4.467  12.409 -0.1226  0.0164 -1.4530
 5337TIP3   OH237425   5.122   5.960   3.039  0.3546  0.1987  0.2901
 5337TIP3    H137426   5.028   5.973   3.056  0.3315 -0.4138  0.6781
 5337TIP3    H237427   5.152   6.043   3.004 -0.1669  0.6748  0.9443
 5338TIP3   OH237428   5.593   3.949  16.365 -0.2068  0.0671  0.2622
 5338TIP3    H137429   5.572   3.885  16.434  0.8191  0.4531  0.9482
 5338TIP3    H237430   5.646   4.015  16.410 -0.8839  1.1684 -0.5389
 5339TIP3   OH237431   4.100   3.614   5.658 -0.3766 -0.1048 -0.2561
 5339TIP3    H137432   4.086   3.672   5.734  2.2094  0.8732 -0.4617
 5339TIP3    H237433   4.075   3.527   5.689  3.3938 -0.2560  2.7441
 5340TIP3   OH237434   6.076   3.644  15.366  0.7213 -0.1988  0.0161
 5340TIP3    H137435   5.992   3.649  15.412  1.0585 -0.4415  0.6673
 5340TIP3    H237436   6.068   3.706  15.294 -1.2794 -2.6545 -1.9812
 5341TIP3   OH237437   2.574   4.062   5.087  0.1414  1.0274  0.3406
 5341TIP3    H137438   2.600   4.018   5.168  0.1357 -0.4559 -0.4347
 5341TIP3    H237439   2.623   4.016   5.019 -2.7294 -0.3094 -0.8967
 5342TIP3   OH237440   5.776   4.029  16.599 -0.2780 -0.1769 -0.1456
 5342TIP3    H137441   5.752   4.121  16.611 -0.3002 -0.1892 -0.0953
 5342TIP3    H237442   5.752   3.986  16.681  1.0155  0.0370  0.3539
 5343TIP3   OH237443   1.991   3.955   1.057 -0.0854 -0.2800  0.6521
 5343TIP3    H137444   2.042   4.006   1.119 -1.7559  1.3207  0.7455
 5343TIP3    H237445   2.054   3.892   1.020  1.8424  1.3708  1.0383
 5344TIP3   OH237446   6.477   3.209  16.697 -0.3809  0.6920 -0.1538
 5344TIP3    H137447   6.460   3.229  16.789  0.9620  0.7146  0.0883
 5344TIP3    H237448   6.468   3.294  16.652 -0.2139  0.8325  0.0740
 5345TIP3   OH237449   5.471   6.121   4.992  0.2025  0.2892 -0.3674
 5345TIP3    H137450   5.392   6.082   4.955  1.0273 -1.0716 -0.7437
 5345TIP3    H237451   5.513   6.049   5.040  1.6155  0.7752 -0.8461
 5346TIP3   OH237452   0.771   2.904   1.115 -0.0101  0.2209  0.1097
 5346TIP3    H137453   0.731   2.987   1.141  0.1099  0.5172 -0.6300
 5346TIP3    H237454   0.726   2.880   1.035 -0.6143 -0.8571  0.7625
 5347TIP3   OH237455   4.200   6.172   5.434 -0.1615  0.3629 -0.3060
 5347TIP3    H137456   4.124   6.192   5.380  1.3335  1.0586 -2.2336
 5347TIP3    H237457   4.213   6.251   5.486  0.8217  1.3121 -1.9431
 5348TIP3   OH237458   0.339   0.571   1.445  0.5931 -0.7309  0.3217
 5348TIP3    H137459   0.257   0.558   1.491  0.7310 -2.0322  0.2045
 5348TIP3    H237460   0.404   0.523   1.496  1.6275  1.7102  1.3916
 5349TIP3   OH237461   2.289   1.976  16.927  0.2996  0.3470 -0.0327
 5349TIP3    H137462   2.255   1.907  16.984  1.2384  0.4964  0.7203
 5349TIP3    H237463   2.233   2.051  16.945  1.1620  0.6671  1.3796
 5350TIP3   OH237464   2.876   0.716   0.281  0.4497  0.2419  0.4103
 5350TIP3    H137465   2.817   0.738   0.353 -1.5916  0.2478 -1.2124
 5350TIP3    H237466   2.962   0.741   0.313 -0.3529 -0.0502  2.9729
 5351TIP3   OH237467   3.508   6.410  16.890  0.2030  0.0883  0.4351
 5351TIP3    H137468   3.571   6.470  16.850 -1.6095  0.8298 -1.3763
 5351TIP3    H237469   3.444   6.392  16.821 -0.1723 -2.6858  1.4256
 5352TIP3   OH237470   4.712   2.537  11.489  0.0780  0.2456 -0.3594
 5352TIP3    H137471   4.775   2.567  11.424 -0.5780 -0.6027 -1.3863
 5352TIP3    H237472   4.650   2.609  11.499  0.3187  0.4683 -0.4890
 5353TIP3   OH237473   2.462   1.710   4.276 -0.0466  0.0802 -0.1010
 5353TIP3    H137474   2.430   1.773   4.211 -1.8887  0.9670  1.6376
 5353TIP3    H237475   2.525   1.656   4.227 -2.3288 -0.1024 -2.9761
 5354TIP3   OH237476   5.955   6.717  10.869 -0.4866 -0.8581 -0.1951
 5354TIP3    H137477   6.037   6.688  10.828 -0.4317 -1.9252  0.6568
 5354TIP3    H237478   5.950   6.810  10.849  1.2847 -0.6412  0.3116
 5355TIP3   OH237479   2.130   3.561  14.089 -0.4631  0.0185  0.1694
 5355TIP3    H137480   2.207   3.574  14.034  1.5759 -0.6693  2.7645
 5355TIP3    H237481   2.108   3.468  14.079  0.2071 -0.2169  0.9181
 5356TIP3   OH237482   5.290   0.601  14.005  0.2573  0.1918 -0.5761
 5356TIP3    H137483   5.244   0.568  13.928 -0.2104 -0.1142 -0.1720
 5356TIP3    H237484   5.306   0.693  13.986 -2.9785  1.0307  0.4069
 5357TIP3   OH237485   0.357   4.212  14.715  0.4479 -0.2201 -0.4374
 5357TIP3    H137486   0.432   4.153  14.725  0.2864 -0.0579  2.0380
 5357TIP3    H237487   0.385   4.276  14.651  1.6937 -1.3109 -1.0017
 5358TIP3   OH237488   2.323   3.762   5.091  0.3706 -0.5415  0.2891
 5358TIP3    H137489   2.328   3.855   5.111  2.5130 -0.9187  1.7554
 5358TIP3    H237490   2.231   3.745   5.075  0.0111  1.8884 -0.2928
 5359TIP3   OH237491   1.883   4.633   0.832  0.1163  0.2380 -0.1369
 5359TIP3    H137492   1.840   4.553   0.863  1.7027 -1.1111 -1.3153
 5359TIP3    H237493   1.849   4.645   0.743  0.4953  0.4061 -0.2588
 5360TIP3   OH237494   1.065   3.585  16.188  0.6583  0.1731 -0.4609
 5360TIP3    H137495   0.992   3.633  16.149 -1.2341 -1.0479  1.4242
 5360TIP3    H237496   1.049   3.591  16.282  1.9975 -1.6583 -0.1003
 5361TIP3   OH237497   3.744   5.835  14.243 -0.1462  0.0396 -0.0828
 5361TIP3    H137498   3.804   5.764  14.266 -0.0660  0.3732  0.7633
 5361TIP3    H237499   3.774   5.865  14.157  0.3818 -0.3466 -0.0360
 5362TIP3   OH237500   0.182   5.809   1.702 -0.2975  0.2439 -0.2160
 5362TIP3    H137501   0.273   5.787   1.725  0.1893  0.5059 -1.8777
 5362TIP3    H237502   0.187   5.898   1.667 -1.2396  0.3440 -0.1116
 5363TIP3   OH237503   4.128   6.750   1.880  0.7129 -0.1067 -0.4806
 5363TIP3    H137504   4.170   6.744   1.794 -0.5432  0.7797 -1.1554
 5363TIP3    H237505   4.035   6.757   1.862  0.2557 -1.6874  1.0192
 5364TIP3   OH237506   5.663   6.546  11.073  0.4187  0.0006 -0.2252
 5364TIP3    H137507   5.661   6.464  11.024  0.3899 -0.2898  0.2612
 5364TIP3    H237508   5.599   6.534  11.142  0.2496  0.5230 -0.2941
 5365TIP3   OH237509   6.406   3.289   4.815 -0.0393 -0.0582 -0.6458
 5365TIP3    H137510   6.433   3.197   4.814 -0.9085 -0.3087 -1.6635
 5365TIP3    H237511   6.449   3.328   4.738  0.2137  0.3633 -0.2974
 5366TIP3   OH237512   5.325   1.529  12.269  0.0330 -0.5714 -0.1933
 5366TIP3    H137513   5.331   1.434  12.284 -0.3567 -0.6386 -0.4360
 5366TIP3    H237514   5.380   1.544  12.192  1.9861 -0.2336  1.2501
 5367TIP3   OH237515   2.453   0.232   6.121  0.5296  0.2545 -0.2560
 5367TIP3    H137516   2.404   0.156   6.089 -1.4316  2.2168 -2.1226
 5367TIP3    H237517   2.430   0.239   6.213 -0.6889 -0.3581 -0.5018
 5368TIP3   OH237518   5.035   1.814  13.257 -0.3962 -0.0650 -0.1614
 5368TIP3    H137519   5.057   1.803  13.165 -1.7824 -0.5458 -0.4491
 5368TIP3    H237520   5.012   1.907  13.265 -1.2863 -0.2400 -0.5422
 5369TIP3   OH237521   6.747   1.532   6.320 -0.6156  0.4731  0.2729
 5369TIP3    H137522   6.696   1.540   6.240 -0.1224  1.3746  0.0424
 5369TIP3    H237523   6.814   1.599   6.313 -0.1902  0.1576  1.1666
 5370TIP3   OH237524   3.153   0.768   1.421 -0.0001 -0.0639  0.3571
 5370TIP3    H137525   3.064   0.767   1.458 -0.8484  0.6281 -1.5779
 5370TIP3    H237526   3.145   0.717   1.340  1.3883 -0.0600  0.2189
 5371TIP3   OH237527   3.133   4.039  11.818 -0.4029  0.2921  0.7918
 5371TIP3    H137528   3.120   3.961  11.765  0.2956 -0.5565  1.8362
 5371TIP3    H237529   3.175   4.101  11.759  0.3131 -0.6187  0.3278
 5372TIP3   OH237530   4.121   4.646   5.131 -0.0490 -0.2828 -0.7778
 5372TIP3    H137531   4.040   4.687   5.101  0.6549  1.1485 -0.7582
 5372TIP3    H237532   4.143   4.583   5.062 -1.3239 -0.8982 -0.6420
 5373TIP3   OH237533   5.709   0.443   1.625  0.2410 -0.3812 -0.0228
 5373TIP3    H137534   5.775   0.383   1.590  0.9538 -0.2833  1.1191
 5373TIP3    H237535   5.749   0.530   1.617  0.6436 -0.4094  1.5084
 5374TIP3   OH237536   1.531   3.325  14.399 -0.1627  0.5410 -0.4210
 5374TIP3    H137537   1.626   3.316  14.408 -0.0498  1.5652 -0.4828
 5374TIP3    H237538   1.496   3.244  14.434  0.8030 -0.5538 -1.8928
 5375TIP3   OH237539   1.377   0.662   6.261 -0.1232  0.3278  0.5412
 5375TIP3    H137540   1.312   0.592   6.259  0.3402 -0.0915 -0.1283
 5375TIP3    H237541   1.326   0.742   6.267 -0.8473  0.1854 -2.6751
 5376TIP3   OH237542   3.720   6.444  14.453 -0.3295  0.2992  0.1332
 5376TIP3    H137543   3.670   6.510  14.405 -2.2336 -0.5789  0.8632
 5376TIP3    H237544   3.667   6.424  14.530  0.6350 -1.4239  0.3791
 5377TIP3   OH237545   2.270   3.943  11.542  0.3635 -0.3611 -0.0585
 5377TIP3    H137546   2.197   3.986  11.498 -0.2481 -0.9326  0.3851
 5377TIP3    H237547   2.295   4.004  11.611 -0.2632 -0.5302  0.3318
 5378TIP3   OH237548   5.058   0.667  13.268  0.0376  0.0688  0.0112
 5378TIP3    H137549   4.978   0.633  13.307 -0.6991  1.5581 -0.1654
 5378TIP3    H237550   5.071   0.613  13.190  0.0917 -1.2120  0.8875
 5379TIP3   OH237551   1.237   2.897   0.459  0.7614 -0.5035 -0.1162
 5379TIP3    H137552   1.215   2.858   0.374  0.7390 -0.0154 -0.3340
 5379TIP3    H237553   1.289   2.830   0.503 -0.3702 -1.3007  0.0370
 5380TIP3   OH237554   2.387   0.187   0.786  0.0970 -1.2836 -0.1031
 5380TIP3    H137555   2.378   0.139   0.703 -0.6364 -0.3505 -0.5715
 5380TIP3    H237556   2.479   0.211   0.790 -0.1373 -0.1550 -1.3106
 5381TIP3   OH237557   5.165   3.968  11.440  0.2189  0.2003  0.4927
 5381TIP3    H137558   5.204   3.986  11.525  0.7689 -0.5023  0.3894
 5381TIP3    H237559   5.081   4.015  11.442  0.5453  0.7641  1.1449
 5382TIP3   OH237560   5.503   1.804   1.577  0.6461 -0.4343 -0.4928
 5382TIP3    H137561   5.430   1.857   1.607 -0.4206 -1.1457 -1.7738
 5382TIP3    H237562   5.581   1.848   1.612 -0.3816  0.3300  0.8722
 5383TIP3   OH237563   4.240   5.177   0.760 -0.3533 -0.6245  0.0265
 5383TIP3    H137564   4.205   5.126   0.833 -1.7495 -0.0074 -0.2008
 5383TIP3    H237565   4.310   5.230   0.798  0.0166 -1.4924  0.5818
 5384TIP3   OH237566   2.351   3.108  14.669 -0.3015 -0.4124  0.0985
 5384TIP3    H137567   2.300   3.171  14.719 -0.2385  1.1905 -1.7659
 5384TIP3    H237568   2.288   3.042  14.641 -0.9046  0.2782 -0.1888
 5385TIP3   OH237569   4.309   5.182  13.506 -0.3698 -0.6969  0.4578
 5385TIP3    H137570   4.220   5.154  13.526  0.3730 -2.4272  1.4565
 5385TIP3    H237571   4.322   5.260  13.559 -1.2238 -0.5309  0.4346
 5386TIP3   OH237572   1.940   3.579   1.798 -0.0447 -0.4850 -0.1030
 5386TIP3    H137573   1.887   3.634   1.855  0.6030 -0.1097  0.1297
 5386TIP3    H237574   2.005   3.638   1.761  1.3697 -1.3171  1.0310
 5387TIP3   OH237575   0.481   4.995  16.838 -0.0286  0.3287 -0.5015
 5387TIP3    H137576   0.555   5.056  16.838 -0.8288  1.3323  1.0648
 5387TIP3    H237577   0.520   4.910  16.817  1.3040  1.1405 -1.3790
 5388TIP3   OH237578   3.389   3.384   1.299 -0.9792  0.2176  0.2084
 5388TIP3    H137579   3.309   3.354   1.256 -0.5706  1.2173 -1.3195
 5388TIP3    H237580   3.459   3.360   1.238 -0.4221  2.0371  0.0997
 5389TIP3   OH237581   5.583   0.004  12.988 -0.1675 -0.7503 -0.0670
 5389TIP3    H137582   5.618   0.000  12.899 -2.3971 -1.2263 -0.9775
 5389TIP3    H237583   5.641   0.063  13.035  1.6129 -1.2558 -1.5768
 5390TIP3   OH237584   2.645   3.164  12.870  0.4751 -0.4869  0.2891
 5390TIP3    H137585   2.689   3.082  12.893 -0.1944 -0.5450  1.4378
 5390TIP3    H237586   2.565   3.137  12.825 -0.1826 -0.5016  1.4499
 5391TIP3   OH237587   6.767   2.781   2.179  0.4703  0.2134  0.0511
 5391TIP3    H137588   6.677   2.747   2.183 -0.0618  1.7509  2.0262
 5391TIP3    H237589   6.816   2.730   2.243  0.6629  0.3081 -0.0192
 5392TIP3   OH237590   2.213   6.616   0.412  0.2789  0.1852 -0.1481
 5392TIP3    H137591   2.196   6.597   0.320  0.9473 -1.4664  0.0622
 5392TIP3    H237592   2.126   6.630   0.450 -0.0538 -0.0485 -0.8244
 5393TIP3   OH237593   1.585   1.020  13.446  0.2327  0.0300 -0.2190
 5393TIP3    H137594   1.658   0.981  13.399  0.3369  1.0886 -0.9638
 5393TIP3    H237595   1.625   1.078  13.510  0.0562  0.3448 -0.3903
 5394TIP3   OH237596   4.046   0.392  13.235  0.1668  0.3836 -0.2930
 5394TIP3    H137597   4.089   0.345  13.306 -0.0171  0.2239 -0.2864
 5394TIP3    H237598   4.095   0.474  13.227  0.1007  0.4667  0.1120
 5395TIP3   OH237599   2.807   6.240   4.771 -0.3887 -0.4008  0.0084
 5395TIP3    H137600   2.770   6.302   4.707 -1.6136 -0.9621  0.1711
 5395TIP3    H237601   2.870   6.188   4.720 -2.7364 -2.1327 -1.2221
 5396TIP3   OH237602   4.924   5.489  13.990 -0.5666 -0.2930 -0.1538
 5396TIP3    H137603   4.900   5.451  14.075 -0.7683 -0.9717 -0.5068
 5396TIP3    H237604   5.011   5.453  13.972  0.0349  0.8690  0.3605
 5397TIP3   OH237605   6.281   0.839   0.602 -0.1661 -0.3327 -0.0050
 5397TIP3    H137606   6.216   0.870   0.539  0.9348  0.2838 -0.8547
 5397TIP3    H237607   6.246   0.862   0.688 -0.8335  0.4490 -0.4861
 5398TIP3   OH237608   2.234   3.230  12.892 -0.3888  0.4472 -0.0184
 5398TIP3    H137609   2.197   3.145  12.871 -0.2575  0.3045  0.3285
 5398TIP3    H237610   2.235   3.277  12.809  3.6047 -1.4308 -1.1791
 5399TIP3   OH237611   5.523   2.211   0.983  0.6259 -0.7625 -0.1395
 5399TIP3    H137612   5.482   2.126   0.968  0.7774 -0.7027 -0.9348
 5399TIP3    H237613   5.476   2.248   1.057 -0.8986 -0.6146 -1.1517
 5400TIP3   OH237614   5.803   5.810   0.641 -0.0899 -0.5387 -0.0507
 5400TIP3    H137615   5.773   5.739   0.584 -1.6367  1.2828 -1.5963
 5400TIP3    H237616   5.871   5.855   0.590 -0.0460 -0.1222  0.3688
 5401TIP3   OH237617   3.012   6.089   4.287  0.0808 -0.3888 -0.2152
 5401TIP3    H137618   2.948   6.029   4.325 -2.4435  0.9809 -2.1569
 5401TIP3    H237619   3.016   6.163   4.348 -0.5007 -0.2952 -0.2905
 5402TIP3   OH237620   3.789   4.248   6.317 -0.5742  0.4193  0.2787
 5402TIP3    H137621   3.705   4.271   6.357  0.4782  0.5868  2.4865
 5402TIP3    H237622   3.772   4.166   6.271 -2.0132  0.5903  0.4869
 5403TIP3   OH237623   1.442   3.567   4.416  0.5348 -0.3099  0.3146
 5403TIP3    H137624   1.355   3.538   4.442  0.4655  0.1202  0.5577
 5403TIP3    H237625   1.483   3.488   4.380 -0.4380 -0.2203 -1.0777
 5404TIP3   OH237626   0.287   1.043  11.724 -0.4339 -0.0524 -0.2454
 5404TIP3    H137627   0.224   1.107  11.758  0.2130  1.5388 -1.9649
 5404TIP3    H237628   0.352   1.096  11.678  0.8026 -1.8722 -0.6308
 5405TIP3   OH237629   1.589   3.654  11.765  0.1927 -0.0243 -0.4512
 5405TIP3    H137630   1.562   3.582  11.821  1.1753  1.2514  1.7322
 5405TIP3    H237631   1.626   3.719  11.825  0.3642  1.8199 -2.4707
 5406TIP3   OH237632   6.289   6.618   1.829  0.4996 -0.1333 -0.1586
 5406TIP3    H137633   6.345   6.540   1.825  2.0901  0.7813  2.6478
 5406TIP3    H237634   6.342   6.683   1.875 -0.6536  2.7798 -2.7337
 5407TIP3   OH237635   2.451   4.289   2.174 -0.1566 -0.1616  0.2972
 5407TIP3    H137636   2.362   4.291   2.207 -0.7337 -0.1366 -1.2238
 5407TIP3    H237637   2.502   4.336   2.239 -0.9173 -1.8669  2.1520
 5408TIP3   OH237638   3.272   5.332   3.367  0.4070  0.4762 -0.2190
 5408TIP3    H137639   3.185   5.309   3.398  0.3157 -0.7590 -1.3375
 5408TIP3    H237640   3.275   5.428   3.372 -0.2608  0.4187  1.7586
 5409TIP3   OH237641   2.626   4.782  14.685  0.1374 -0.2431 -0.0999
 5409TIP3    H137642   2.636   4.859  14.741  0.6203  0.2570 -0.8726
 5409TIP3    H237643   2.532   4.766  14.682  0.0427  0.2678  0.1208
 5410TIP3   OH237644   2.758   4.434   4.988 -0.1155 -0.1941  0.2152
 5410TIP3    H137645   2.767   4.345   4.953 -0.4316  0.0701 -0.5462
 5410TIP3    H237646   2.847   4.460   5.011  0.6779  1.0429 -3.9097
 5411TIP3   OH237647   6.409   6.183  12.654 -0.0408 -0.1702  0.7004
 5411TIP3    H137648   6.475   6.141  12.599 -0.0471 -0.7056  1.1018
 5411TIP3    H237649   6.437   6.274  12.660  0.0972 -0.1642  0.0170
 5412TIP3   OH237650   4.656   6.638   2.661 -0.2715  0.3127  0.3440
 5412TIP3    H137651   4.675   6.544   2.653 -1.3982  0.0968  0.1074
 5412TIP3    H237652   4.734   6.675   2.703  0.1401 -0.7438  0.5273
 5413TIP3   OH237653   1.968   3.393  16.653  0.1841  0.4647  0.0222
 5413TIP3    H137654   1.968   3.326  16.720  1.0170 -2.4605 -2.8005
 5413TIP3    H237655   2.053   3.385  16.610 -1.3141  0.4690 -3.0693
 5414TIP3   OH237656   5.642   2.359  13.625 -0.4480 -0.2001  0.2943
 5414TIP3    H137657   5.714   2.359  13.688  0.3433  0.6219 -0.5876
 5414TIP3    H237658   5.585   2.431  13.651  0.1373  0.4515 -0.2057
 5415TIP3   OH237659   5.017   3.464  12.777 -0.1425  0.4857  0.0509
 5415TIP3    H137660   5.095   3.488  12.727 -0.3541 -0.0866 -0.5615
 5415TIP3    H237661   5.028   3.371  12.796  0.5723  0.9709  2.2306
 5416TIP3   OH237662   6.092   6.298   5.681  0.1049  0.2999 -0.0027
 5416TIP3    H137663   6.115   6.378   5.634  0.6654 -0.8075 -1.6537
 5416TIP3    H237664   6.132   6.309   5.768 -0.3573  2.0661  0.0060
 5417TIP3   OH237665   4.350   1.860  10.628  0.6306 -0.2158  0.1622
 5417TIP3    H137666   4.323   1.911  10.704  1.4986  0.6148 -0.0851
 5417TIP3    H237667   4.442   1.883  10.615 -0.2541  1.8809 -2.8810
 5418TIP3   OH237668   3.931   0.019  12.738  0.2620  0.1211 -0.7264
 5418TIP3    H137669   4.015  -0.025  12.723  0.6209  0.3431  0.6257
 5418TIP3    H237670   3.865  -0.048  12.718  0.7633 -0.1448 -1.4948
 5419TIP3   OH237671   3.053   4.172  15.776  0.3157 -0.6650 -0.0534
 5419TIP3    H137672   3.062   4.107  15.707 -1.1002 -0.4789 -0.4334
 5419TIP3    H237673   2.993   4.238  15.740  1.5096  0.7250  0.4262
 5420TIP3   OH237674   0.030   5.343   6.604 -0.3293 -0.4375 -0.6687
 5420TIP3    H137675  -0.050   5.330   6.656 -0.3708  0.2066 -0.5723
 5420TIP3    H237676   0.085   5.269   6.628 -2.0893 -2.6050 -3.0154
 5421TIP3   OH237677   2.678   3.336  13.793 -0.2978 -0.2451 -0.2286
 5421TIP3    H137678   2.669   3.328  13.888 -0.3496  1.8268 -0.0263
 5421TIP3    H237679   2.765   3.375  13.781 -0.0093 -1.1323 -1.0811
 5422TIP3   OH237680   4.072   2.035  15.457  0.3105  0.0918  0.4493
 5422TIP3    H137681   4.058   2.031  15.552  2.2361 -0.7092  0.7111
 5422TIP3    H237682   4.146   2.095  15.447  0.6643 -0.5081 -0.4978
 5423TIP3   OH237683   3.386   2.990   2.595  0.1488 -0.0094  0.2124
 5423TIP3    H137684   3.327   2.918   2.576  0.1970  0.4772 -1.8862
 5423TIP3    H237685   3.473   2.956   2.575  0.2470  0.3679 -0.0135
 5424TIP3   OH237686   3.196   2.764   2.561 -0.4693 -0.1389  0.3873
 5424TIP3    H137687   3.174   2.756   2.654  1.6660  0.0956  0.9409
 5424TIP3    H237688   3.229   2.678   2.536  4.0617  1.2210  1.2973
 5425TIP3   OH237689   6.327   1.842   3.799  0.2121 -0.4483 -0.3290
 5425TIP3    H137690   6.419   1.838   3.824  0.4144 -0.7229 -1.1260
 5425TIP3    H237691   6.280   1.837   3.883  0.8715 -2.1584 -0.0325
 5426TIP3   OH237692   4.026   0.800   5.357  0.2997  0.3450  0.2266
 5426TIP3    H137693   4.013   0.810   5.451 -2.0835  1.8785 -0.2241
 5426TIP3    H237694   3.984   0.877   5.319  0.7178 -0.5514 -2.1376
 5427TIP3   OH237695   5.357   3.837  11.301 -0.2718  0.2314  1.0185
 5427TIP3    H137696   5.278   3.883  11.330 -1.2947 -0.6083 -0.3622
 5427TIP3    H237697   5.422   3.906  11.288 -0.7425  0.9211  2.2579
 5428TIP3   OH237698   5.544   5.567  14.291 -0.0246 -0.2846 -0.1905
 5428TIP3    H137699   5.557   5.657  14.261 -0.2526 -0.4862 -0.9049
 5428TIP3    H237700   5.453   5.548  14.269 -1.1895  0.6284  3.4840
 5429TIP3   OH237701   4.162   3.956   1.241  0.4527  0.0807 -0.0872
 5429TIP3    H137702   4.208   3.888   1.190 -0.3334 -1.4158  1.1563
 5429TIP3    H237703   4.150   4.027   1.179  0.3733 -1.3315 -1.7449
 5430TIP3   OH237704   3.019   4.137   3.664 -0.1863 -0.6629  0.3067
 5430TIP3    H137705   3.006   4.044   3.646 -2.8458 -0.1616 -0.5579
 5430TIP3    H237706   3.071   4.169   3.590 -1.9245 -0.8533 -1.0391
 5431TIP3   OH237707   6.254   2.174  12.215  0.6000 -0.5162 -0.8194
 5431TIP3    H137708   6.216   2.121  12.285  0.8842  0.0027 -0.2592
 5431TIP3    H237709   6.320   2.228  12.259  0.7920 -0.1925 -1.4908
 5432TIP3   OH237710   6.212   6.001  15.087  0.4497  0.4734  0.1425
 5432TIP3    H137711   6.187   6.092  15.075 -0.0969  0.0885 -1.9714
 5432TIP3    H237712   6.300   5.995  15.050  0.3555  0.0885 -0.0215
 5433TIP3   OH237713   4.619   5.537   0.339 -0.2097  0.4805  0.1566
 5433TIP3    H137714   4.530   5.509   0.359  0.0035 -0.1394  0.2253
 5433TIP3    H237715   4.670   5.456   0.330  1.0976  0.8478  3.5638
 5434TIP3   OH237716   1.235   1.980  10.964  0.1669 -0.2019  0.1728
 5434TIP3    H137717   1.167   1.989  10.898 -0.8779  1.9710  1.4933
 5434TIP3    H237718   1.309   1.941  10.918 -1.4894 -1.3038 -1.5968
 5435TIP3   OH237719   3.682   4.666  12.774  0.0887  0.3364  0.8592
 5435TIP3    H137720   3.708   4.635  12.860 -3.1734 -0.2799  1.7116
 5435TIP3    H237721   3.648   4.588  12.729  0.6151  0.8832 -0.5264
 5436TIP3   OH237722   6.083   0.989   0.437  0.1176  0.2328  0.0315
 5436TIP3    H137723   6.157   0.973   0.379  0.2040  2.2077 -0.4472
 5436TIP3    H237724   6.085   1.084   0.453 -3.0152  0.5418 -0.9805
 5437TIP3   OH237725   1.839   2.173  11.691  0.0195 -0.6518 -0.0725
 5437TIP3    H137726   1.915   2.231  11.688  1.6609 -2.7725 -0.3106
 5437TIP3    H237727   1.831   2.138  11.603  0.1025 -2.1028  0.4781
 5438TIP3   OH237728   5.519   4.913  16.945 -0.0083 -0.1247 -0.5362
 5438TIP3    H137729   5.505   4.979  16.877  2.1194  1.0609  0.1546
 5438TIP3    H237730   5.569   4.844  16.902  1.4785  0.6999 -0.1590
 5439TIP3   OH237731   2.965   1.700  11.793  0.6225  0.8793  0.1692
 5439TIP3    H137732   3.055   1.677  11.816  1.3500  1.5650 -1.9199
 5439TIP3    H237733   2.911   1.648  11.853  2.3829 -0.2949  0.7672
 5440TIP3   OH237734   2.780   5.312  15.826  0.1189  0.4146 -0.3784
 5440TIP3    H137735   2.725   5.346  15.897 -0.2541  0.3247 -0.6237
 5440TIP3    H237736   2.719   5.299  15.753 -0.0026 -2.1578  0.1582
 5441TIP3   OH237737   1.031   2.506  11.182 -0.3531 -0.0587 -0.4856
 5441TIP3    H137738   1.087   2.458  11.242 -1.2955 -0.1914  0.3034
 5441TIP3    H237739   0.973   2.440  11.144 -0.3263  0.1517 -0.8984
 5442TIP3   OH237740   5.229   5.850   4.048 -0.6272 -0.0798 -0.2683
 5442TIP3    H137741   5.227   5.946   4.050  0.3094 -0.0787  1.9613
 5442TIP3    H237742   5.320   5.829   4.029 -0.2413 -0.5211  1.9783
 5443TIP3   OH237743   2.403   4.797   5.403  0.2401  0.1949  0.7459
 5443TIP3    H137744   2.452   4.879   5.415 -0.0148  0.3349  0.8149
 5443TIP3    H237745   2.407   4.781   5.309 -0.0888  0.5183  0.6762
 5444TIP3   OH237746   6.048   0.593   5.351 -0.2522  0.0054  0.4721
 5444TIP3    H137747   5.992   0.660   5.392  0.7850  0.1346  1.6854
 5444TIP3    H237748   6.118   0.643   5.310  0.6471 -0.3328  1.5652
 5445TIP3   OH237749   1.196   4.738   5.916  0.2010 -0.4582 -0.0934
 5445TIP3    H137750   1.206   4.652   5.873 -3.7384 -0.3666 -1.5007
 5445TIP3    H237751   1.240   4.728   6.000  3.8489 -2.3063 -2.0805
 5446TIP3   OH237752   5.992   6.746   3.159 -0.1051 -0.3254  0.3801
 5446TIP3    H137753   5.961   6.743   3.069 -1.0366  0.2054  0.6742
 5446TIP3    H237754   6.088   6.751   3.152 -0.1058 -1.5374 -0.5420
 5447TIP3   OH237755   1.801   6.472   4.550  0.2083 -0.1188 -0.2817
 5447TIP3    H137756   1.719   6.423   4.550 -0.5559  1.1398 -0.9399
 5447TIP3    H237757   1.860   6.419   4.496 -0.8055  0.0087 -1.5444
 5448TIP3   OH237758   5.059   1.066   0.617 -0.3024  0.8202 -0.1020
 5448TIP3    H137759   5.154   1.057   0.621 -0.3247  0.1976 -0.7212
 5448TIP3    H237760   5.032   1.081   0.708  0.1320 -1.7955  0.5091
 5449TIP3   OH237761   3.173   2.029   3.917  0.6911 -0.6354 -0.0528
 5449TIP3    H137762   3.173   1.963   3.848  0.2413  0.6281 -1.2855
 5449TIP3    H237763   3.264   2.036   3.944  0.8061 -1.4547 -0.2176
 5450TIP3   OH237764   2.804   4.723  14.352 -0.6291 -0.0127  1.1356
 5450TIP3    H137765   2.716   4.692  14.332 -0.6606  0.5180  0.4332
 5450TIP3    H237766   2.844   4.738  14.266  0.0995 -0.1315  1.4527
 5451TIP3   OH237767   4.839   4.399  11.529  1.0377  0.4113  0.2288
 5451TIP3    H137768   4.780   4.438  11.464  0.1394  0.4522  1.0464
 5451TIP3    H237769   4.788   4.328  11.568  1.9885 -0.3637  0.0746
 5452TIP3   OH237770   0.650   2.504   5.139 -0.2917 -0.7672 -0.2526
 5452TIP3    H137771   0.566   2.491   5.094 -0.1722  0.0090 -0.7014
 5452TIP3    H237772   0.627   2.507   5.232 -0.6996 -1.0534 -0.3397
 5453TIP3   OH237773   3.793   5.280   3.687 -0.0837  0.0347  0.1212
 5453TIP3    H137774   3.837   5.266   3.771  0.9396 -1.4796 -0.6523
 5453TIP3    H237775   3.699   5.275   3.709  0.1672 -3.6612  0.6817
 5454TIP3   OH237776   4.658   5.071   4.005 -0.8160 -0.2164 -0.2269
 5454TIP3    H137777   4.655   5.102   3.915 -0.3199  1.2190  0.2533
 5454TIP3    H237778   4.714   5.132   4.051 -1.2794 -0.7781  1.1307
 5455TIP3   OH237779   5.253   6.703   3.906  0.0451  0.0767 -0.0962
 5455TIP3    H137780   5.234   6.613   3.880 -1.0247  0.3421 -0.2868
 5455TIP3    H237781   5.238   6.705   4.001 -2.0219  0.5324 -0.3952
 5456TIP3   OH237782   3.349   2.431   0.312 -0.0546 -0.6178  0.0992
 5456TIP3    H137783   3.359   2.362   0.246  1.8223  1.8476 -2.3571
 5456TIP3    H237784   3.265   2.472   0.292  0.2722 -0.2113 -0.4762
 5457TIP3   OH237785   6.521   2.214   2.859  0.2810  0.0988  0.4359
 5457TIP3    H137786   6.479   2.218   2.773 -1.4768  1.8738  1.3309
 5457TIP3    H237787   6.599   2.270   2.851 -0.7669  1.5783  0.4458
 5458TIP3   OH237788   4.356   1.073  12.946  0.8838 -0.2978 -0.4198
 5458TIP3    H137789   4.439   1.047  12.905  0.4764 -3.2693  0.5380
 5458TIP3    H237790   4.288   1.034  12.891  0.2846 -2.5757  1.8643
 5459TIP3   OH237791   6.375   6.738  13.014  0.3328 -0.4043 -0.3661
 5459TIP3    H137792   6.447   6.714  12.956  0.3978  1.4524 -1.1062
 5459TIP3    H237793   6.305   6.764  12.955 -0.6984 -1.4659  0.3667
 5460TIP3   OH237794   3.914   3.997   6.734 -0.2252  0.5858 -0.2999
 5460TIP3    H137795   3.937   4.031   6.821 -0.7237 -0.0064  0.0684
 5460TIP3    H237796   3.820   3.981   6.739 -0.2910  0.7385 -1.0195
 5461TIP3   OH237797   2.438   6.395   4.069  0.1521  0.9852 -0.7103
 5461TIP3    H137798   2.480   6.326   4.017  0.3316  1.5091 -1.2694
 5461TIP3    H237799   2.463   6.376   4.159 -0.5521 -0.2115 -0.7574
 5462TIP3   OH237800   5.277   0.703  16.560  0.0898  0.2542 -0.4209
 5462TIP3    H137801   5.276   0.762  16.635  1.1772  0.3176 -0.4443
 5462TIP3    H237802   5.340   0.742  16.500  0.8251 -0.9153 -0.4341
 5463TIP3   OH237803   5.460   2.960  12.705  0.0329  0.0574  0.0580
 5463TIP3    H137804   5.409   2.895  12.753  0.7108  0.0424  0.7649
 5463TIP3    H237805   5.528   2.987  12.766  0.3096  0.7603 -0.5569
 5464TIP3   OH237806   5.554   4.420   2.029 -0.4283 -0.7737  0.7397
 5464TIP3    H137807   5.488   4.480   2.063  0.1166 -0.0945  0.6211
 5464TIP3    H237808   5.583   4.370   2.105 -1.4597 -1.4419  0.6899
 5465TIP3   OH237809   0.721   5.440  14.974  0.8377  0.7473 -0.4083
 5465TIP3    H137810   0.695   5.353  15.004  0.1251  0.8761 -0.6361
 5465TIP3    H237811   0.769   5.424  14.894  2.8019  0.3932  0.8090
 5466TIP3   OH237812   3.506   0.507   1.133  0.3876 -0.6471  0.5296
 5466TIP3    H137813   3.416   0.486   1.107  0.1591 -0.3544  1.0851
 5466TIP3    H237814   3.498   0.587   1.185  0.8001 -1.4348  1.8126
 5467TIP3   OH237815   5.215   1.416  13.937 -0.4569 -0.0200  0.2048
 5467TIP3    H137816   5.285   1.479  13.919 -0.2835 -0.1610  0.3779
 5467TIP3    H237817   5.141   1.446  13.885  1.0486 -2.3821 -3.4958
 5468TIP3   OH237818   4.389   0.405  11.744 -0.3573 -0.2732  0.4157
 5468TIP3    H137819   4.427   0.375  11.827 -0.4074 -1.3966  0.0329
 5468TIP3    H237820   4.295   0.392  11.755 -0.4685  0.6084  0.5888
 5469TIP3   OH237821   4.060   3.209  11.675 -0.2647 -0.3777  0.7011
 5469TIP3    H137822   4.028   3.281  11.620  0.4679  0.1993  1.0102
 5469TIP3    H237823   4.151   3.234  11.696  0.8634 -2.6155 -1.2933
 5470TIP3   OH237824   3.158   1.889  16.991 -0.6746 -0.1067 -0.5936
 5470TIP3    H137825   3.253   1.896  17.003 -0.7666 -1.4504  1.2370
 5470TIP3    H237826   3.147   1.862  16.900  0.7155 -0.2367 -0.7362
 5471TIP3   OH237827   4.377   3.834   5.579 -0.3875  0.2336  0.1693
 5471TIP3    H137828   4.378   3.916   5.530  0.0637 -0.9660 -1.9130
 5471TIP3    H237829   4.297   3.790   5.552 -1.0251  0.3012  1.8648
 5472TIP3   OH237830   3.997   3.585  12.195 -0.4986  0.1730  0.6391
 5472TIP3    H137831   3.995   3.665  12.142 -0.2256  0.8860  1.6696
 5472TIP3    H237832   4.085   3.583  12.231 -0.0786 -1.3153 -0.4283
 5473TIP3   OH237833   4.712   6.291  13.765  0.0007 -0.2579 -0.3591
 5473TIP3    H137834   4.619   6.269  13.773 -0.4551  2.4368  2.9058
 5473TIP3    H237835   4.758   6.216  13.804 -0.7298 -1.7609 -2.2984
 5474TIP3   OH237836   3.100   5.147   4.522  0.3908 -0.3842  0.1330
 5474TIP3    H137837   3.099   5.062   4.567  1.8761 -1.3453 -1.5635
 5474TIP3    H237838   3.192   5.173   4.522  0.2247  0.2427 -1.1387
 5475TIP3   OH237839   0.051   1.410  12.408 -0.2110 -0.5424 -0.5374
 5475TIP3    H137840   0.122   1.380  12.466  0.2361 -2.6617 -2.1227
 5475TIP3    H237841  -0.029   1.376  12.448 -0.0515 -0.6074 -0.2742
 5476TIP3   OH237842   3.341   0.100  11.724  0.8045 -0.0540  0.2777
 5476TIP3    H137843   3.285   0.178  11.726  2.3473  1.0681 -0.1447
 5476TIP3    H237844   3.279   0.027  11.736 -0.4266  1.3083  2.7239
 5477TIP3   OH237845   3.197   4.056   0.365  0.9656 -0.4799 -0.1562
 5477TIP3    H137846   3.132   4.088   0.302  1.0796  0.8624  0.3965
 5477TIP3    H237847   3.273   4.112   0.352  0.4565  0.8485  2.2296
 5478TIP3   OH237848   6.323   2.473   5.501 -0.0284  0.1838  0.6875
 5478TIP3    H137849   6.310   2.379   5.512  2.8867 -0.3219  0.3136
 5478TIP3    H237850   6.252   2.501   5.444 -0.6025 -1.9239  0.3312
 5479TIP3   OH237851   0.803   2.481   0.876  0.2359 -0.2708 -0.5600
 5479TIP3    H137852   0.738   2.513   0.813  0.9142  1.5361 -0.3877
 5479TIP3    H237853   0.861   2.424   0.824  1.2260  1.7829 -1.7803
 5480TIP3   OH237854   3.351   6.755   2.515 -0.0851 -0.1326 -0.3580
 5480TIP3    H137855   3.405   6.800   2.451  0.1414  0.6305  0.3696
 5480TIP3    H237856   3.352   6.663   2.486  1.1583 -0.0367 -0.6496
 5481TIP3   OH237857   2.754   4.908  16.137  0.3137 -0.3379  0.2348
 5481TIP3    H137858   2.704   4.880  16.060 -0.2057 -0.8549  0.7549
 5481TIP3    H237859   2.781   4.997  16.117  1.0044 -0.7983 -0.9652
 5482TIP3   OH237860   4.094   6.143   5.987  0.4371 -0.2465  0.0904
 5482TIP3    H137861   4.185   6.167   5.969  0.6017 -0.3675  0.7567
 5482TIP3    H237862   4.081   6.062   5.937  0.5962 -0.0620 -0.2535
 5483TIP3   OH237863   3.712   1.147  16.182  0.0111  0.4909 -0.4361
 5483TIP3    H137864   3.738   1.164  16.273  1.5923  2.7334 -1.2490
 5483TIP3    H237865   3.781   1.090  16.148 -0.5156 -0.2503 -0.2503
 5484TIP3   OH237866   4.114   2.173  11.465 -0.2565  0.6271 -0.1902
 5484TIP3    H137867   4.194   2.223  11.450 -0.9952  1.9323  0.0361
 5484TIP3    H237868   4.131   2.087  11.428  0.1910  1.8053 -2.8423
 5485TIP3   OH237869   3.980   5.213  10.613  0.2365  0.2098  0.8721
 5485TIP3    H137870   3.936   5.196  10.530  1.5320  0.0404  0.2171
 5485TIP3    H237871   3.910   5.210  10.678 -0.6896 -0.2748 -0.1344
 5486TIP3   OH237872   6.756   5.448  13.672 -0.4489 -0.1028  0.1845
 5486TIP3    H137873   6.828   5.449  13.610 -1.0552 -1.9295 -0.5982
 5486TIP3    H237874   6.735   5.540  13.687 -1.0773  0.3731 -3.2400
 5487TIP3   OH237875   6.617   5.944   3.228  0.2514  0.4876  0.2428
 5487TIP3    H137876   6.539   5.990   3.198  1.0619 -0.2498 -3.2993
 5487TIP3    H237877   6.681   6.013   3.245 -0.5196  0.9769  1.1806
 5488TIP3   OH237878   0.421   2.065   5.498  0.1981 -0.4934  0.2481
 5488TIP3    H137879   0.413   2.156   5.472 -0.9897 -0.5774  0.2834
 5488TIP3    H237880   0.424   2.068   5.594 -1.1582 -0.5702  0.3047
 5489TIP3   OH237881   2.349   3.004  12.308  0.1459 -0.2518 -0.2877
 5489TIP3    H137882   2.434   3.046  12.298  0.5482 -1.1356 -0.6093
 5489TIP3    H237883   2.293   3.048  12.244  0.2065  0.7035  0.2979
 5490TIP3   OH237884   6.581   2.365   0.999  0.4294 -0.3597  0.3200
 5490TIP3    H137885   6.638   2.333   1.069 -0.4083 -0.5808  0.9092
 5490TIP3    H237886   6.601   2.458   0.992  1.8096 -0.7029 -0.3827
 5491TIP3   OH237887   0.861   0.850  12.706 -0.3476 -0.1466 -0.1329
 5491TIP3    H137888   0.813   0.931  12.691 -1.3087 -0.8703 -0.9689
 5491TIP3    H237889   0.869   0.809  12.620 -2.1237 -2.2059  0.6366
 5492TIP3   OH237890   1.434   0.848  10.939 -0.2195  0.1166  0.4854
 5492TIP3    H137891   1.445   0.917  11.004 -0.1251 -0.8219  1.4759
 5492TIP3    H237892   1.520   0.805  10.935 -1.1672 -2.0524  2.3150
 5493TIP3   OH237893   0.333   5.205   2.608  0.2110 -0.0432 -0.3274
 5493TIP3    H137894   0.296   5.264   2.543 -0.4020 -1.5882 -1.4059
 5493TIP3    H237895   0.333   5.256   2.689 -1.2236  1.0972 -1.0178
 5494TIP3   OH237896   5.864   0.892   4.815 -0.7458  0.3308 -0.0568
 5494TIP3    H137897   5.896   0.912   4.727  0.4877  0.9567  0.5149
 5494TIP3    H237898   5.782   0.941   4.823  0.3245  2.1477 -0.0269
 5495TIP3   OH237899   0.111   1.560  15.504  0.3149  0.3904  0.0242
 5495TIP3    H137900   0.149   1.641  15.472  1.9326 -0.6490 -0.7041
 5495TIP3    H237901   0.086   1.512  15.426 -0.3624  0.0385  0.4480
 5496TIP3   OH237902   3.873   0.662   3.304 -0.0298  0.3139  0.5594
 5496TIP3    H137903   3.806   0.728   3.323 -0.0371  0.5003 -0.1151
 5496TIP3    H237904   3.843   0.584   3.351 -1.8409 -0.2446 -1.4211
 5497TIP3   OH237905   6.391   1.496   1.409  0.6672  0.4599 -0.5577
 5497TIP3    H137906   6.331   1.448   1.467  3.1426 -2.0109  0.0902
 5497TIP3    H237907   6.430   1.428   1.354  2.7081  2.0247 -1.0886
 5498TIP3   OH237908   2.530   2.358  14.561 -0.1318  0.5156 -0.0793
 5498TIP3    H137909   2.468   2.348  14.488 -1.6088  1.6375  0.9873
 5498TIP3    H237910   2.584   2.433  14.537  1.0052 -0.6064 -1.1227
 5499TIP3   OH237911   6.616   4.323  14.495  0.5287 -0.1287 -0.0169
 5499TIP3    H137912   6.587   4.384  14.427 -0.0737  0.7680  1.0309
 5499TIP3    H237913   6.697   4.362  14.529  0.7214 -0.4682 -0.0912
 5500TIP3   OH237914   1.398   0.966  12.441 -0.4626 -0.0322 -0.2076
 5500TIP3    H137915   1.327   0.903  12.453 -1.2567  0.6614 -1.1587
 5500TIP3    H237916   1.362   1.049  12.472 -0.0298  0.2994 -0.5972
 5501TIP3   OH237917   1.050   5.598  13.916  0.3858 -0.2725 -0.3130
 5501TIP3    H137918   1.053   5.586  13.821  2.5087 -1.8993 -0.0805
 5501TIP3    H237919   0.987   5.532  13.946  0.3137 -0.3001 -0.5263
 5502TIP3   OH237920   2.785   4.601   1.029 -0.5992  0.0255  0.3116
 5502TIP3    H137921   2.736   4.519   1.033 -0.3309 -0.2481 -1.4726
 5502TIP3    H237922   2.718   4.669   1.038 -0.8714 -0.3744  1.3789
 5503TIP3   OH237923   5.805   3.236   3.517  0.2860  0.0327  0.4601
 5503TIP3    H137924   5.848   3.172   3.460 -0.7945  1.5920 -2.1861
 5503TIP3    H237925   5.869   3.307   3.524  1.1120 -0.8543  2.6696
 5504TIP3   OH237926   5.989   1.851  17.140 -0.1671  0.1940 -0.1334
 5504TIP3    H137927   6.018   1.917  17.203 -1.9879 -0.2097  1.1891
 5504TIP3    H237928   5.895   1.841  17.158 -0.2133 -1.7179 -1.2795
 5505TIP3   OH237929   5.590   0.494  16.680 -0.2571 -0.6253  0.3675
 5505TIP3    H137930   5.639   0.432  16.735 -1.4341 -1.0896  0.9114
 5505TIP3    H237931   5.526   0.534  16.740 -0.7581 -0.2602 -0.4065
 5506TIP3   OH237932   5.300   6.491  15.996  0.2050 -0.1918 -0.6772
 5506TIP3    H137933   5.299   6.581  15.964  0.6693 -1.2526 -3.8162
 5506TIP3    H237934   5.207   6.468  16.005  0.0743  1.0984  1.7832
 5507TIP3   OH237935   5.029   5.338  15.041  0.0510 -0.0070 -0.2427
 5507TIP3    H137936   5.025   5.386  14.958 -1.5493  0.5435  0.1262
 5507TIP3    H237937   4.948   5.362  15.086  0.8098 -0.4607  1.3953
 5508TIP3   OH237938   5.930   6.547   2.260  0.7422  0.4384  0.0245
 5508TIP3    H137939   5.901   6.478   2.200 -3.0016  1.7946  0.1530
 5508TIP3    H237940   5.952   6.500   2.341  0.5146 -0.8292 -0.6315
 5509TIP3   OH237941   6.431   6.503   5.533 -0.5182 -0.1414  0.0509
 5509TIP3    H137942   6.518   6.537   5.552 -0.7900  0.2346  0.6155
 5509TIP3    H237943   6.401   6.555   5.458 -0.3461 -0.1256 -0.0072
 5510TIP3   OH237944   1.361   6.122  13.124 -0.1044 -0.7635 -0.7791
 5510TIP3    H137945   1.390   6.212  13.139 -2.3505  0.1006 -1.3997
 5510TIP3    H237946   1.267   6.129  13.107 -0.1930 -3.1597 -1.5628
 5511TIP3   OH237947   1.576   2.646  14.203 -0.0516 -0.1684 -0.4144
 5511TIP3    H137948   1.576   2.726  14.150 -1.6030  1.0085  1.3194
 5511TIP3    H237949   1.486   2.616  14.201 -0.7622  1.4134  3.7144
 5512TIP3   OH237950   2.156   0.592  12.272 -0.4259  0.9660 -0.2213
 5512TIP3    H137951   2.119   0.552  12.350 -2.0185 -0.0996 -1.4875
 5512TIP3    H237952   2.210   0.664  12.305  0.7232 -0.8323  1.9748
 5513TIP3   OH237953   2.461   1.377   6.514  0.2383 -0.2926  0.7805
 5513TIP3    H137954   2.432   1.286   6.525  0.2086 -0.1417  2.0543
 5513TIP3    H237955   2.557   1.370   6.510  0.2207 -0.4117  0.5523
 5514TIP3   OH237956   3.467   3.635   0.157 -0.8738 -0.8968 -0.2817
 5514TIP3    H137957   3.546   3.580   0.160 -0.4985 -0.3113  1.4137
 5514TIP3    H237958   3.395   3.574   0.172 -0.4382 -0.9431  1.8692
 5515TIP3   OH237959   6.701   6.554   4.268 -0.7299 -0.2067 -0.4962
 5515TIP3    H137960   6.693   6.488   4.200  1.3452 -3.2721  2.0655
 5515TIP3    H237961   6.759   6.620   4.231  0.6820 -2.0066 -1.5793
 5516TIP3   OH237962   0.933   0.927  15.258 -0.4357  0.6315 -0.4527
 5516TIP3    H137963   0.878   0.849  15.262 -1.3926  1.1656 -2.4030
 5516TIP3    H237964   1.016   0.896  15.222 -0.4840  0.3361 -0.3089
 5517TIP3   OH237965   6.368   0.834  16.239  0.2327  0.2398 -0.1700
 5517TIP3    H137966   6.341   0.844  16.330 -2.7347 -1.0752 -0.8268
 5517TIP3    H237967   6.308   0.768  16.204  0.7995  1.3036 -3.2702
 5518TIP3   OH237968   1.276   4.135   1.591  0.2405  0.3089  0.1676
 5518TIP3    H137969   1.213   4.207   1.599 -0.3085 -0.2138  0.5054
 5518TIP3    H237970   1.223   4.056   1.597  0.7281 -0.1234 -1.1982
 5519TIP3   OH237971   2.068   2.080   3.394 -0.4121  0.2456  0.4131
 5519TIP3    H137972   2.143   2.062   3.336 -0.8415  1.9905 -0.7304
 5519TIP3    H237973   2.079   2.019   3.467  0.0594 -2.1512 -1.5826
 5520TIP3   OH237974   4.272   2.467  11.994 -0.0793 -0.0632 -0.6664
 5520TIP3    H137975   4.358   2.460  12.036 -0.4984 -2.1726 -0.1165
 5520TIP3    H237976   4.292   2.470  11.900  0.6349  0.4306 -0.5056
 5521TIP3   OH237977   1.312   6.102   2.142  1.1007  0.2473  0.0322
 5521TIP3    H137978   1.396   6.116   2.099  1.0923  0.0869 -0.0380
 5521TIP3    H237979   1.333   6.106   2.236  1.2349 -0.0746  0.0159
 5522TIP3   OH237980   5.906   5.785  12.817  0.3982  0.0848  0.2329
 5522TIP3    H137981   5.990   5.793  12.862  0.4811  1.1203 -0.0864
 5522TIP3    H237982   5.912   5.703  12.767  0.6038 -0.6616  1.4637
 5523TIP3   OH237983   4.303   4.518   0.512  0.4157  0.3532  0.2182
 5523TIP3    H137984   4.382   4.535   0.461  0.0392 -0.6972 -0.7297
 5523TIP3    H237985   4.237   4.577   0.475  0.2163 -0.2140 -0.3380
 5524TIP3   OH237986   2.039   2.607   4.217  0.1664 -0.2928 -0.2154
 5524TIP3    H137987   2.129   2.594   4.247  0.9845  1.8388 -1.5922
 5524TIP3    H237988   2.014   2.693   4.252 -1.7296 -1.2891  1.0098
 5525TIP3   OH237989   4.385   0.384  12.762 -0.0276 -0.1420  0.0979
 5525TIP3    H137990   4.297   0.390  12.801 -0.4802  1.5393 -1.1391
 5525TIP3    H237991   4.444   0.383  12.838 -0.9537  1.9489  0.9007
 5526TIP3   OH237992   5.051   5.962  15.233  0.5907 -0.6175 -0.6430
 5526TIP3    H137993   5.140   5.994  15.217  0.6692 -0.8471 -0.6790
 5526TIP3    H237994   4.997   6.040  15.235  0.8534 -0.4455 -0.2214
 5527TIP3   OH237995   4.106   0.783  15.159 -0.1272 -0.1527  0.2784
 5527TIP3    H137996   4.085   0.723  15.088 -2.2585  2.2057 -1.1781
 5527TIP3    H237997   4.025   0.789  15.210  0.0466  1.4624  0.3867
 5528TIP3   OH237998   1.384   2.248  13.261 -0.3179 -0.6767 -0.7304
 5528TIP3    H137999   1.449   2.288  13.204  1.3041 -0.6382  1.1084
 5528TIP3    H238000   1.428   2.172  13.300 -1.1712 -0.3368  0.9523
 5529TIP3   OH238001   2.828   5.052  14.332 -0.5369  0.0245  0.4644
 5529TIP3    H138002   2.733   5.047  14.335 -0.5795  0.2995 -0.2751
 5529TIP3    H238003   2.858   4.980  14.388 -1.1673 -0.4474  0.1969
 5530TIP3   OH238004   1.840   3.178   2.368 -0.5105  0.0285  0.0198
 5530TIP3    H138005   1.808   3.173   2.278 -2.6644  0.7917  0.6907
 5530TIP3    H238006   1.854   3.272   2.382 -0.9375 -0.0110  0.7148
 5531TIP3   OH238007   3.832   6.562  16.635 -0.6254 -0.2639 -0.2478
 5531TIP3    H138008   3.893   6.634  16.620 -0.0489 -0.7907 -0.4759
 5531TIP3    H238009   3.794   6.579  16.721  0.8733 -0.6714  0.5046
 5532TIP3   OH238010   3.825   0.430  12.055 -0.1340 -0.5605 -0.0004
 5532TIP3    H138011   3.904   0.470  12.092  0.1206 -0.7675 -0.3126
 5532TIP3    H238012   3.756   0.495  12.070  0.0735 -0.4219  0.3649
 5533TIP3   OH238013   3.514   4.327  17.084 -0.1941  0.0026  0.0464
 5533TIP3    H138014   3.493   4.419  17.066  0.0015 -0.2713 -1.6782
 5533TIP3    H238015   3.463   4.305  17.162 -0.1039  1.6280  0.5720
 5534TIP3   OH238016   0.612   1.428   4.277 -0.5652 -0.5135  0.4021
 5534TIP3    H138017   0.628   1.371   4.352 -0.2631 -2.1685 -0.8765
 5534TIP3    H238018   0.517   1.435   4.272 -0.5574  0.5256  1.6031
 5535TIP3   OH238019   4.401   6.026   0.915  0.2867  0.8200 -0.4276
 5535TIP3    H138020   4.461   5.964   0.874  0.0260  0.4598 -0.2738
 5535TIP3    H238021   4.320   6.017   0.865  0.1281  0.7570 -0.1576
 5536TIP3   OH238022   1.858   0.070   4.599 -0.3110 -0.3179 -0.4177
 5536TIP3    H138023   1.889   0.014   4.528 -0.4730  1.5868 -2.0515
 5536TIP3    H238024   1.928   0.069   4.664  1.1473  0.2224 -1.9443
 5537TIP3   OH238025   5.476   6.734  16.181 -0.0512 -0.0670 -0.4984
 5537TIP3    H138026   5.407   6.688  16.133 -0.7590  0.0058  0.4563
 5537TIP3    H238027   5.435   6.814  16.212  0.9548  0.8481 -1.4537
 5538TIP3   OH238028   1.714   6.193  16.698 -0.1996 -0.4184  0.3345
 5538TIP3    H138029   1.787   6.162  16.752  0.1650 -0.9006 -0.4304
 5538TIP3    H238030   1.744   6.182  16.608 -0.6413  0.7758  0.0251
 5539TIP3   OH238031   1.797   2.334   5.650 -0.1773 -0.1425  0.5704
 5539TIP3    H138032   1.770   2.425   5.641  0.8124  0.2598  1.6288
 5539TIP3    H238033   1.743   2.299   5.721 -0.0478 -0.1777  0.6528
 5540TIP3   OH238034   3.030   5.810  13.948  0.7552  0.0623  0.3045
 5540TIP3    H138035   3.099   5.854  13.899  0.5275 -0.4920 -0.5206
 5540TIP3    H238036   3.055   5.820  14.040  1.2782  0.9487  0.0688
 5541TIP3   OH238037   0.190   5.361   3.182 -0.2954 -0.6368 -0.1741
 5541TIP3    H138038   0.248   5.305   3.233  0.7614  0.3520 -0.2616
 5541TIP3    H238039   0.195   5.447   3.224 -1.2453 -0.3935 -0.5285
 5542TIP3   OH238040   6.755   4.354  12.431  0.3367 -0.2911 -0.4543
 5542TIP3    H138041   6.756   4.444  12.399  1.1599  0.0790  0.5851
 5542TIP3    H238042   6.822   4.310  12.380  1.7481  0.3338  0.8369
 5543TIP3   OH238043   2.601   6.248   0.763 -0.6219 -0.1078  0.1896
 5543TIP3    H138044   2.589   6.278   0.853 -0.6522 -0.7085  0.3893
 5543TIP3    H238045   2.512   6.228   0.733 -0.5256 -0.7973  0.3443
 5544TIP3   OH238046   2.790   4.187   5.622  0.4097  0.8532  0.7069
 5544TIP3    H138047   2.713   4.162   5.571  0.0320  1.9251  0.7448
 5544TIP3    H238048   2.758   4.190   5.712  0.1183  2.7490  0.5593
 5545TIP3   OH238049   6.165   1.866  11.698  0.0085  0.5466  0.2484
 5545TIP3    H138050   6.237   1.916  11.736  0.2750  0.2171  0.1809
 5545TIP3    H238051   6.196   1.776  11.698 -0.0334  0.5321 -0.6603
 5546TIP3   OH238052   5.978   0.833  11.037  0.2672 -0.0497 -0.0904
 5546TIP3    H138053   5.946   0.751  11.074 -0.5415  1.2471  2.2488
 5546TIP3    H238054   5.943   0.835  10.948 -0.4520 -1.8036  0.1383
 5547TIP3   OH238055   3.875   2.253  14.855  0.0773  0.3108  0.0475
 5547TIP3    H138056   3.811   2.323  14.865 -0.1431  0.3041 -1.1863
 5547TIP3    H238057   3.821   2.174  14.846  0.2033  0.4113 -1.8693
 5548TIP3   OH238058   6.680   3.918   3.348 -0.5740  0.2618  0.1699
 5548TIP3    H138059   6.757   3.865   3.365 -0.5019  0.8850  1.9472
 5548TIP3    H238060   6.709   4.008   3.366 -0.0155  1.2775 -5.0370
 5549TIP3   OH238061   5.567   3.222  13.344  0.1358  0.0042 -0.2246
 5549TIP3    H138062   5.524   3.155  13.290  0.2058 -0.0975 -0.1552
 5549TIP3    H238063   5.657   3.192  13.352  0.3415  0.4660 -0.7720
 5550TIP3   OH238064   5.773   1.812   3.551  0.2380  0.5973  0.3769
 5550TIP3    H138065   5.773   1.907   3.541 -1.4669  0.3091 -3.0013
 5550TIP3    H238066   5.687   1.792   3.589  0.3721  0.3624  0.5586
 5551TIP3   OH238067   2.081   1.579  14.661 -0.4642  0.0184 -0.1011
 5551TIP3    H138068   2.120   1.493  14.677 -0.9309 -0.2644 -0.5170
 5551TIP3    H238069   2.157   1.636  14.646  0.0078  0.2015  2.6251
 5552TIP3   OH238070   0.478   5.798   3.976 -0.0862  0.0260 -0.0881
 5552TIP3    H138071   0.402   5.854   3.957 -0.7037 -1.4252 -1.9592
 5552TIP3    H238072   0.443   5.728   4.031 -0.0534 -0.4647 -0.6845
 5553TIP3   OH238073   0.859   2.625  13.599 -0.1739  0.1454 -0.4687
 5553TIP3    H138074   0.848   2.717  13.574 -0.4929  0.0359 -0.7393
 5553TIP3    H238075   0.771   2.589  13.596 -0.2497  0.1953  1.1218
 5554TIP3   OH238076   0.988   4.367  13.879  0.0371  0.4115  0.9272
 5554TIP3    H138077   0.896   4.372  13.905  0.5665 -0.6271  3.1495
 5554TIP3    H238078   1.011   4.275  13.891  0.4931 -0.0589 -2.8851
 5555TIP3   OH238079   3.063   3.500   2.375  0.1833 -0.1334 -0.1618
 5555TIP3    H138080   3.020   3.416   2.391 -1.2200  0.5745 -0.1723
 5555TIP3    H238081   3.041   3.553   2.452  2.1644 -0.2096  0.4721
 5556TIP3   OH238082   3.895   3.148   5.993  0.3387 -0.3784  0.0300
 5556TIP3    H138083   3.886   3.055   6.010 -2.4913 -0.2762 -0.4980
 5556TIP3    H238084   3.852   3.190   6.067  0.5742  0.4624 -0.3019
 5557TIP3   OH238085   3.291   3.047   3.651 -0.6195  0.3175 -0.3924
 5557TIP3    H138086   3.232   3.111   3.610 -0.1712  1.8613  1.2577
 5557TIP3    H238087   3.377   3.068   3.617 -0.4396  0.7673  0.3126
 5558TIP3   OH238088   4.297   3.094   3.992 -0.1211  0.0963 -0.3729
 5558TIP3    H138089   4.316   3.171   4.046  0.6178 -0.7884  0.6511
 5558TIP3    H238090   4.262   3.130   3.911  1.5260  1.5933 -0.4695
 5559TIP3   OH238091   1.091   4.161  14.384 -0.6777  0.0484  0.5508
 5559TIP3    H138092   1.001   4.146  14.414 -0.5079  0.4832  1.2938
 5559TIP3    H238093   1.129   4.073  14.379 -1.4984 -0.2447 -0.9284
 5560TIP3   OH238094   0.585   3.549   0.777  0.1891  0.3830 -0.4426
 5560TIP3    H138095   0.542   3.514   0.855 -0.8302  0.2110 -1.0718
 5560TIP3    H238096   0.599   3.473   0.721 -1.3694  0.8502 -1.5023
 5561TIP3   OH238097   5.266   1.778   2.432 -0.1249  0.4699 -0.1451
 5561TIP3    H138098   5.297   1.861   2.469 -2.0316  0.6517  1.1199
 5561TIP3    H238099   5.309   1.711   2.485  0.8728  0.6395 -0.7162
 5562TIP3   OH238100   4.636   0.960  11.951  0.1277  0.1188  0.0599
 5562TIP3    H138101   4.627   0.966  11.855  1.0799  0.0525 -0.0361
 5562TIP3    H238102   4.592   1.039  11.984  1.6502  1.2589 -0.5501
 5563TIP3   OH238103   3.662   5.873   3.037  0.4663 -0.1986 -0.3891
 5563TIP3    H138104   3.731   5.938   3.053  0.7692 -0.6903  0.3167
 5563TIP3    H238105   3.704   5.789   3.056 -0.6749 -0.4317  1.1749
 5564TIP3   OH238106   4.769   2.933   5.619  0.3944 -0.5086 -0.8107
 5564TIP3    H138107   4.795   2.874   5.549 -0.1166 -0.4755 -1.0312
 5564TIP3    H238108   4.704   2.885   5.669  0.5552 -0.4272 -0.5183
 5565TIP3   OH238109   3.524   1.934   0.071 -0.1269 -0.4827 -0.6847
 5565TIP3    H138110   3.488   1.956   0.157 -0.4821  0.4496 -1.0676
 5565TIP3    H238111   3.618   1.952   0.079 -0.2303  0.0259 -0.6336
 5566TIP3   OH238112   3.275   5.167  11.101  0.1710 -0.0063 -0.2710
 5566TIP3    H138113   3.218   5.162  11.024 -0.2884  1.9808 -0.0793
 5566TIP3    H238114   3.349   5.110  11.079  0.5441  1.2763 -2.6323
 5567TIP3   OH238115   2.505   3.640  12.597  0.1947 -1.1471  0.2283
 5567TIP3    H138116   2.436   3.596  12.547  0.6525  0.5278 -1.9632
 5567TIP3    H238117   2.582   3.586  12.584  0.5136 -0.2962 -1.6409
 5568TIP3   OH238118   4.609   3.015   1.040  0.7505  0.0907  0.0943
 5568TIP3    H138119   4.584   3.074   0.969 -1.2119 -1.0675 -0.2345
 5568TIP3    H238120   4.682   2.965   1.005  0.8157  0.6240 -0.5367
 5569TIP3   OH238121   4.024   2.919   2.826 -0.2243  0.0946 -0.0017
 5569TIP3    H138122   3.932   2.895   2.820 -0.0297 -1.1176  1.4319
 5569TIP3    H238123   4.062   2.853   2.885  1.3950  1.0183  0.0223
 5570TIP3   OH238124   6.238   5.625   4.680 -0.2607 -0.0213 -0.0279
 5570TIP3    H138125   6.197   5.627   4.593 -2.9394  2.0095  1.2030
 5570TIP3    H238126   6.250   5.532   4.699 -1.5153 -0.5624 -1.7232
 5571TIP3   OH238127   1.557   2.197   6.295 -0.1759  0.1226  0.2816
 5571TIP3    H138128   1.567   2.181   6.202 -1.0825 -0.8662  0.3379
 5571TIP3    H238129   1.462   2.199   6.309 -0.1083  3.4767  0.6571
 5572TIP3   OH238130   6.329   3.150   5.458 -0.0402 -0.1937 -0.5178
 5572TIP3    H138131   6.378   3.199   5.523 -0.0079  1.3275 -1.6671
 5572TIP3    H238132   6.374   3.167   5.375 -0.9402 -0.9106 -1.1772
 5573TIP3   OH238133   2.218   3.697  17.080 -0.1967  0.2913 -0.1343
 5573TIP3    H138134   2.157   3.626  17.060 -1.3693  1.0953  0.5363
 5573TIP3    H238135   2.255   3.674  17.165 -0.1794  0.2187 -0.1601
 5574TIP3   OH238136   4.183   3.660  15.088 -0.1391 -0.8276 -0.4251
 5574TIP3    H138137   4.263   3.614  15.063  0.5160  0.2959 -0.4349
 5574TIP3    H238138   4.122   3.590  15.113  1.7339 -1.6168  2.1806
 5575TIP3   OH238139   5.255   4.889   2.272 -0.1074  0.5517 -0.4117
 5575TIP3    H138140   5.333   4.895   2.216 -0.3310  1.5478 -0.6381
 5575TIP3    H238141   5.289   4.869   2.359  0.2995 -0.3466 -0.7759
 5576TIP3   OH238142   5.702   0.775   1.269 -0.4760  0.2434  0.5095
 5576TIP3    H138143   5.668   0.686   1.278 -0.8521  0.2196 -0.9762
 5576TIP3    H238144   5.709   0.808   1.359  0.5714 -1.6125  1.1276
 5577TIP3   OH238145   4.155   1.974  11.086  0.7470 -0.3336 -0.3044
 5577TIP3    H138146   4.117   1.923  11.014  0.4132 -0.8485  0.2299
 5577TIP3    H238147   4.208   1.910  11.134  1.9065  0.2668 -0.7568
 5578TIP3   OH238148   0.011   2.350   4.553  0.3400 -0.0332 -0.2309
 5578TIP3    H138149  -0.012   2.439   4.527  1.4775  0.0794 -0.8901
 5578TIP3    H238150   0.015   2.353   4.649  0.8547  0.7632 -0.2683
 5579TIP3   OH238151   0.248   1.206   3.775 -0.2934 -0.0340  0.1803
 5579TIP3    H138152   0.166   1.217   3.727  0.3406  1.8012 -0.5246
 5579TIP3    H238153   0.222   1.168   3.859 -1.9583  1.3519  0.3101
 5580TIP3   OH238154   3.689   3.648   0.832  0.9165 -0.2721 -0.6275
 5580TIP3    H138155   3.764   3.588   0.827  0.7856 -0.3084 -2.9416
 5580TIP3    H238156   3.616   3.597   0.798 -0.4499 -0.5951  2.6121
 5581TIP3   OH238157   2.719   2.768   4.596 -0.0904  0.1565 -0.5490
 5581TIP3    H138158   2.630   2.794   4.573 -0.3836 -1.2840 -1.0887
 5581TIP3    H238159   2.763   2.850   4.621 -1.7046  0.8046  0.1918
 5582TIP3   OH238160   4.840   0.314  15.654  0.1727 -0.2322  0.7007
 5582TIP3    H138161   4.782   0.285  15.724  0.2128 -1.5563  0.1895
 5582TIP3    H238162   4.918   0.259  15.661  1.5673  1.7957  1.6284
 5583TIP3   OH238163   0.849   5.481  14.351 -0.5208  0.6473 -0.2696
 5583TIP3    H138164   0.916   5.548  14.363  0.6921 -0.7767  0.9615
 5583TIP3    H238165   0.795   5.487  14.430  0.5041 -0.8423  0.5588
 5584TIP3   OH238166   0.169   5.914  13.754 -0.1500  0.2509 -0.1551
 5584TIP3    H138167   0.095   5.888  13.699 -0.5604  0.8647  0.0922
 5584TIP3    H238168   0.138   5.899  13.844  0.0596  0.4259 -0.0542
 5585TIP3   OH238169   1.941   1.056   3.897 -0.5098 -0.3865 -0.0979
 5585TIP3    H138170   1.962   1.079   3.987  3.5574 -1.2719 -0.6888
 5585TIP3    H238171   1.933   0.960   3.898  2.8970 -0.7518 -1.1736
 5586TIP3   OH238172   4.303   3.504   3.805  0.7806  0.1092  0.1092
 5586TIP3    H138173   4.324   3.540   3.719 -0.0099 -2.4692 -1.2059
 5586TIP3    H238174   4.385   3.468   3.838  0.5882 -1.0990 -0.6839
 5587TIP3   OH238175   0.763   1.451  16.542 -0.4362  0.4271 -0.4758
 5587TIP3    H138176   0.776   1.394  16.466  1.6159 -0.1085  0.2511
 5587TIP3    H238177   0.810   1.532  16.520  0.4258  0.1541  0.3353
 5588TIP3   OH238178   3.503   1.626   0.054 -0.0611 -0.4801  0.0352
 5588TIP3    H138179   3.583   1.588   0.088 -0.0890 -0.4389  0.1452
 5588TIP3    H238180   3.530   1.710   0.015 -0.1727 -0.1205  0.7338
 5589TIP3   OH238181   5.192   6.431   3.900  0.0878 -0.0430  0.1915
 5589TIP3    H138182   5.099   6.450   3.907  0.1770 -0.1068  1.8999
 5589TIP3    H238183   5.225   6.438   3.990  2.2021  2.3590 -0.6873
 5590TIP3   OH238184   0.755   1.010   4.505  0.0081 -0.6542 -0.0017
 5590TIP3    H138185   0.790   0.935   4.553  1.4978  0.1057  0.1128
 5590TIP3    H238186   0.832   1.055   4.471 -0.9371  0.0366 -1.2768
 5591TIP3   OH238187   0.278   4.866   5.909  0.0167 -0.0623 -0.1523
 5591TIP3    H138188   0.204   4.861   5.969 -0.5192  0.6602 -0.7497
 5591TIP3    H238189   0.342   4.920   5.955 -0.3660  0.4350 -0.2049
 5592TIP3   OH238190   5.957   1.413  14.941 -0.2679  0.0987 -0.1844
 5592TIP3    H138191   6.013   1.425  15.018 -0.6365 -0.8726  0.2420
 5592TIP3    H238192   6.013   1.438  14.867  0.0525  1.1481  0.4047
 5593TIP3   OH238193   0.388   4.369  12.163  0.4329  0.3053  0.7876
 5593TIP3    H138194   0.324   4.304  12.191 -0.7753  0.7705 -0.8177
 5593TIP3    H238195   0.359   4.451  12.203 -1.7044  1.1204 -2.2232
 5594TIP3   OH238196   0.293   1.555  14.822  0.2642  0.6837  0.0874
 5594TIP3    H138197   0.339   1.620  14.875 -2.1358  2.5125  0.0084
 5594TIP3    H238198   0.250   1.606  14.753  0.2774 -1.2601 -1.4119
 5595TIP3   OH238199   3.295   0.426  14.090 -0.2620 -0.0204  0.1663
 5595TIP3    H138200   3.369   0.471  14.132 -0.1967  2.6282 -2.5952
 5595TIP3    H238201   3.218   0.473  14.121 -0.6395 -1.4010  1.3551
 5596TIP3   OH238202   2.490   3.532  15.380  0.5383 -0.2555 -0.3765
 5596TIP3    H138203   2.481   3.446  15.339  0.4583 -0.6091  0.3652
 5596TIP3    H238204   2.410   3.578  15.357 -0.1626 -0.9720  0.5800
 5597TIP3   OH238205   3.896   1.973  16.156  0.3117 -0.1419  0.3461
 5597TIP3    H138206   3.901   1.907  16.225  0.1072  0.6803  1.1623
 5597TIP3    H238207   3.881   1.923  16.076 -4.5025 -0.8494  1.5295
 5598TIP3   OH238208   4.010   1.534   1.863 -0.2936 -1.0982 -0.0069
 5598TIP3    H138209   3.984   1.442   1.863 -1.6125 -0.7531 -1.8148
 5598TIP3    H238210   3.935   1.580   1.825  1.0550  0.5089 -0.7549
 5599TIP3   OH238211   1.452   4.828   3.159 -0.8248 -0.4949 -0.3219
 5599TIP3    H138212   1.457   4.891   3.230 -0.0551  0.3445 -1.1121
 5599TIP3    H238213   1.427   4.746   3.201  0.0313 -0.1010  0.9754
 5600TIP3   OH238214   0.315   1.553   4.864  0.4611 -0.0837 -0.5351
 5600TIP3    H138215   0.319   1.633   4.917  0.7888  0.3488 -1.2008
 5600TIP3    H238216   0.228   1.517   4.882  0.4799  0.1875  0.1101
 5601TIP3   OH238217   3.403   4.127  15.154  0.5042  0.3553 -0.6109
 5601TIP3    H138218   3.322   4.171  15.180  0.4725  0.2364 -0.5100
 5601TIP3    H238219   3.423   4.163  15.068  1.4887  1.9525  0.2560
 5602TIP3   OH238220   1.878   1.056  12.330  0.1176 -0.5605  0.5219
 5602TIP3    H138221   1.793   1.091  12.356  0.7499  0.3698  1.3950
 5602TIP3    H238222   1.933   1.067  12.407  0.8102 -1.9291  0.2455
 5603TIP3   OH238223   6.381   4.464   0.470 -0.1484  0.3341  0.2276
 5603TIP3    H138224   6.447   4.533   0.461 -0.2796  0.3366 -0.7210
 5603TIP3    H238225   6.321   4.478   0.397 -0.9595  0.0581  0.8339
 5604TIP3   OH238226   3.126   3.466   3.590 -0.0969 -0.1677 -0.2949
 5604TIP3    H138227   3.061   3.459   3.661 -0.8003  1.4147 -0.7490
 5604TIP3    H238228   3.208   3.486   3.635  0.3174 -3.0785  0.3616
 5605TIP3   OH238229   1.029   2.859  11.259  0.1164 -0.1864  0.4000
 5605TIP3    H138230   1.086   2.809  11.318 -0.1153  0.4451  1.1582
 5605TIP3    H238231   1.088   2.923  11.218  0.2159 -0.4220  0.1724
 5606TIP3   OH238232   1.003   0.685  11.256  0.1438  0.3590 -0.3159
 5606TIP3    H138233   1.047   0.672  11.172  0.4630  1.6056 -0.3545
 5606TIP3    H238234   1.065   0.737  11.308 -0.1766 -0.1463  0.5750
 5607TIP3   OH238235   2.832   2.583  13.795  0.3832  0.1772 -0.2466
 5607TIP3    H138236   2.837   2.602  13.888  1.7019 -1.5767  0.0724
 5607TIP3    H238237   2.774   2.507  13.789 -0.1799  0.6531 -0.9181
 5608TIP3   OH238238   3.571   6.392   5.459 -0.4448 -0.2274 -0.1654
 5608TIP3    H138239   3.647   6.343   5.429  0.4530  0.7383  0.4787
 5608TIP3    H238240   3.608   6.467   5.505 -1.7933 -0.2025  0.9017
 5609TIP3   OH238241   0.586   5.034   3.614  0.1039  0.3635 -0.3908
 5609TIP3    H138242   0.662   4.988   3.649  0.5601  0.6283 -1.0465
 5609TIP3    H238243   0.531   5.050   3.691 -1.0223 -3.0655 -0.4344
 5610TIP3   OH238244   4.006   5.669   5.559  0.3662 -0.9324 -0.2816
 5610TIP3    H138245   4.023   5.703   5.646  2.0992 -0.5302 -0.7541
 5610TIP3    H238246   3.951   5.736   5.517  1.2389 -0.1409 -0.1816
 5611TIP3   OH238247   4.019   2.252   4.754 -0.3705 -0.0088 -0.2913
 5611TIP3    H138248   4.061   2.337   4.759  0.0207 -0.1669 -0.8803
 5611TIP3    H238249   3.945   2.258   4.815 -1.0759  1.1511 -1.2531
 5612TIP3   OH238250   6.482   6.469   6.246 -0.2557  0.1274 -0.6237
 5612TIP3    H138251   6.443   6.502   6.166 -1.5242  1.7366  0.6470
 5612TIP3    H238252   6.428   6.503   6.317  0.4598 -1.7819  0.9210
 5613TIP3   OH238253   5.039   0.599  14.676 -0.0320  0.1988  0.2121
 5613TIP3    H138254   5.018   0.532  14.741  0.4328  0.7563  0.9425
 5613TIP3    H238255   4.974   0.667  14.690 -0.9689 -0.4086 -1.0262
 5614TIP3   OH238256   0.217   4.518   6.455 -0.6342  0.3707  0.3692
 5614TIP3    H138257   0.227   4.604   6.497 -1.5888  0.5541  0.2251
 5614TIP3    H238258   0.148   4.475   6.505 -1.0974  0.2137 -0.4056
 5615TIP3   OH238259   4.254   5.024  14.505 -0.2366 -0.0896 -0.4756
 5615TIP3    H138260   4.251   4.977  14.421  1.2089  0.0201 -0.5966
 5615TIP3    H238261   4.237   5.115  14.481 -0.8865 -0.2182 -0.5132
 5616TIP3   OH238262   3.871   1.233   4.986 -0.3093  0.2654 -0.3450
 5616TIP3    H138263   3.920   1.159   4.950  1.3734  0.0952  2.2073
 5616TIP3    H238264   3.783   1.200   4.999  0.0830 -0.8773 -0.5293
 5617TIP3   OH238265   1.788   1.660  12.579  0.2741 -0.1870 -0.2941
 5617TIP3    H138266   1.858   1.600  12.552  0.4541  0.2140 -0.7154
 5617TIP3    H238267   1.777   1.720  12.505 -1.4342 -1.0745 -0.8018
 5618TIP3   OH238268   4.071   4.964  15.360 -0.0551 -0.0661  0.8715
 5618TIP3    H138269   3.978   4.952  15.380 -0.6842  2.2134 -0.4773
 5618TIP3    H238270   4.079   4.947  15.266  0.8426  0.0045  0.9252
 5619TIP3   OH238271   1.740   3.718   0.904 -0.4757 -0.2822 -0.2028
 5619TIP3    H138272   1.801   3.753   0.839 -0.9266 -0.3307 -0.6615
 5619TIP3    H238273   1.792   3.705   0.983 -0.3882  1.9109  0.1494
 5620TIP3   OH238274   0.471   6.288   3.683 -0.3295 -0.0438  0.3430
 5620TIP3    H138275   0.537   6.353   3.660 -0.1175 -0.4444 -0.1895
 5620TIP3    H238276   0.521   6.210   3.709 -0.5780  0.1272  1.3405
 5621TIP3   OH238277   6.720   1.186  12.188  0.2944  0.4921  0.1291
 5621TIP3    H138278   6.677   1.148  12.264 -0.2419 -0.9120 -0.8695
 5621TIP3    H238279   6.782   1.249  12.225  0.1062 -0.2355  1.7264
 5622TIP3   OH238280   1.950   3.796   4.376 -0.6526 -0.3319  0.1970
 5622TIP3    H138281   2.040   3.828   4.365  0.1461 -2.8587 -1.2548
 5622TIP3    H238282   1.932   3.806   4.469  0.9750  0.6409  0.4348
 5623TIP3   OH238283   1.512   3.808   1.323 -0.2765  0.1336 -0.3200
 5623TIP3    H138284   1.525   3.731   1.268 -1.2955 -0.3754  0.1356
 5623TIP3    H238285   1.462   3.868   1.267 -0.6954 -0.0976 -0.1943
 5624TIP3   OH238286   0.147   2.893   5.446 -0.3710  0.0726  0.0128
 5624TIP3    H138287   0.122   2.863   5.359 -3.4389 -1.9448  1.5080
 5624TIP3    H238288   0.093   2.971   5.461  0.2556  0.4998  0.0567
 5625TIP3   OH238289   3.523   1.442  12.562 -0.2517 -0.2973 -0.1876
 5625TIP3    H138290   3.459   1.506  12.530 -2.0649 -1.0483  1.7996
 5625TIP3    H238291   3.568   1.487  12.633  0.2267 -0.3855 -0.4301
 5626TIP3   OH238292   0.703   4.229  11.162  0.6112 -0.0194 -0.6622
 5626TIP3    H138293   0.633   4.290  11.185 -1.1461 -1.0136 -3.1538
 5626TIP3    H238294   0.778   4.285  11.142  0.7057  1.0435  2.3923
 5627TIP3   OH238295   0.143   6.414  11.225 -0.4219 -0.2971  0.2322
 5627TIP3    H138296   0.218   6.409  11.283  0.0879  3.4376  0.0206
 5627TIP3    H238297   0.068   6.422  11.284 -0.2861 -0.3692  0.4159
 5628TIP3   OH238298   4.131   2.170  10.703 -0.3483 -0.5746 -0.1715
 5628TIP3    H138299   4.178   2.116  10.766 -1.3268  0.3981  1.4081
 5628TIP3    H238300   4.074   2.108  10.656  0.5104 -1.3240 -0.2282
 5629TIP3   OH238301   3.180   1.164  15.745 -0.0413  0.4552 -0.6722
 5629TIP3    H138302   3.209   1.121  15.826 -1.5497 -0.3775 -0.5512
 5629TIP3    H238303   3.155   1.092  15.687 -1.4975  1.1205 -0.8908
 5630TIP3   OH238304   3.138   1.126  10.547 -0.6874  0.3825  0.5447
 5630TIP3    H138305   3.186   1.062  10.599 -1.0848 -0.1149  0.3053
 5630TIP3    H238306   3.059   1.146  10.599 -1.0881 -0.1209  0.1358
 5631TIP3   OH238307   2.034   4.733   1.648  0.6798  0.2495  0.9411
 5631TIP3    H138308   2.011   4.696   1.563  2.4122  3.2209 -0.9508
 5631TIP3    H238309   2.093   4.669   1.688 -1.0883 -1.7117  0.4285
 5632TIP3   OH238310   1.803   5.131   6.536  0.0972 -0.4128 -0.0012
 5632TIP3    H138311   1.861   5.078   6.481 -1.3818 -0.4406 -1.5692
 5632TIP3    H238312   1.726   5.146   6.482 -1.2176 -0.0750  1.9394
 5633TIP3   OH238313   5.405   1.759   0.360  0.2287  0.4506  0.9412
 5633TIP3    H138314   5.369   1.701   0.427  1.3486 -0.7460  0.5351
 5633TIP3    H238315   5.401   1.708   0.279 -0.7770  1.7537  0.1568
 5634TIP3   OH238316   5.145   2.597   1.023  0.1398  0.1350 -0.3892
 5634TIP3    H138317   5.071   2.593   0.963 -0.6151 -0.7642  0.5913
 5634TIP3    H238318   5.217   2.555   0.975 -0.8145 -1.7990 -0.1624
 5635TIP3   OH238319   2.927   4.814   0.108  0.1348 -0.3203  0.1803
 5635TIP3    H138320   2.922   4.719   0.113 -1.0225 -0.2351  0.9839
 5635TIP3    H238321   2.913   4.844   0.198  0.7527  0.6018 -0.0177
 5636TIP3   OH238322   3.114   3.681  10.790  0.2732 -0.1072  0.3359
 5636TIP3    H138323   3.101   3.586  10.787  0.7597 -0.2164  1.4512
 5636TIP3    H238324   3.207   3.693  10.772 -0.3522  0.3790 -2.9441
 5637TIP3   OH238325   3.327   3.263   2.566 -0.5012 -0.2805  0.1481
 5637TIP3    H138326   3.359   3.172   2.563 -0.1789 -0.1839  0.6293
 5637TIP3    H238327   3.386   3.307   2.627 -0.5681  0.2924 -0.1975
 5638TIP3   OH238328   1.288   6.377   2.446 -0.0633 -0.3302 -0.1022
 5638TIP3    H138329   1.294   6.462   2.491 -0.9866  0.0145 -0.6114
 5638TIP3    H238330   1.360   6.378   2.384 -0.7258  0.5523 -0.8694
 5639TIP3   OH238331   2.149   4.533  15.580 -0.4595  0.2070  0.1364
 5639TIP3    H138332   2.186   4.597  15.519  0.6927 -0.9821 -0.4569
 5639TIP3    H238333   2.152   4.576  15.665  1.0535  0.6509 -0.1271
 5640TIP3   OH238334   4.562   0.725  16.777  0.3854 -0.6561  0.0744
 5640TIP3    H138335   4.540   0.801  16.724 -0.8212 -0.0434  1.4113
 5640TIP3    H238336   4.641   0.689  16.736  1.6903  2.0085  0.1208
 5641TIP3   OH238337   5.072   6.398  16.627  0.3961  0.1004 -0.2078
 5641TIP3    H138338   5.020   6.317  16.622 -0.9415  0.8969  0.6861
 5641TIP3    H238339   5.019   6.463  16.582  0.4073  1.0311  1.1084
 5642TIP3   OH238340   1.167   6.160   0.424 -0.4882  0.4865  0.1390
 5642TIP3    H138341   1.202   6.082   0.382 -0.1430  1.5180 -1.5666
 5642TIP3    H238342   1.080   6.171   0.385 -0.6257  0.8355  0.5374
 5643TIP3   OH238343   6.094   1.128   2.439  0.2400  0.7393 -0.1065
 5643TIP3    H138344   6.053   1.042   2.432  1.7805  0.1735 -2.8008
 5643TIP3    H238345   6.048   1.183   2.376  1.7687  0.8438 -1.1623
 5644TIP3   OH238346   2.399   6.340  15.915  0.6485 -0.8087  0.1229
 5644TIP3    H138347   2.491   6.335  15.891  0.7729 -1.6204  0.7322
 5644TIP3    H238348   2.356   6.277  15.856  0.4925 -0.4646 -0.1291
 5645TIP3   OH238349   1.579   2.578  16.703  0.1337 -0.0649 -0.9235
 5645TIP3    H138350   1.610   2.667  16.718  2.8659 -1.3012  1.0653
 5645TIP3    H238351   1.484   2.588  16.693  0.3314  3.0106 -0.2984
 5646TIP3   OH238352   4.028   0.269  12.603  0.2838  0.1355 -0.2168
 5646TIP3    H138353   3.949   0.216  12.594 -0.0248  0.8526 -1.8155
 5646TIP3    H238354   4.052   0.259  12.696 -1.5375 -0.2867  0.2412
 5647TIP3   OH238355   0.676   0.507   0.186 -0.4317  0.5729 -0.0608
 5647TIP3    H138356   0.652   0.594   0.216  2.1486  1.1340  0.4586
 5647TIP3    H238357   0.662   0.450   0.262 -1.3516  0.6543 -0.1647
 5648TIP3   OH238358   0.962   2.944  14.424  0.6548  1.0133 -0.0343
 5648TIP3    H138359   0.905   3.020  14.410 -0.0174  0.5832  0.3717
 5648TIP3    H238360   0.998   2.957  14.511  0.8003  1.0416 -0.0992
 5649TIP3   OH238361   6.139   6.544  16.002 -0.8174  0.1996 -0.0441
 5649TIP3    H138362   6.066   6.482  16.006 -0.0984 -0.5692  1.4628
 5649TIP3    H238363   6.140   6.586  16.088  1.4377 -0.8872  0.5076
 5650TIP3   OH238364   1.118   0.106  16.312  0.7343 -0.1423 -0.1591
 5650TIP3    H138365   1.163   0.088  16.394 -0.2200 -1.8788  0.0089
 5650TIP3    H238366   1.081   0.194  16.323  1.6473  0.1285  0.7829
 5651TIP3   OH238367   1.900   0.300  14.639 -0.1646 -0.0089 -0.2870
 5651TIP3    H138368   1.858   0.216  14.622 -0.8758  0.6627 -2.0462
 5651TIP3    H238369   1.959   0.284  14.712 -1.8476 -1.5115  0.7610
 5652TIP3   OH238370   1.940   5.075   3.204 -1.1715 -0.2316  0.4934
 5652TIP3    H138371   1.964   5.167   3.214 -1.8795 -0.1554  1.5205
 5652TIP3    H238372   1.917   5.046   3.292  1.8366 -2.1920  0.7236
 5653TIP3   OH238373   3.198   0.236   4.671  0.1894 -0.3747 -0.5887
 5653TIP3    H138374   3.137   0.257   4.743  2.0364  1.1246  0.5863
 5653TIP3    H238375   3.181   0.143   4.652 -2.1594 -0.1036 -0.0245
 5654TIP3   OH238376   4.686   6.744  12.436 -0.0673  0.5083 -0.2828
 5654TIP3    H138377   4.651   6.761  12.523  0.1822 -1.2469  0.1598
 5654TIP3    H238378   4.616   6.770  12.376  0.3834  3.3763  0.3277
 5655TIP3   OH238379   5.294   4.614   2.637 -0.4093  0.2227  0.5259
 5655TIP3    H138380   5.202   4.623   2.611 -0.6276 -0.2934  1.1182
 5655TIP3    H238381   5.291   4.572   2.722  0.4410 -1.0368 -0.0562
 5656TIP3   OH238382   5.012   6.618  16.263  0.8340  0.0805 -0.6320
 5656TIP3    H138383   5.075   6.631  16.334 -0.4215  1.8581  0.1886
 5656TIP3    H238384   5.011   6.701  16.216 -0.6696 -0.0332 -0.8269
 5657TIP3   OH238385   1.671   5.430  14.588  0.3640  0.2566  0.4770
 5657TIP3    H138386   1.707   5.439  14.676 -1.4571 -2.5679  1.5982
 5657TIP3    H238387   1.579   5.453  14.597 -0.2833 -1.8913 -0.2212
 5658TIP3   OH238388   2.628   0.768   2.363 -0.1187  0.5858 -0.6976
 5658TIP3    H138389   2.681   0.837   2.323  0.6227  0.5551  0.2278
 5658TIP3    H238390   2.557   0.753   2.301 -0.1494  2.0268 -1.0191
 5659TIP3   OH238391   1.139   5.564   4.760 -0.0142 -0.9444  0.8047
 5659TIP3    H138392   1.187   5.639   4.726 -1.3940  0.4122  1.7994
 5659TIP3    H238393   1.155   5.494   4.696 -0.6607  0.8709 -1.3989
 5660TIP3   OH238394   1.393   3.591  10.709  0.4619 -0.7125  0.6291
 5660TIP3    H138395   1.359   3.654  10.773  1.3338 -2.2941  2.6844
 5660TIP3    H238396   1.483   3.574  10.737  0.7262 -1.7705 -0.7790
 5661TIP3   OH238397   4.228   3.837  14.608  0.2846  0.4222  0.2569
 5661TIP3    H138398   4.155   3.863  14.664 -0.2032  0.1965 -0.2645
 5661TIP3    H238399   4.203   3.868  14.521  0.7950  0.3006  0.0648
 5662TIP3   OH238400   4.341   4.526  16.174  0.6700  0.4109  0.0067
 5662TIP3    H138401   4.343   4.621  16.173 -3.8426  0.6499  2.3485
 5662TIP3    H238402   4.253   4.503  16.146  2.0276 -3.1730 -1.7045
 5663TIP3   OH238403   4.154   2.961  16.080 -0.4725 -0.0066 -0.1949
 5663TIP3    H138404   4.139   2.987  16.170 -0.3579 -0.1208 -0.1397
 5663TIP3    H238405   4.083   2.899  16.060 -2.0365  2.0089 -1.0400
 5664TIP3   OH238406   6.127   5.282  15.835  0.1079 -0.3997  0.1088
 5664TIP3    H138407   6.193   5.233  15.785  1.1053  2.2033 -1.1888
 5664TIP3    H238408   6.175   5.357  15.871 -1.5770  0.0921  1.3908
 5665TIP3   OH238409   6.430   5.602   5.078  0.1501  0.0073  0.4421
 5665TIP3    H138410   6.341   5.573   5.097  0.5882  0.0046  2.7188
 5665TIP3    H238411   6.481   5.572   5.154  1.7234  1.5956  0.0465
 5666TIP3   OH238412   1.858   3.208   0.758 -0.7949 -0.1072 -0.7688
 5666TIP3    H138413   1.835   3.269   0.828  0.0206 -0.8398  0.1538
 5666TIP3    H238414   1.825   3.249   0.678  0.5185  1.9742 -0.2774
 5667TIP3   OH238415   0.961   2.807   4.207  0.0303  0.2511  0.3562
 5667TIP3    H138416   0.930   2.788   4.118  0.7894  1.3006 -0.1363
 5667TIP3    H238417   1.052   2.833   4.196 -0.3418  1.9486  1.2654
 5668TIP3   OH238418   1.123   6.575  12.598  0.6268  0.3820  0.1225
 5668TIP3    H138419   1.137   6.653  12.544 -0.4711  0.5981  0.1365
 5668TIP3    H238420   1.131   6.502  12.537 -0.0313  0.5974 -0.2262
 5669TIP3   OH238421   4.935   1.551   3.875 -0.0676  0.3328  0.7853
 5669TIP3    H138422   4.967   1.461   3.874  0.1399  0.3970  1.5591
 5669TIP3    H238423   4.878   1.557   3.798 -0.2798 -0.5267  0.8719
 5670TIP3   OH238424   1.335   6.008   0.675 -0.5563 -0.7522  0.4719
 5670TIP3    H138425   1.271   6.043   0.613  0.5494 -1.5636 -1.1817
 5670TIP3    H238426   1.289   5.938   0.721 -0.9837 -1.0824 -0.4491
 5671TIP3   OH238427   6.596   5.944   1.124 -0.1553 -0.1535  0.3643
 5671TIP3    H138428   6.505   5.952   1.095  0.3345  0.2465 -1.0593
 5671TIP3    H238429   6.625   6.034   1.138  0.0049 -0.2856  0.9002
 5672TIP3   OH238430   6.456   3.585  11.510 -0.0763  0.5390  0.7654
 5672TIP3    H138431   6.488   3.613  11.595  0.3190 -0.8831  1.0977
 5672TIP3    H238432   6.401   3.509  11.529  2.3508 -1.6341 -0.4707
 5673TIP3   OH238433   2.157   3.446   0.518 -0.1748 -0.4672 -0.2073
 5673TIP3    H138434   2.217   3.479   0.585  0.5247 -1.7759 -0.1815
 5673TIP3    H238435   2.073   3.436   0.563  0.2005 -0.9832  0.3724
 5674TIP3   OH238436   1.666   5.364   6.673  0.1586 -0.3546 -0.2596
 5674TIP3    H138437   1.627   5.278   6.659 -0.4844  0.3062 -2.8156
 5674TIP3    H238438   1.601   5.425   6.637  0.2094  1.2856  2.2851
 5675TIP3   OH238439   2.416   2.882   1.990  0.1369  0.2246 -0.4955
 5675TIP3    H138440   2.478   2.812   2.011 -1.2458 -0.7857  0.2645
 5675TIP3    H238441   2.468   2.962   1.996  0.8217 -0.3934  2.5153
 5676TIP3   OH238442   2.826   0.251  15.511 -0.2000  0.1345 -0.1317
 5676TIP3    H138443   2.794   0.336  15.481 -1.1261 -0.6406 -1.3821
 5676TIP3    H238444   2.747   0.197  15.519  0.5140 -0.9928 -0.5756
 5677TIP3   OH238445   0.590   1.631   2.829  0.0330 -0.8951 -0.2075
 5677TIP3    H138446   0.542   1.578   2.893 -1.0900 -0.5134 -0.7121
 5677TIP3    H238447   0.521   1.674   2.778  0.9236  0.5216 -0.2319
 5678TIP3   OH238448   1.229   3.306  16.357  0.4827  0.2557  0.0890
 5678TIP3    H138449   1.292   3.307  16.285 -0.3451 -1.4191 -0.6797
 5678TIP3    H238450   1.220   3.214  16.380 -1.7992  0.4360  0.0578
 5679TIP3   OH238451   5.419   0.985  10.795 -0.5029  0.2746  0.0546
 5679TIP3    H138452   5.389   0.933  10.870  1.8478  1.6533  2.0249
 5679TIP3    H238453   5.503   0.947  10.772 -0.6197  0.6953 -1.0591
 5680TIP3   OH238454   2.046   4.844   0.629  0.2376 -0.0527  0.0104
 5680TIP3    H138455   2.127   4.824   0.676  1.1361  0.7348 -1.1892
 5680TIP3    H238456   2.074   4.883   0.546 -1.2885 -2.1514 -1.5687
 5681TIP3   OH238457   4.478   2.395   3.575  0.4585 -0.9513 -0.2735
 5681TIP3    H138458   4.486   2.371   3.483 -1.2325 -0.4068 -0.5934
 5681TIP3    H238459   4.548   2.347   3.619  1.2586 -1.2441 -1.8315
 5682TIP3   OH238460   5.185   6.197  13.244 -0.5018  0.3085  0.2218
 5682TIP3    H138461   5.281   6.198  13.242 -0.5056  0.2026 -0.0493
 5682TIP3    H238462   5.161   6.122  13.190 -0.6940 -0.8713  1.9066
 5683TIP3   OH238463   4.710   5.611  14.818  0.0442 -0.1527 -0.3069
 5683TIP3    H138464   4.664   5.695  14.828 -0.5503 -0.1407 -2.7040
 5683TIP3    H238465   4.665   5.552  14.878 -0.1534  0.9912  0.7042
 5684TIP3   OH238466   4.064   2.371   1.131 -0.2469 -0.0687  0.3813
 5684TIP3    H138467   4.147   2.408   1.102 -0.8657  1.1936  0.1729
 5684TIP3    H238468   4.044   2.417   1.213 -0.4762 -0.7480  0.7135
 5685TIP3   OH238469   1.154   5.491   0.374 -0.0550  0.2225 -0.2073
 5685TIP3    H138470   1.127   5.433   0.302 -0.8037 -1.4236  1.3595
 5685TIP3    H238471   1.249   5.481   0.378 -0.1217 -0.4954 -0.3019
 5686TIP3   OH238472   5.774   1.352  14.214 -0.7843  0.0399 -0.0151
 5686TIP3    H138473   5.865   1.353  14.243 -1.1295 -2.2036  1.2643
 5686TIP3    H238474   5.759   1.439  14.177  1.5574  0.7802  0.7241
 5687TIP3   OH238475   2.910   1.353  12.914  0.6842 -0.0647 -0.7419
 5687TIP3    H138476   2.930   1.445  12.930  1.0458 -0.0286 -1.3880
 5687TIP3    H238477   2.919   1.343  12.819 -2.2716 -0.0663 -1.0772
 5688TIP3   OH238478   3.771   6.185   5.413 -0.1787  0.2540 -0.3861
 5688TIP3    H138479   3.816   6.196   5.497  1.3264 -2.0548 -0.8574
 5688TIP3    H238480   3.839   6.201   5.347 -1.0657  0.8876 -1.1534
 5689TIP3   OH238481   0.157   4.850   4.459 -0.2448 -0.0081  0.7209
 5689TIP3    H138482   0.190   4.821   4.374 -1.0539 -1.4192  0.8669
 5689TIP3    H238483   0.103   4.927   4.439 -1.1345 -0.8377 -0.1698
 5690TIP3   OH238484   5.512   3.677  15.545  0.4888 -0.1990 -0.2488
 5690TIP3    H138485   5.469   3.596  15.518 -0.0213 -0.3482  0.9977
 5690TIP3    H238486   5.485   3.741  15.478 -2.1667 -0.1500  0.7807
 5691TIP3   OH238487   3.611   1.593  14.518 -0.9946 -0.1810 -0.3053
 5691TIP3    H138488   3.570   1.636  14.443 -2.2189  0.8952  0.9498
 5691TIP3    H238489   3.652   1.664  14.567 -0.3296 -0.8523  0.1106
 5692TIP3   OH238490   4.860   3.924  16.241 -0.2017 -0.3836  0.2004
 5692TIP3    H138491   4.800   3.958  16.307 -0.3448 -0.3438  0.0490
 5692TIP3    H238492   4.944   3.965  16.260  0.5386 -2.7793  2.3266
 5693TIP3   OH238493   3.744   5.308   4.095 -0.7578  0.2353  0.0287
 5693TIP3    H138494   3.659   5.351   4.082 -0.9969 -0.8087 -2.1977
 5693TIP3    H238495   3.786   5.312   4.009  1.1333  0.0688  0.9310
 5694TIP3   OH238496   0.350   0.521  11.401  0.6440 -0.2777 -0.5229
 5694TIP3    H138497   0.443   0.523  11.380  1.1109  1.6756  1.4739
 5694TIP3    H238498   0.342   0.580  11.476 -2.1990 -0.4509 -0.6508
 5695TIP3   OH238499   6.138   1.805   3.262  0.7331  0.5167 -0.3543
 5695TIP3    H138500   6.066   1.751   3.295  0.5071  0.5728 -0.7579
 5695TIP3    H238501   6.114   1.895   3.287  1.1962  0.4139  0.4726
 5696TIP3   OH238502   4.652   2.885   6.247  0.3484  0.3136  0.2459
 5696TIP3    H138503   4.680   2.936   6.322  1.3927  0.3780 -0.1757
 5696TIP3    H238504   4.592   2.820   6.283  1.9630 -0.5839  1.3390
 5697TIP3   OH238505   2.568   1.281  15.101  0.2429 -0.6198 -0.4536
 5697TIP3    H138506   2.574   1.374  15.077  1.0017  0.2481  2.8606
 5697TIP3    H238507   2.655   1.259  15.133 -1.1531 -1.1554  3.1491
 5698TIP3   OH238508   1.459   4.506  11.894 -0.0975  0.1224 -0.3919
 5698TIP3    H138509   1.437   4.518  11.986  0.8551 -1.7341  0.0994
 5698TIP3    H238510   1.393   4.444  11.862  0.4010 -0.3160 -0.5851
 5699TIP3   OH238511   2.754   3.097  17.203 -0.1981  0.1300 -0.0523
 5699TIP3    H138512   2.692   3.166  17.228 -1.1553 -0.6310 -0.3117
 5699TIP3    H238513   2.839   3.142  17.196 -0.4007  0.8508  1.9632
 5700TIP3   OH238514   3.015   3.201   4.131  0.0367  0.7453 -0.3232
 5700TIP3    H138515   3.077   3.228   4.063  0.7599  0.0718  0.0613
 5700TIP3    H238516   2.933   3.184   4.085  0.7613 -0.5575 -1.1368
 5701TIP3   OH238517   0.001   0.280   4.475 -0.0753 -0.0461 -0.2178
 5701TIP3    H138518  -0.046   0.315   4.399 -1.3327  1.0116  1.0254
 5701TIP3    H238519  -0.048   0.202   4.500  0.8089 -0.8616 -0.9536
 5702TIP3   OH238520   3.808   1.672   3.573  0.3370 -0.2432 -0.1998
 5702TIP3    H138521   3.829   1.765   3.585 -0.0852  0.4245 -4.0457
 5702TIP3    H238522   3.721   1.662   3.612 -0.9592  1.7462 -2.4177
 5703TIP3   OH238523   1.256   2.831  13.727  0.0051  0.5781 -0.2073
 5703TIP3    H138524   1.173   2.867  13.759 -0.1932 -0.2155  0.1902
 5703TIP3    H238525   1.237   2.738  13.712  0.9675  0.2898  0.3607
 5704TIP3   OH238526   2.196   4.416   4.377  0.1333  0.5690  0.3353
 5704TIP3    H138527   2.186   4.355   4.305  1.3247 -0.4707  1.0392
 5704TIP3    H238528   2.212   4.361   4.454 -0.4676  1.6786  1.2876
 5705TIP3   OH238529   2.966   0.708  17.234  0.1161 -0.2999 -0.1493
 5705TIP3    H138530   2.953   0.747  17.320  0.1154 -0.8323  0.0934
 5705TIP3    H238531   3.059   0.683  17.233  0.8759  2.3828 -1.4237
 5706TIP3   OH238532   2.544   0.477   6.489 -0.2200 -0.1845  0.6368
 5706TIP3    H138533   2.482   0.441   6.426  0.1102 -1.0313  0.7939
 5706TIP3    H238534   2.496   0.548   6.531 -0.9415 -0.5650  0.4634
 5707TIP3   OH238535   4.616   2.779   2.204 -0.3349  0.0021 -0.1251
 5707TIP3    H138536   4.622   2.689   2.171  0.2210 -0.2125  0.5419
 5707TIP3    H238537   4.702   2.796   2.242 -1.5423 -0.4589  2.9472
 5708TIP3   OH238538   2.358   6.532  14.729  0.7261  0.2371 -0.3518
 5708TIP3    H138539   2.344   6.521  14.823  0.6326 -0.1088 -0.4030
 5708TIP3    H238540   2.286   6.587  14.699 -0.1788 -1.0320 -0.5144
 5709TIP3   OH238541   1.963   0.123   2.058  0.3245  0.1587 -0.2060
 5709TIP3    H138542   2.018   0.099   2.133 -0.5813  0.7833  0.6636
 5709TIP3    H238543   1.875   0.099   2.084 -0.3193  2.5431 -0.1280
 5710TIP3   OH238544   0.363   3.364   2.960  0.3068 -0.1821 -0.0369
 5710TIP3    H138545   0.324   3.293   3.010 -0.2528  1.6047  2.1488
 5710TIP3    H238546   0.302   3.379   2.888 -0.4367 -0.7707  0.4666
 5711TIP3   OH238547   5.912   4.354  16.683  0.0752  0.2535 -0.2522
 5711TIP3    H138548   5.921   4.356  16.778  2.0231  0.6564 -0.4164
 5711TIP3    H238549   6.001   4.342  16.651  0.2225  5.2026 -2.1593
 5712TIP3   OH238550   6.628   5.707  16.828 -0.5372 -0.3719 -0.0494
 5712TIP3    H138551   6.622   5.698  16.923 -0.1179  0.4549  0.0625
 5712TIP3    H238552   6.710   5.664  16.805 -0.5365 -0.3933 -0.0089
 5713TIP3   OH238553   5.400   6.011   5.308  0.0718  0.6711  0.3252
 5713TIP3    H138554   5.457   5.950   5.262 -1.4836 -1.2617  0.9167
 5713TIP3    H238555   5.456   6.052   5.374  0.8515 -0.9201  0.6525
 5714TIP3   OH238556   0.505   5.023  15.461  0.5856 -0.0490  0.1477
 5714TIP3    H138557   0.469   4.995  15.377  0.5261  1.7811 -0.4670
 5714TIP3    H238558   0.578   4.964  15.478 -0.1360 -1.1704 -0.6126
 5715TIP3   OH238559   5.326   2.274   2.627  0.5061  0.1143 -0.3667
 5715TIP3    H138560   5.358   2.291   2.715  1.3938  0.8981 -0.8393
 5715TIP3    H238561   5.388   2.317   2.569 -0.1430 -0.2773 -1.3815
 5716TIP3   OH238562   4.599   1.963  14.761  0.0644 -0.1790  0.2292
 5716TIP3    H138563   4.536   2.034  14.757  0.0626 -0.2439 -1.0095
 5716TIP3    H238564   4.546   1.883  14.763  0.0979 -0.2400 -0.9728
 5717TIP3   OH238565   4.733   6.223  11.454  0.0030  0.2723 -0.0302
 5717TIP3    H138566   4.761   6.278  11.527  0.6124  0.4723 -0.4072
 5717TIP3    H238567   4.657   6.268  11.417 -0.8485 -0.2834  1.0161
 5718TIP3   OH238568   3.355   2.498  11.288  0.2222  0.4568  0.6998
 5718TIP3    H138569   3.327   2.419  11.244  1.1116  0.7636 -0.4378
 5718TIP3    H238570   3.319   2.570  11.236  2.6042  0.8415 -0.4762
 5719TIP3   OH238571   0.323   5.101   0.315 -0.0148 -0.5307 -0.4323
 5719TIP3    H138572   0.270   5.065   0.244 -1.3713  0.6149 -0.0404
 5719TIP3    H238573   0.261   5.151   0.368  0.6249 -2.8491  2.6133
 5720TIP3   OH238574   5.240   6.379  11.931 -0.4462  0.0529 -0.1462
 5720TIP3    H138575   5.156   6.409  11.896 -0.6286 -1.2614 -0.8449
 5720TIP3    H238576   5.299   6.453  11.916 -1.1593  0.4877 -0.8656
 5721TIP3   OH238577   4.953   3.163   3.935  0.4042  0.1681  0.1000
 5721TIP3    H138578   4.877   3.142   3.880  0.1856  0.3530  0.3319
 5721TIP3    H238579   5.018   3.097   3.911  1.6821  2.4541 -3.1275
 5722TIP3   OH238580   2.122   4.658   1.034 -0.2619  0.3806 -0.5865
 5722TIP3    H138581   2.116   4.726   1.101  0.4656 -0.8239  0.7064
 5722TIP3    H238582   2.153   4.705   0.956 -0.1398  1.5997  0.1799
 5723TIP3   OH238583   2.533   0.293   4.807 -0.4084 -0.2672  0.9989
 5723TIP3    H138584   2.575   0.316   4.890  2.6901  1.0387 -0.8380
 5723TIP3    H238585   2.577   0.213   4.780 -0.1475  0.2802 -0.2235
 5724TIP3   OH238586   5.514   3.466   3.790  0.1457 -0.2416  0.1153
 5724TIP3    H138587   5.519   3.409   3.714 -3.1547 -1.0093  0.4245
 5724TIP3    H238588   5.506   3.407   3.865  0.8836  0.5640  0.8487
 5725TIP3   OH238589   4.145   0.372  15.407 -0.8481  0.0761  0.0675
 5725TIP3    H138590   4.054   0.386  15.382 -1.2037 -1.8087  0.2370
 5725TIP3    H238591   4.184   0.328  15.332  0.1762  1.6870 -0.3697
 5726TIP3   OH238592   0.611   0.205   3.034 -0.2436 -0.0517  0.3800
 5726TIP3    H138593   0.517   0.196   3.017 -0.2142 -0.7628  0.6136
 5726TIP3    H238594   0.642   0.264   2.965 -0.3370 -2.0371 -1.3753
 5727TIP3   OH238595   1.435   4.411   0.229  0.3425 -0.3034  0.3590
 5727TIP3    H138596   1.393   4.388   0.146 -0.6718  2.2307  0.1104
 5727TIP3    H238597   1.374   4.380   0.296 -1.0360  1.6360  0.0364
 5728TIP3   OH238598   0.186   4.375   3.551  0.1843 -0.6868 -0.0419
 5728TIP3    H138599   0.130   4.372   3.474  1.2304 -1.7257 -0.7683
 5728TIP3    H238600   0.273   4.356   3.519  0.7627 -0.3588  1.2849
 5729TIP3   OH238601   3.046   5.658  11.690 -0.2418 -0.1741 -0.3956
 5729TIP3    H138602   3.122   5.701  11.651 -0.6793  0.1293 -0.9254
 5729TIP3    H238603   2.973   5.716  11.670 -0.4366  0.1342  1.1415
 5730TIP3   OH238604   4.160   0.497  11.123  0.0135  0.2717  0.0315
 5730TIP3    H138605   4.083   0.545  11.153 -1.6753 -2.4197  0.1873
 5730TIP3    H238606   4.198   0.552  11.055 -2.3517  1.4224 -0.3960
 5731TIP3   OH238607   3.444   2.766   5.447  0.0896  0.6579 -0.0598
 5731TIP3    H138608   3.532   2.795   5.471  1.1386  0.1005 -2.9518
 5731TIP3    H238609   3.449   2.670   5.447 -1.3083  0.5389  2.3269
 5732TIP3   OH238610   3.251   2.309   1.461 -0.0716 -0.0172 -0.7429
 5732TIP3    H138611   3.289   2.239   1.514 -1.3206  1.2659  1.9504
 5732TIP3    H238612   3.178   2.267   1.415 -0.4583 -0.6415  0.4158
 5733TIP3   OH238613   3.094   1.543  14.500 -0.2314  0.5136 -0.2758
 5733TIP3    H138614   3.086   1.628  14.544 -1.2626 -0.0232  0.5906
 5733TIP3    H238615   3.117   1.565  14.410 -1.2755  1.7520 -0.2572
 5734TIP3   OH238616   1.500   6.363   1.515 -0.1633  0.4584  0.3036
 5734TIP3    H138617   1.500   6.451   1.552 -1.8989  0.5358  0.1860
 5734TIP3    H238618   1.573   6.363   1.453  3.2297  0.1250  4.0731
 5735TIP3   OH238619   4.686   1.831  11.494  0.1714 -0.2590  0.0031
 5735TIP3    H138620   4.647   1.887  11.561 -1.8553 -1.0368 -0.4862
 5735TIP3    H238621   4.673   1.880  11.412  1.7973  0.2567  0.0317
 5736TIP3   OH238622   5.131   6.776   5.281  0.6599  0.3937 -0.1146
 5736TIP3    H138623   5.142   6.860   5.325  0.6928 -0.1632  0.9436
 5736TIP3    H238624   5.218   6.735   5.286  0.1826 -0.4897  0.9939
 5737TIP3   OH238625   2.586   5.789  15.042 -0.1309  0.7627 -0.4015
 5737TIP3    H138626   2.627   5.829  14.966 -0.2094  1.7472  0.0770
 5737TIP3    H238627   2.640   5.816  15.116 -2.0721  2.7456  0.3460
 5738TIP3   OH238628   2.866   5.668  10.791 -0.0441 -0.4489  0.4240
 5738TIP3    H138629   2.953   5.648  10.756  0.4430  0.3704  1.1245
 5738TIP3    H238630   2.842   5.591  10.842 -0.1289 -1.0561 -0.5444
 5739TIP3   OH238631   6.572   1.215  13.688 -0.7848 -0.4951  0.9300
 5739TIP3    H138632   6.521   1.186  13.612 -0.2287 -0.3803  0.5176
 5739TIP3    H238633   6.640   1.271  13.652 -1.9018  1.4315  1.7362
 5740TIP3   OH238634   0.024   2.042   2.239 -0.1068  0.3378  0.1155
 5740TIP3    H138635   0.006   2.116   2.179 -0.8059 -0.1658 -0.3097
 5740TIP3    H238636   0.119   2.043   2.250 -0.0590  1.0041 -0.2807
 5741TIP3   OH238637   6.454   6.691  14.650 -0.7066  0.1603  0.6339
 5741TIP3    H138638   6.397   6.671  14.723 -1.6094 -2.0349 -0.6308
 5741TIP3    H238639   6.492   6.607  14.625  0.9529  1.1508 -0.3090
 5742TIP3   OH238640   0.583   6.008   3.031  0.0909  0.5188 -0.3767
 5742TIP3    H138641   0.617   5.994   2.943  2.9376  1.0294  0.5896
 5742TIP3    H238642   0.581   6.103   3.042 -1.1635  0.4814 -0.2123
 5743TIP3   OH238643   0.321   4.563  16.140  0.1568  0.1032 -0.0571
 5743TIP3    H138644   0.376   4.642  16.136  0.5659 -0.1387  0.6853
 5743TIP3    H238645   0.238   4.594  16.176  0.1380  0.2838 -0.2482
 5744TIP3   OH238646   5.396   4.524  11.736  0.4961  0.3981  0.7827
 5744TIP3    H138647   5.404   4.447  11.792  1.4398 -1.1228 -1.3428
 5744TIP3    H238648   5.344   4.493  11.661  1.4894  1.6180 -0.4382
 5745TIP3   OH238649   3.182   2.347   0.503 -0.2685  0.2087 -0.2034
 5745TIP3    H138650   3.239   2.288   0.553  0.2469 -1.6019 -2.8265
 5745TIP3    H238651   3.232   2.366   0.423 -1.2613  2.6675 -0.2750
 5746TIP3   OH238652   6.760   2.676  14.546 -0.0761 -0.6286 -0.0116
 5746TIP3    H138653   6.737   2.766  14.522 -0.0595 -0.8247 -0.7690
 5746TIP3    H238654   6.851   2.667  14.519 -0.4862 -1.3060 -1.2154
 5747TIP3   OH238655   4.232   3.411  12.686 -0.0264 -0.4854  0.1951
 5747TIP3    H138656   4.183   3.469  12.744  2.6499 -0.4300  2.5034
 5747TIP3    H238657   4.305   3.464  12.655  0.5170 -1.5843 -0.4226
 5748TIP3   OH238658   2.277   3.672  15.284  0.1470  0.1463  0.1409
 5748TIP3    H138659   2.189   3.672  15.246  0.4437 -0.9986 -0.5927
 5748TIP3    H238660   2.324   3.741  15.237 -0.0712  0.0850 -0.1659
 5749TIP3   OH238661   6.371   3.744  16.596 -0.2425 -0.6210  0.2632
 5749TIP3    H138662   6.384   3.827  16.550  0.6501 -0.8078  0.1843
 5749TIP3    H238663   6.305   3.764  16.662 -1.5764 -0.3477 -1.0958
 5750TIP3   OH238664   4.431   1.501   3.657 -0.0919 -0.3419  0.2908
 5750TIP3    H138665   4.401   1.585   3.691 -0.1359 -0.4581  0.5386
 5750TIP3    H238666   4.382   1.489   3.576  1.9932  1.2282 -1.2609
 5751TIP3   OH238667   3.614   6.224  17.062  0.2159 -0.5681 -0.1010
 5751TIP3    H138668   3.562   6.289  17.015  2.2300  1.1044 -0.1181
 5751TIP3    H238669   3.560   6.198  17.137 -1.2924 -0.1275 -1.0298
 5752TIP3   OH238670   4.027   6.363   0.309 -0.1000  0.0188 -0.1352
 5752TIP3    H138671   4.112   6.386   0.346  0.4988 -0.5357 -1.1332
 5752TIP3    H238672   4.046   6.297   0.243 -0.9245  2.0940 -2.5527
 5753TIP3   OH238673   0.908   0.863   6.258 -0.1452  0.3033  0.4492
 5753TIP3    H138674   0.852   0.890   6.331 -1.1935  2.0096 -0.9349
 5753TIP3    H238675   0.849   0.815   6.200  0.2234  0.5713 -0.1568
 5754TIP3   OH238676   1.852   3.345   0.253 -0.7724  0.4671  0.0667
 5754TIP3    H138677   1.851   3.362   0.159  0.8094  0.0813 -0.0376
 5754TIP3    H238678   1.942   3.318   0.272 -1.2789 -0.2738  1.5482
 5755TIP3   OH238679   2.620   0.764   3.620  0.4097 -0.5820  0.3827
 5755TIP3    H138680   2.600   0.839   3.675  0.6496  0.0567 -0.3907
 5755TIP3    H238681   2.701   0.788   3.574  0.8509 -1.5759  0.6144
 5756TIP3   OH238682   2.638   2.502   0.680 -0.1856  0.5136 -0.2815
 5756TIP3    H138683   2.681   2.560   0.743  0.3828  0.0140 -0.1980
 5756TIP3    H238684   2.672   2.415   0.701 -1.4891  0.0569 -0.0138
 5757TIP3   OH238685   0.095   2.297  15.010 -0.2534  0.2472 -0.3356
 5757TIP3    H138686   0.007   2.284  15.046  0.3503 -0.5219  0.8996
 5757TIP3    H238687   0.139   2.352  15.075  0.9776 -1.4887  0.3493
 5758TIP3   OH238688   0.123   2.813   3.716 -0.1401  0.3672  0.3497
 5758TIP3    H138689   0.185   2.864   3.768  0.8171  1.6850 -1.9674
 5758TIP3    H238690   0.174   2.738   3.685 -0.0202  0.7786 -0.4932
 5759TIP3   OH238691   0.218   1.679   5.339 -1.1067 -0.2976  0.0036
 5759TIP3    H138692   0.288   1.616   5.356 -1.7207 -1.2835 -1.1063
 5759TIP3    H238693   0.142   1.626   5.318 -1.6051  0.8158 -1.0881
 5760TIP3   OH238694   3.671   6.057  14.835 -0.8010 -0.3990  0.0863
 5760TIP3    H138695   3.719   6.018  14.908  0.9888  2.1323  0.3043
 5760TIP3    H238696   3.591   6.092  14.876  0.9952  2.5387  1.2008
 5761TIP3   OH238697   5.054   6.017   1.171 -0.7781 -0.1252 -0.1032
 5761TIP3    H138698   4.965   5.983   1.175 -0.6835 -0.6896 -2.0525
 5761TIP3    H238699   5.054   6.073   1.093  0.4568  0.1904  0.1144
 5762TIP3   OH238700   5.060   5.805  12.586 -0.3500 -0.3803 -0.1869
 5762TIP3    H138701   5.008   5.869  12.634 -0.1504 -0.9532  0.8091
 5762TIP3    H238702   5.040   5.822  12.494  2.0517  3.0924 -0.1436
 5763TIP3   OH238703   4.331   0.866   4.876 -0.6578  0.6748 -0.2072
 5763TIP3    H138704   4.375   0.827   4.801 -0.3932  0.8979 -0.1685
 5763TIP3    H238705   4.262   0.803   4.898 -0.8751  0.7124 -0.7679
 5764TIP3   OH238706   2.715   6.785   5.957  0.4993  0.5183 -0.2521
 5764TIP3    H138707   2.782   6.834   5.909  0.1017  0.1978 -1.1480
 5764TIP3    H238708   2.656   6.753   5.889  0.4158 -0.6793  0.3832
 5765TIP3   OH238709   6.406   4.579   2.464  0.3229  0.3001  0.2705
 5765TIP3    H138710   6.490   4.558   2.424 -0.7407 -1.1926 -1.1976
 5765TIP3    H238711   6.353   4.501   2.451 -1.3076  1.2428  1.1841
 5766TIP3   OH238712   6.769   1.849  15.912  0.4834  0.1534  0.7596
 5766TIP3    H138713   6.750   1.768  15.958  1.1855 -0.2020  0.4429
 5766TIP3    H238714   6.781   1.823  15.820  0.5290  0.6363  0.6242
 5767TIP3   OH238715   0.494   0.510   3.018  0.0966 -0.3267  0.1348
 5767TIP3    H138716   0.408   0.470   3.025  0.5803 -1.4242 -0.1315
 5767TIP3    H238717   0.508   0.553   3.103 -1.0689  0.6168 -0.1359
 5768TIP3   OH238718   5.478   3.616  11.765 -0.0261  0.4502 -0.2421
 5768TIP3    H138719   5.533   3.569  11.702  0.4363  0.7000 -0.0204
 5768TIP3    H238720   5.535   3.634  11.840 -0.0838  1.7098 -0.4809
 5769TIP3   OH238721   0.414   1.929   3.024  0.4473  0.1759 -0.2634
 5769TIP3    H138722   0.349   1.942   2.955  0.5724  0.9508 -0.2411
 5769TIP3    H238723   0.418   1.834   3.036  0.4840  0.0363 -1.3735
 5770TIP3   OH238724   3.310   3.397   3.034 -0.5982  0.3225 -0.4393
 5770TIP3    H138725   3.302   3.365   2.944  1.1574  0.4003 -0.6341
 5770TIP3    H238726   3.396   3.368   3.063 -0.2883  2.0947  0.5123
 5771TIP3   OH238727   6.208   2.984  11.409 -0.0035 -0.3296 -0.2319
 5771TIP3    H138728   6.148   2.919  11.372 -0.6752  0.1469  0.0157
 5771TIP3    H238729   6.151   3.048  11.451  0.6347  0.6122 -0.7883
 5772TIP3   OH238730   3.179   1.174  12.306  0.2516 -0.5975  0.8132
 5772TIP3    H138731   3.169   1.100  12.246  0.2219  0.3219 -0.3378
 5772TIP3    H238732   3.200   1.134  12.391 -3.7969 -2.1752  1.1877
 5773TIP3   OH238733   1.314   6.379  13.470 -0.3182  0.1199  0.3802
 5773TIP3    H138734   1.254   6.451  13.451 -1.7678 -1.0348  0.4567
 5773TIP3    H238735   1.384   6.388  13.405 -0.6141  1.4328  0.2344
 5774TIP3   OH238736   1.102   5.493  15.022 -0.2677  0.2389  0.3209
 5774TIP3    H138737   1.045   5.479  15.098  0.1330  2.2520  1.0456
 5774TIP3    H238738   1.170   5.427  15.031 -1.3656 -0.8778  0.5666
 5775TIP3   OH238739   1.861   0.184   0.324 -0.1347 -0.3257 -0.2748
 5775TIP3    H138740   1.935   0.196   0.384 -1.5556  1.1410  1.2388
 5775TIP3    H238741   1.809   0.114   0.363 -0.0897 -0.6494 -0.7909
 5776TIP3   OH238742   6.258   0.418  16.978 -0.3850  0.2652 -0.0263
 5776TIP3    H138743   6.296   0.360  17.044 -4.5004 -1.3871  1.0312
 5776TIP3    H238744   6.297   0.389  16.895  2.2838  0.1696  1.2038
 5777TIP3   OH238745   6.418   0.681  13.860 -0.2930  0.1162  0.0661
 5777TIP3    H138746   6.345   0.620  13.869  0.2004 -0.6048 -0.7371
 5777TIP3    H238747   6.420   0.701  13.767  0.0807  0.7152  0.2028
 5778TIP3   OH238748   2.467   6.774   5.308 -0.6426 -0.4035  0.6826
 5778TIP3    H138749   2.505   6.736   5.228 -0.0725 -0.0665  0.7964
 5778TIP3    H238750   2.518   6.737   5.379 -0.5461  0.0313  0.8369
 5779TIP3   OH238751   1.007   6.100   1.767 -0.2362  0.6211  0.0448
 5779TIP3    H138752   1.056   6.021   1.790  0.0225  0.4446 -1.0430
 5779TIP3    H238753   1.071   6.156   1.723 -0.7986  0.7490 -0.6281
 5780TIP3   OH238754   1.681   1.146  11.737 -0.3148 -0.0634 -0.7267
 5780TIP3    H138755   1.771   1.173  11.719  0.1027 -0.4140  0.7917
 5780TIP3    H238756   1.689   1.076  11.801 -1.6763 -0.0360 -0.5062
 5781TIP3   OH238757   5.098   3.284  12.033  0.3339 -0.1019  0.5618
 5781TIP3    H138758   5.182   3.240  12.044  0.0881 -0.2882  1.8483
 5781TIP3    H238759   5.058   3.280  12.120 -0.7573  0.4853  0.0967
 5782TIP3   OH238760   5.305   5.759  16.316  0.3889  0.7045 -0.0485
 5782TIP3    H138761   5.248   5.696  16.360  1.2886 -0.5508 -0.6562
 5782TIP3    H238762   5.383   5.764  16.372  0.8844  0.2603 -0.6974
 5783TIP3   OH238763   6.504   1.697   3.367 -0.5341  0.5591  0.0803
 5783TIP3    H138764   6.599   1.700   3.364 -0.4779 -2.1673 -1.6508
 5783TIP3    H238765   6.476   1.780   3.328  1.1231 -0.7806 -4.1890
 5784TIP3   OH238766   4.279   5.785  10.963  0.6069 -0.4792 -0.3755
 5784TIP3    H138767   4.339   5.834  10.907  0.1390  0.6268  0.0884
 5784TIP3    H238768   4.197   5.783  10.914  0.5553 -0.5933 -0.2855
 5785TIP3   OH238769   1.456   1.933  11.955  0.4470  0.3574  0.3333
 5785TIP3    H138770   1.510   1.964  11.884 -1.4565  1.2230 -0.7702
 5785TIP3    H238771   1.413   1.855  11.920  0.7340 -0.1570  1.1016
 5786TIP3   OH238772   0.014   0.766   0.012  0.3998 -0.3524  0.3085
 5786TIP3    H138773   0.109   0.755   0.018  0.7430  2.4602  0.4063
 5786TIP3    H238774  -0.003   0.854   0.046 -2.1161 -0.3663 -0.7709
 5787TIP3   OH238775   1.209   2.031   0.566 -0.2965 -0.3653  0.2276
 5787TIP3    H138776   1.299   2.009   0.546 -0.3493 -1.0766  0.7634
 5787TIP3    H238777   1.174   1.954   0.611 -1.3593 -0.3426 -0.5431
 5788TIP3   OH238778   4.427   1.291   2.261 -0.4143 -0.5032 -0.2623
 5788TIP3    H138779   4.372   1.365   2.233 -0.8407 -1.6717 -2.6394
 5788TIP3    H238780   4.413   1.224   2.194  2.3058 -1.6120  0.2060
 5789TIP3   OH238781   0.881   3.604   0.472  0.2803 -0.0958  0.3966
 5789TIP3    H138782   0.857   3.514   0.451 -0.0358  0.5385 -2.1061
 5789TIP3    H238783   0.970   3.614   0.438  0.7367  0.2273  1.6478
 5790TIP3   OH238784   1.436   3.974   2.910 -0.0354 -0.1321  0.0102
 5790TIP3    H138785   1.387   3.892   2.920  0.6812 -0.6090 -0.3205
 5790TIP3    H238786   1.488   3.981   2.990  2.2449 -1.6009 -1.3185
 5791TIP3   OH238787   1.434   6.539   4.520 -0.1917 -0.5430  0.0843
 5791TIP3    H138788   1.480   6.457   4.540  0.5541 -0.7165 -2.2200
 5791TIP3    H238789   1.504   6.602   4.505 -0.7264 -0.1954 -0.9886
 5792TIP3   OH238790   4.080   5.087   0.512  0.6037 -0.3487  0.4599
 5792TIP3    H138791   4.126   5.006   0.488  0.2946 -1.2003  2.6440
 5792TIP3    H238792   4.141   5.132   0.571 -1.2262 -1.4247  3.2869
 5793TIP3   OH238793   3.668   0.216   5.735  0.2725  0.4222  0.1480
 5793TIP3    H138794   3.623   0.137   5.766 -0.8744  1.0949  0.2537
 5793TIP3    H238795   3.607   0.255   5.672  1.1784  0.8024 -0.5121
 5794TIP3   OH238796   0.498   6.013   2.280  0.9285  0.7856 -0.2247
 5794TIP3    H138797   0.426   5.958   2.251  1.5510  0.0820 -0.4531
 5794TIP3    H238798   0.576   5.974   2.240  1.3185  2.1509 -0.8653
 5795TIP3   OH238799   0.331   5.084  14.392  0.0740  0.0867 -0.1462
 5795TIP3    H138800   0.246   5.111  14.359 -0.0693 -0.0560  0.0990
 5795TIP3    H238801   0.313   5.056  14.482  0.4132  0.2469 -0.0284
 5796TIP3   OH238802   2.288   5.158  11.830  0.0032  0.2398 -0.0347
 5796TIP3    H138803   2.357   5.096  11.807 -0.5886 -0.0435 -1.0701
 5796TIP3    H238804   2.305   5.234  11.775 -0.6871  0.0549 -0.5001
 5797TIP3   OH238805   5.707   0.351   1.077  0.1849 -0.5141  0.3801
 5797TIP3    H138806   5.617   0.358   1.107  0.6502 -0.0136  1.6855
 5797TIP3    H238807   5.756   0.415   1.129  1.1377 -0.1362 -0.9488
 5798TIP3   OH238808   1.765   6.633  12.517 -0.2563  0.2569  0.3551
 5798TIP3    H138809   1.840   6.582  12.547 -0.4181 -0.7754 -0.9344
 5798TIP3    H238810   1.692   6.602  12.571  0.2320  1.2330  1.5795
 5799TIP3   OH238811   2.190   0.539  14.794  0.0063  0.0900  0.0519
 5799TIP3    H138812   2.114   0.564  14.846  0.0818  1.6226 -0.5480
 5799TIP3    H238813   2.179   0.585  14.711  1.0993 -0.4397 -0.4030
 5800TIP3   OH238814   6.368   4.122  11.976 -0.1874 -0.2493 -0.4374
 5800TIP3    H138815   6.375   4.217  11.965 -2.4559  0.0038  0.0506
 5800TIP3    H238816   6.362   4.087  11.887 -0.8570  0.2163 -0.5798
 5801TIP3   OH238817   4.450   4.289   3.733  0.0637 -0.4921 -0.0596
 5801TIP3    H138818   4.407   4.337   3.803  1.1088  0.5919 -0.1361
 5801TIP3    H238819   4.459   4.352   3.662  2.1615 -0.5226  0.1202
 5802TIP3   OH238820   4.859   5.331   2.430  0.5105  0.4223  0.1899
 5802TIP3    H138821   4.919   5.362   2.362 -0.6881 -0.3030 -1.2189
 5802TIP3    H238822   4.914   5.279   2.488  1.5864  1.2230 -0.0930
 5803TIP3   OH238823   5.028   3.416  10.945  0.3622  0.7962 -0.0693
 5803TIP3    H138824   5.005   3.324  10.928  0.6036  0.5331  0.9987
 5803TIP3    H238825   4.969   3.443  11.016 -0.4343  1.7921 -1.0880
 5804TIP3   OH238826   3.239   3.329  15.121 -0.5287  0.6316  0.5950
 5804TIP3    H138827   3.323   3.287  15.143  0.3733  2.2471  0.3265
 5804TIP3    H238828   3.214   3.290  15.038 -0.4728 -0.4926  1.1005
 5805TIP3   OH238829   5.697   2.155  15.002 -0.1026  0.5283 -0.2117
 5805TIP3    H138830   5.722   2.159  14.909 -0.1186  0.4924 -0.2179
 5805TIP3    H238831   5.627   2.220  15.011 -1.6276 -0.9834 -0.7211
 5806TIP3   OH238832   5.729   2.361   0.892 -0.1861  0.1854  0.2651
 5806TIP3    H138833   5.665   2.302   0.932  0.1903 -0.4812 -0.1087
 5806TIP3    H238834   5.685   2.446   0.889 -0.8821 -0.1665  0.4315
 5807TIP3   OH238835   0.655   0.173  12.532  0.1907 -0.1000 -0.3717
 5807TIP3    H138836   0.733   0.211  12.490 -0.4691  1.6583 -0.0527
 5807TIP3    H238837   0.683   0.085  12.559  1.6805  0.0437 -1.3760
 5808TIP3   OH238838   5.534   2.676   4.927 -0.0826  0.7942 -0.3034
 5808TIP3    H138839   5.601   2.744   4.922  0.0769  0.5498 -1.8609
 5808TIP3    H238840   5.452   2.720   4.906 -0.1007  0.6893 -0.4601
 5809TIP3   OH238841   5.208   3.401   1.886  0.3725  0.2086 -0.0138
 5809TIP3    H138842   5.163   3.326   1.847 -0.2706  0.5715  0.0235
 5809TIP3    H238843   5.142   3.440   1.944  0.4052  1.3495 -0.7424
 5810TIP3   OH238844   1.371   5.907  12.700 -0.8582  0.1833 -0.4721
 5810TIP3    H138845   1.380   5.828  12.647 -1.2578 -0.2030  0.0308
 5810TIP3    H238846   1.283   5.902  12.735 -1.2142  1.3302 -1.1834
 5811TIP3   OH238847   5.076   3.047  15.983  0.8846  0.4186  0.1320
 5811TIP3    H138848   4.994   3.065  15.936  0.6150 -0.6441  0.1813
 5811TIP3    H238849   5.081   2.952  15.986  1.8935  0.4833  0.5482
 5812TIP3   OH238850   2.194   2.900   3.404  0.3304 -0.2349  0.2652
 5812TIP3    H138851   2.195   2.941   3.317 -0.4277  1.5123  1.0617
 5812TIP3    H238852   2.103   2.878   3.419  0.1511  1.1750  1.3770
 5813TIP3   OH238853   1.985   2.572   6.764  0.2850 -0.2614 -0.2117
 5813TIP3    H138854   1.920   2.518   6.808 -0.1880  0.2301 -0.3058
 5813TIP3    H238855   1.947   2.660   6.762  1.7836  0.4647  1.5095
 5814TIP3   OH238856   4.169   6.022   1.228  0.2849  0.0365  0.2020
 5814TIP3    H138857   4.168   6.111   1.263 -0.3765 -0.2171  0.8541
 5814TIP3    H238858   4.164   6.032   1.133 -1.3415  0.6608  0.3357
 5815TIP3   OH238859   2.287   3.927  12.944  0.0609 -0.5734  0.1556
 5815TIP3    H138860   2.308   3.842  12.904  0.0068  0.7553 -2.8592
 5815TIP3    H238861   2.355   3.939  13.011  1.6322 -1.8293 -1.1575
 5816TIP3   OH238862   0.926   5.191  15.501  0.1656 -0.5617 -0.0931
 5816TIP3    H138863   0.972   5.235  15.572 -1.1979 -1.0435  1.1115
 5816TIP3    H238864   0.992   5.134  15.462  0.6923 -0.9480  1.3379
 5817TIP3   OH238865   3.590   3.102  12.478 -0.6180 -0.2690 -0.5374
 5817TIP3    H138866   3.597   3.119  12.384 -0.6639 -0.7376 -0.6294
 5817TIP3    H238867   3.621   3.182  12.519  1.3469 -0.7788 -0.9465
 5818TIP3   OH238868   0.463   0.907  11.893  0.4558 -0.3615  0.2000
 5818TIP3    H138869   0.390   0.959  11.860  0.6250  1.5400  2.6638
 5818TIP3    H238870   0.539   0.936  11.841 -0.1512 -0.9307 -1.0232
 5819TIP3   OH238871   0.991   5.520   4.311  0.0831 -0.2832  0.1026
 5819TIP3    H138872   0.959   5.434   4.286 -1.0471  0.5508 -1.4086
 5819TIP3    H238873   1.086   5.511   4.315  0.1348 -1.0614 -2.2093
 5820TIP3   OH238874   5.389   5.053  12.181  0.0882 -0.5241 -0.0571
 5820TIP3    H138875   5.353   4.970  12.211 -1.2655 -0.2382 -0.8337
 5820TIP3    H238876   5.447   5.082  12.252 -0.4358 -1.4923  0.7717
 5821TIP3   OH238877   2.535   4.259  15.724  0.2349  0.2211  0.6053
 5821TIP3    H138878   2.584   4.251  15.642 -1.0353 -1.8524  0.0132
 5821TIP3    H238879   2.450   4.294  15.697  0.4452  1.2431  1.2748
 5822TIP3   OH238880   5.732   4.128   3.727 -0.2638  0.5957  0.1794
 5822TIP3    H138881   5.812   4.102   3.772 -0.5144  0.3558  0.4973
 5822TIP3    H238882   5.685   4.182   3.791 -0.3936  0.6613  0.0289
 5823TIP3   OH238883   3.227   4.966  13.313 -0.2314  0.3760  0.3968
 5823TIP3    H138884   3.139   4.986  13.342 -0.0136  1.0621  0.5838
 5823TIP3    H238885   3.284   5.009  13.376  0.2507 -1.8782  1.5580
 5824TIP3   OH238886   3.025   3.899  13.462 -0.0249 -0.0535 -0.6353
 5824TIP3    H138887   3.015   3.805  13.473 -1.9355  0.3541  1.6024
 5824TIP3    H238888   3.051   3.930  13.549  1.4037  1.4199 -1.5430
 5825TIP3   OH238889   4.958   0.707   4.585 -0.0761  0.3002  0.6702
 5825TIP3    H138890   4.925   0.628   4.629 -0.6377  0.7393  1.0431
 5825TIP3    H238891   4.968   0.681   4.494 -0.9550  0.0027  0.6552
 5826TIP3   OH238892   5.912   2.029   2.993 -0.1377  0.1072  0.0785
 5826TIP3    H138893   5.883   2.113   3.029 -0.3268  0.2395 -0.3887
 5826TIP3    H238894   5.888   2.032   2.901  0.1619 -0.3238 -0.0162
 5827TIP3   OH238895   5.404   1.843   2.200 -0.2606 -0.3612 -0.2357
 5827TIP3    H138896   5.404   1.836   2.295 -0.4095 -0.8480 -0.2700
 5827TIP3    H238897   5.313   1.863   2.177 -0.1812 -0.0326 -0.2588
 5828TIP3   OH238898   6.488   2.419  14.533  0.0208 -0.2122 -0.7035
 5828TIP3    H138899   6.574   2.408  14.493  0.1999 -1.1285 -0.0688
 5828TIP3    H238900   6.500   2.393  14.624 -1.0949 -1.0490 -0.7866
 5829TIP3   OH238901   3.655   3.396   4.271  0.1813  0.3714  0.1673
 5829TIP3    H138902   3.640   3.320   4.327 -0.3023 -0.1142 -0.6009
 5829TIP3    H238903   3.672   3.468   4.331 -1.6164  0.1440  0.9819
 5830TIP3   OH238904   3.493   1.461   5.009 -0.6361 -0.3795  0.2463
 5830TIP3    H138905   3.481   1.402   5.084 -2.3305 -0.2601  0.1036
 5830TIP3    H238906   3.406   1.499   4.996 -0.8734 -1.9243 -3.0604
 5831TIP3   OH238907   1.325   3.814   5.090 -0.0034  0.1841 -0.5515
 5831TIP3    H138908   1.286   3.784   5.172  0.5137  1.0461  0.0180
 5831TIP3    H238909   1.374   3.893   5.114 -1.6008  1.6890 -2.0670
 5832TIP3   OH238910   4.234   1.926  11.438 -0.2023 -0.0649  0.1735
 5832TIP3    H138911   4.211   1.837  11.413  0.6618 -0.7335  1.6953
 5832TIP3    H238912   4.329   1.930  11.428 -0.3231  0.9220 -0.6314
 5833TIP3   OH238913   5.653   1.263   2.488 -0.1762 -0.1346  0.2528
 5833TIP3    H138914   5.591   1.198   2.522 -0.5231  1.2663  2.4271
 5833TIP3    H238915   5.619   1.285   2.402 -2.4776  0.2266  1.2057
 5834TIP3   OH238916   0.675   2.410   3.241 -0.1809  0.3486  0.3554
 5834TIP3    H138917   0.629   2.387   3.322 -1.3726  1.1713 -0.0813
 5834TIP3    H238918   0.606   2.439   3.181  0.8473  1.0385 -0.5114
 5835TIP3   OH238919   1.707   3.030  16.360 -0.1615  0.5753  0.1959
 5835TIP3    H138920   1.780   3.069  16.407  1.5407 -2.0862 -0.1225
 5835TIP3    H238921   1.713   3.066  16.271 -0.2398  1.6074  0.6082
 5836TIP3   OH238922   3.302   6.633  15.649  0.8393  0.0216  0.3824
 5836TIP3    H138923   3.387   6.590  15.659 -0.0443 -1.9166 -0.1053
 5836TIP3    H238924   3.264   6.633  15.736  0.9596  0.0592  0.4336
 5837TIP3   OH238925   6.668   1.048   1.506  0.2889 -0.4755  0.4152
 5837TIP3    H138926   6.722   0.977   1.471  0.5715 -1.1127  2.1206
 5837TIP3    H238927   6.606   1.005   1.564 -0.6105  0.5063  0.1932
 5838TIP3   OH238928   2.339   5.554  15.918  0.1771 -0.0792 -0.0736
 5838TIP3    H138929   2.354   5.624  15.982 -0.7405 -0.3678  0.4740
 5838TIP3    H238930   2.392   5.482  15.949  1.7688  0.6247 -1.0929
 5839TIP3   OH238931   4.539   6.023  12.289 -0.6606 -0.1033 -0.1700
 5839TIP3    H138932   4.497   5.945  12.325 -1.2986  0.1775 -0.2972
 5839TIP3    H238933   4.528   6.015  12.194 -1.2278  0.4091 -0.1575
 5840TIP3   OH238934   5.029   5.371  13.355  0.9036 -0.4442 -0.3323
 5840TIP3    H138935   5.121   5.382  13.328  0.4266  2.6898 -0.7562
 5840TIP3    H238936   4.985   5.451  13.327 -1.5051 -0.8963  1.9276
 5841TIP3   OH238937   2.560   5.950  14.795  0.6600  0.4550 -0.2760
 5841TIP3    H138938   2.637   5.898  14.774  0.5626 -0.0395  0.5474
 5841TIP3    H238939   2.486   5.897  14.764  0.5090 -0.3324  1.3173
 5842TIP3   OH238940   3.589   3.517  12.619  0.0194  0.2613 -0.4009
 5842TIP3    H138941   3.505   3.521  12.665 -0.2820 -0.2076 -0.9098
 5842TIP3    H238942   3.624   3.606  12.626 -0.7407  0.5814 -0.5986
 5843TIP3   OH238943   2.037   0.957  15.663 -0.4114  0.8269  0.0142
 5843TIP3    H138944   1.953   0.996  15.687 -0.4120  1.2957 -0.7182
 5843TIP3    H238945   2.072   0.922  15.745 -3.0907 -2.8302 -0.2712
 5844TIP3   OH238946   1.651   6.549  14.804 -0.1834 -0.0749 -0.3401
 5844TIP3    H138947   1.701   6.483  14.852 -1.2340 -0.4362  0.2640
 5844TIP3    H238948   1.704   6.629  14.811  0.8563 -0.7249 -0.6745
 5845TIP3   OH238949   4.646   5.213   4.792 -0.0565  0.4314 -0.4950
 5845TIP3    H138950   4.739   5.194   4.788  0.0261 -0.1707  2.9252
 5845TIP3    H238951   4.603   5.128   4.783 -0.0797  0.0783  2.4890
 5846TIP3   OH238952   2.192   4.582   4.150  0.3236  0.7356 -0.6399
 5846TIP3    H138953   2.109   4.541   4.126  0.0297  0.6054  0.6076
 5846TIP3    H238954   2.203   4.564   4.243  1.7346  0.7796 -0.7751
 5847TIP3   OH238955   1.474   0.702  15.884 -0.2532 -0.0978  0.5810
 5847TIP3    H138956   1.551   0.722  15.831  0.1224  0.3689  1.2956
 5847TIP3    H238957   1.469   0.607  15.885  0.2194 -0.1242  0.4049
 5848TIP3   OH238958   3.468   1.805  11.368  0.3350 -0.6191 -0.2182
 5848TIP3    H138959   3.472   1.746  11.444  0.0184 -0.7354 -0.2899
 5848TIP3    H238960   3.417   1.880  11.400  0.7966 -0.3532 -0.1043
 5849TIP3   OH238961   4.986   2.377  16.324  0.0072  0.0132  0.2045
 5849TIP3    H138962   5.009   2.376  16.416  1.3330  0.2753 -0.1140
 5849TIP3    H238963   5.011   2.291  16.292 -0.1667  0.0309  0.0188
 5850TIP3   OH238964   2.432   2.278   0.409 -0.0750  0.0763  0.4752
 5850TIP3    H138965   2.464   2.195   0.373 -2.2158  0.7995 -3.4387
 5850TIP3    H238966   2.481   2.345   0.360 -0.9386  1.1258  1.0400
 5851TIP3   OH238967   2.243   1.065   0.212  0.4456  0.1360 -0.6650
 5851TIP3    H138968   2.243   1.142   0.154 -0.3917  0.6222 -0.0344
 5851TIP3    H238969   2.284   1.096   0.292  0.8274 -0.2997 -0.6944
 5852TIP3   OH238970   2.004   5.957  17.211 -0.3802  0.1414  1.0428
 5852TIP3    H138971   1.942   6.009  17.161 -0.3432 -2.1718 -1.4996
 5852TIP3    H238972   1.955   5.927  17.287 -1.2491  1.4305  0.9971
 5853TIP3   OH238973   6.458   0.345   0.522 -0.0583  0.1379 -0.0769
 5853TIP3    H138974   6.446   0.432   0.558  1.1961 -0.1968  1.2056
 5853TIP3    H238975   6.546   0.346   0.484  0.1244 -0.6634  0.2944
 5854TIP3   OH238976   1.882   5.308   3.836 -0.2234 -0.6170 -0.1651
 5854TIP3    H138977   1.801   5.358   3.847 -0.3748 -1.0087  0.5262
 5854TIP3    H238978   1.944   5.350   3.896  0.4347  0.4134 -1.5348
 5855TIP3   OH238979   4.423   1.363   3.899  0.3082 -0.0748  0.1326
 5855TIP3    H138980   4.427   1.415   3.818 -1.0905  0.3196  0.2996
 5855TIP3    H238981   4.349   1.303   3.886  0.9243 -0.9378  0.5797
 5856TIP3   OH238982   5.434   4.107  11.552 -0.0980 -0.2513  0.5740
 5856TIP3    H138983   5.485   4.042  11.599 -0.6796 -0.6810  0.6200
 5856TIP3    H238984   5.448   4.086  11.459  0.9000  0.4817  0.5505
 5857TIP3   OH238985   4.074   0.260  10.989  0.2667 -0.7855 -0.0976
 5857TIP3    H138986   4.015   0.296  10.922 -0.3880 -3.2133 -0.8650
 5857TIP3    H238987   4.121   0.337  11.022 -0.7829  0.7290 -1.9632
 5858TIP3   OH238988   3.466   0.032  12.203  0.0163 -0.3134 -0.4458
 5858TIP3    H138989   3.526   0.104  12.181  1.6070 -1.1215  1.1185
 5858TIP3    H238990   3.411   0.022  12.125  0.1735  2.1949 -0.9074
 5859TIP3   OH238991   1.451   0.965  15.502  0.3778 -0.1272  0.0364
 5859TIP3    H138992   1.461   1.034  15.568  0.8655  0.7424 -0.9362
 5859TIP3    H238993   1.357   0.945  15.502 -0.0522  1.7764 -0.8988
 5860TIP3   OH238994   6.734   5.242   3.023 -0.7314  0.6203 -0.4731
 5860TIP3    H138995   6.773   5.174   2.968 -3.1438 -0.7591 -0.5617
 5860TIP3    H238996   6.788   5.243   3.102 -1.2956 -2.2477  0.0073
 5861TIP3   OH238997   2.044   4.450   5.385 -0.1014  0.3534  0.3455
 5861TIP3    H138998   1.950   4.442   5.371 -0.6315  2.8651  2.0101
 5861TIP3    H238999   2.055   4.435   5.479  0.9462  1.5662  0.4274
 5862TIP3   OH239000   0.394   4.635   1.937 -0.1193 -0.4058  0.2276
 5862TIP3    H139001   0.353   4.637   1.850 -1.6512 -0.3178  0.9278
 5862TIP3    H239002   0.420   4.543   1.949  0.1933 -0.3977 -0.3601
 5863TIP3   OH239003   5.972   1.062  11.798 -0.6020  0.4251  0.1806
 5863TIP3    H139004   5.918   1.102  11.866 -0.5196  1.7049 -0.5097
 5863TIP3    H239005   5.913   1.049  11.724 -0.0782  1.4966 -0.4464
 5864TIP3   OH239006   1.963   1.957   2.789  0.5413 -0.0599  0.3036
 5864TIP3    H139007   1.876   1.996   2.778  0.6434  0.7896  2.1350
 5864TIP3    H239008   2.004   1.964   2.703 -0.5951  1.0777 -0.1654
 5865TIP3   OH239009   4.195   0.069   6.166  0.2119 -0.2139 -0.3320
 5865TIP3    H139010   4.254   0.114   6.106  0.4874  0.5303  0.4825
 5865TIP3    H239011   4.159  -0.003   6.115 -0.4644  1.0980 -1.7447
 5866TIP3   OH239012   2.361   0.720   2.227  0.3283  0.0525 -0.8030
 5866TIP3    H139013   2.377   0.626   2.221 -0.4026 -0.1011 -0.3443
 5866TIP3    H239014   2.338   0.747   2.138 -0.7150 -0.4317 -0.6805
 5867TIP3   OH239015   2.356   2.574   1.698  0.0522  0.1074 -0.0666
 5867TIP3    H139016   2.402   2.522   1.764  1.3075  0.6015 -0.5377
 5867TIP3    H239017   2.396   2.549   1.615  0.7480  1.8954 -0.2883
 5868TIP3   OH239018   6.503   3.663  15.072  0.3880  0.6962 -0.3086
 5868TIP3    H139019   6.435   3.632  15.132  1.8298  0.4001  1.2232
 5868TIP3    H239020   6.472   3.636  14.985 -1.7364  1.1368  0.2777
 5869TIP3   OH239021   3.188   2.552   4.297 -0.1268  0.1991 -0.5578
 5869TIP3    H139022   3.199   2.616   4.367  0.4426  0.9960 -1.3586
 5869TIP3    H239023   3.190   2.467   4.341 -0.5439  0.7156  0.4730
 5870TIP3   OH239024   3.563   1.019  15.977 -0.3488 -0.3949  0.0326
 5870TIP3    H139025   3.600   1.073  16.047 -1.0224  1.2905 -0.8857
 5870TIP3    H239026   3.586   1.065  15.896  1.2089 -2.7863 -0.9405
 5871TIP3   OH239027   4.830   1.044  15.409 -0.0546  0.5441 -0.1534
 5871TIP3    H139028   4.824   0.958  15.367  0.5393  0.4704 -0.0863
 5871TIP3    H239029   4.770   1.099  15.358 -2.9126 -0.6845  1.7842
 5872TIP3   OH239030   5.600   4.303  13.521 -0.1899  1.1076 -0.1990
 5872TIP3    H139031   5.597   4.207  13.517 -0.4860  1.1179 -0.2062
 5872TIP3    H239032   5.649   4.328  13.443  1.7580  0.8622  0.9280
 5873TIP3   OH239033   3.442   5.999   0.683  0.3362 -0.2366 -0.1789
 5873TIP3    H139034   3.363   6.002   0.630  0.8656  1.5536 -0.8809
 5873TIP3    H239035   3.475   6.089   0.683  1.1871 -0.5225  1.9020
 5874TIP3   OH239036   6.114   5.594  14.418 -0.2493  0.4563  0.9454
 5874TIP3    H139037   6.122   5.624  14.508 -0.5856 -0.8724  1.4313
 5874TIP3    H239038   6.140   5.501  14.421 -0.9863  0.2023 -0.1786
 5875TIP3   OH239039   4.591   6.561   4.696  0.1924 -0.5249  0.2252
 5875TIP3    H139040   4.649   6.561   4.620 -0.1501  2.3082 -0.0750
 5875TIP3    H239041   4.515   6.612   4.669 -0.6697 -0.8483  1.9429
 5876TIP3   OH239042   0.992   0.604   4.820 -0.1417 -0.5786 -0.1920
 5876TIP3    H139043   1.050   0.550   4.874  1.9673  1.2472 -0.5984
 5876TIP3    H239044   0.909   0.603   4.867  0.6930 -1.7672  1.3280
 5877TIP3   OH239045   1.397   3.171   3.974 -0.3372 -0.3206 -0.0447
 5877TIP3    H139046   1.485   3.146   3.945 -0.2981  0.6643 -0.7777
 5877TIP3    H239047   1.339   3.111   3.928 -0.1911  0.4263 -1.1979
 5878TIP3   OH239048   4.066   2.020   0.225  0.0422  0.1154 -0.0373
 5878TIP3    H139049   4.024   2.097   0.262 -0.3995  0.1036 -0.5173
 5878TIP3    H239050   4.008   1.947   0.248 -0.4921  0.1730 -1.1733
 5879TIP3   OH239051   1.725   2.316  16.990  0.1496  0.3253 -0.1044
 5879TIP3    H139052   1.781   2.350  17.059 -1.5306 -0.1550  1.5445
 5879TIP3    H239053   1.680   2.393  16.954  0.3276  0.4702 -0.0139
 5880TIP3   OH239054   0.423   2.792  14.369 -0.1748  0.3073 -0.1157
 5880TIP3    H139055   0.391   2.841  14.446 -1.7573  0.2017 -0.6797
 5880TIP3    H239056   0.428   2.702  14.399  0.6502  0.4818  0.2913
 5881TIP3   OH239057   6.022   4.615  16.940 -0.0724 -0.4110  0.4694
 5881TIP3    H139058   5.938   4.659  16.951 -0.2938 -0.4177 -1.0571
 5881TIP3    H239059   6.005   4.523  16.959  0.3702  0.0793  3.5809
 5882TIP3   OH239060   5.530   4.831  11.211  0.2692  0.0712  0.6904
 5882TIP3    H139061   5.515   4.830  11.305 -0.6482  0.7146  0.5547
 5882TIP3    H239062   5.595   4.900  11.197 -1.3374  1.5828  0.6029
 5883TIP3   OH239063   6.775   4.172   4.597 -0.5510  0.0271  0.6451
 5883TIP3    H139064   6.708   4.239   4.583 -0.1114  0.2919 -0.2113
 5883TIP3    H239065   6.741   4.120   4.670 -0.8237  1.2814  1.4378
 5884TIP3   OH239066   5.630   1.786   4.287  0.1448  0.2554 -0.5051
 5884TIP3    H139067   5.624   1.775   4.192  0.3689 -0.5309 -0.4331
 5884TIP3    H239068   5.587   1.870   4.304  0.3287  0.5232 -1.3254
 5885TIP3   OH239069   0.795   3.975   3.189 -0.3817  0.3184 -0.0557
 5885TIP3    H139070   0.758   4.061   3.170 -0.6153  0.1614 -0.3175
 5885TIP3    H239071   0.865   3.992   3.252 -0.8550  0.6199  0.3848
 5886TIP3   OH239072   2.671   3.866  14.800 -0.4696 -0.3326  0.3378
 5886TIP3    H139073   2.765   3.881  14.786 -0.9720  1.0560 -1.6950
 5886TIP3    H239074   2.635   3.855  14.712 -1.7551 -4.0676  1.2399
 5887TIP3   OH239075   3.797   4.784   2.744 -0.1796 -0.5707 -0.1812
 5887TIP3    H139076   3.855   4.796   2.819  0.4675  0.1577 -0.7831
 5887TIP3    H239077   3.839   4.834   2.674 -0.8079 -1.1966 -1.0088
 5888TIP3   OH239078   6.108   3.706   6.019  0.4704 -0.4241 -0.0353
 5888TIP3    H139079   6.033   3.759   5.994 -0.5336 -1.7114  0.2302
 5888TIP3    H239080   6.073   3.618   6.031  1.7691 -0.7563  1.4462
 5889TIP3   OH239081   4.579   1.300  16.555  0.2932  0.2022 -0.1992
 5889TIP3    H139082   4.573   1.278  16.648 -0.0012  1.2921  0.0456
 5889TIP3    H239083   4.664   1.344  16.547 -1.3391  3.6040  0.3155
 5890TIP3   OH239084   5.027   2.105  13.646 -0.5003 -0.1105 -0.2055
 5890TIP3    H139085   5.100   2.141  13.696  0.4557  1.4907 -2.6656
 5890TIP3    H239086   4.974   2.181  13.622 -2.1851 -1.1012  0.2978
 5891TIP3   OH239087   3.340   4.666  11.846 -0.2575 -0.5233 -0.4615
 5891TIP3    H139088   3.247   4.649  11.831 -0.4465 -0.2622  0.4428
 5891TIP3    H239089   3.363   4.734  11.783 -1.1176  0.7489  0.5938
 5892TIP3   OH239090   5.823   3.805  16.802  0.2668 -0.5184  0.2047
 5892TIP3    H139091   5.814   3.733  16.740  1.9272  0.3274 -1.0768
 5892TIP3    H239092   5.811   3.765  16.888 -1.8818 -1.7548 -0.6310
 5893TIP3   OH239093   5.978   5.286   1.203  0.2392  0.3288  0.3116
 5893TIP3    H139094   5.929   5.233   1.266  0.8550 -0.1446  0.3918
 5893TIP3    H239095   5.911   5.321   1.144 -0.1900 -0.4229  0.3406
 5894TIP3   OH239096   3.075   3.122   2.928 -0.1326  0.6658 -0.0276
 5894TIP3    H139097   3.065   3.208   2.888  2.5865  1.4334  0.8730
 5894TIP3    H239098   3.154   3.085   2.887 -0.8545 -1.1050  0.1246
 5895TIP3   OH239099   5.297   6.289  15.046  0.2624 -0.1092 -0.0331
 5895TIP3    H139100   5.376   6.249  15.081  1.1392  1.2408 -0.4250
 5895TIP3    H239101   5.257   6.221  14.992  0.0073 -1.5081  1.8751
 5896TIP3   OH239102   2.879   1.879  13.125 -1.0286 -0.1588  0.0073
 5896TIP3    H139103   2.898   1.972  13.107 -1.8131 -0.3196 -1.7245
 5896TIP3    H239104   2.882   1.873  13.220 -1.5287  1.7760  0.1831
 5897TIP3   OH239105   0.197   1.551  12.817  0.1369  0.1322  0.5495
 5897TIP3    H139106   0.286   1.579  12.836  0.5995  0.2237 -1.7261
 5897TIP3    H239107   0.206   1.478  12.757 -1.3166 -0.2880  0.8154
 5898TIP3   OH239108   0.276   2.285   4.416  0.5741 -0.6888 -0.2898
 5898TIP3    H139109   0.200   2.266   4.471  1.8897  0.2172  1.8781
 5898TIP3    H239110   0.250   2.361   4.364  0.1872 -0.0586  0.8238
 5899TIP3   OH239111   5.549   4.896   0.228  0.5997  0.2472  0.1362
 5899TIP3    H139112   5.513   4.849   0.153  1.2454 -0.8872  0.5177
 5899TIP3    H239113   5.634   4.928   0.199 -0.3416  2.2212 -0.5014
 5900TIP3   OH239114   1.008   4.376   0.978 -0.0473  0.3905 -0.6985
 5900TIP3    H139115   0.917   4.349   0.984 -0.2471  1.2385  0.0762
 5900TIP3    H239116   1.007   4.471   0.990  1.1607  0.1297  1.6423
 5901TIP3   OH239117   0.763   0.503   4.435 -0.1795 -0.1600  0.4323
 5901TIP3    H139118   0.767   0.531   4.344 -0.3573  0.1938  0.5334
 5901TIP3    H239119   0.790   0.411   4.433 -1.3986 -0.5130 -0.1438
 5902TIP3   OH239120   3.520   5.768  13.976 -0.1136 -0.3649  0.2166
 5902TIP3    H139121   3.599   5.727  14.012 -0.0128 -1.9292 -1.7212
 5902TIP3    H239122   3.455   5.698  13.974 -0.4067 -0.0673 -1.6966
 5903TIP3   OH239123   4.558   4.219  12.108 -0.3838  0.1920 -0.2697
 5903TIP3    H139124   4.527   4.188  12.023  1.4653 -0.5134 -0.6945
 5903TIP3    H239125   4.480   4.259  12.148 -1.3237  0.3489 -2.1869
 5904TIP3   OH239126   6.751   1.157  17.077 -0.4158  0.0338  0.7117
 5904TIP3    H139127   6.739   1.069  17.042 -1.5461 -0.0534  1.2820
 5904TIP3    H239128   6.787   1.143  17.165 -1.5807  0.0956  1.2065
 5905TIP3   OH239129   4.668   0.825   4.923 -0.0820  0.5932 -0.2578
 5905TIP3    H139130   4.736   0.758   4.936 -1.5497 -0.8083  0.3081
 5905TIP3    H239131   4.600   0.780   4.874 -2.1604  0.9603  2.2157
 5906TIP3   OH239132   6.730   2.053  12.874  0.3756  0.1320  0.0665
 5906TIP3    H139133   6.705   1.969  12.912 -3.1640  0.9028 -0.3572
 5906TIP3    H239134   6.789   2.092  12.938 -2.3793 -0.2697  2.9633
 5907TIP3   OH239135   4.880   4.939   5.541 -0.2304 -0.3390 -0.3725
 5907TIP3    H139136   4.923   4.898   5.616 -2.2774  2.9797  2.7692
 5907TIP3    H239137   4.938   5.011   5.516 -2.2590  2.1573  1.8359
 5908TIP3   OH239138   5.264   6.084  15.795 -0.5257 -0.7626 -0.3354
 5908TIP3    H139139   5.235   6.029  15.722 -0.8782 -1.8245  0.5903
 5908TIP3    H239140   5.236   6.172  15.771 -4.0058 -1.6389  0.2228
 5909TIP3   OH239141   3.813   4.878   2.497  0.6346 -0.4234  0.3855
 5909TIP3    H139142   3.798   4.791   2.459 -0.1276 -0.2466  0.2781
 5909TIP3    H239143   3.731   4.924   2.484  0.6056 -0.1137  1.6171
 5910TIP3   OH239144   5.589   5.747  11.315  0.2365 -0.4240 -0.3368
 5910TIP3    H139145   5.666   5.694  11.335  0.9122  0.3647 -0.7983
 5910TIP3    H239146   5.556   5.775  11.400  0.6029 -0.5758 -0.1461
 5911TIP3   OH239147   1.436   2.007   5.976 -0.3016  0.4502 -0.0853
 5911TIP3    H139148   1.358   1.971   5.934  0.0882 -0.0483 -0.3808
 5911TIP3    H239149   1.404   2.040   6.060 -0.9002  0.5827 -0.3642
 5912TIP3   OH239150   2.740   2.523  15.537  0.2064  0.0866 -0.0127
 5912TIP3    H139151   2.749   2.563  15.624  2.3699  0.5106 -0.4250
 5912TIP3    H239152   2.781   2.437  15.546  0.8041  0.2991 -0.7401
 5913TIP3   OH239153   3.362   2.702  13.299 -0.2316 -0.0294 -0.4271
 5913TIP3    H139154   3.292   2.734  13.242 -0.2238 -0.1063 -0.4798
 5913TIP3    H239155   3.343   2.609  13.310  0.1028 -0.1406 -0.7826
 5914TIP3   OH239156   4.942   2.229   5.326  0.2627 -0.2179 -0.3960
 5914TIP3    H139157   4.980   2.273   5.402 -2.7589 -0.7017  1.4977
 5914TIP3    H239158   5.008   2.166   5.299  1.6365  0.3860  1.4737
 5915TIP3   OH239159   2.339   1.555   0.993  0.4839 -0.1854  0.0239
 5915TIP3    H139160   2.307   1.506   0.917  2.1608  0.7709 -1.3475
 5915TIP3    H239161   2.376   1.635   0.956  0.7721  0.5943  1.9232
 5916TIP3   OH239162   0.113   5.376  16.290 -0.0011  0.0221  0.9112
 5916TIP3    H139163   0.035   5.432  16.293 -0.2987 -0.4508  2.5189
 5916TIP3    H239164   0.177   5.426  16.240 -2.7019 -1.3617 -4.3542
 5917TIP3   OH239165   5.724   2.903  13.541  0.7481  0.1647  0.1731
 5917TIP3    H139166   5.638   2.904  13.583 -0.0333  2.0358 -1.3682
 5917TIP3    H239167   5.776   2.964  13.592  1.4873 -1.7221  1.7094
 5918TIP3   OH239168   2.075   1.388  14.180 -0.0388  0.3519  0.0267
 5918TIP3    H139169   2.074   1.377  14.275  0.7879  0.8538  0.0983
 5918TIP3    H239170   2.106   1.304  14.147  0.5336  0.4802  0.2443
 5919TIP3   OH239171   0.431   5.206   2.186  0.0846 -0.1337  0.1049
 5919TIP3    H139172   0.460   5.247   2.105 -0.3070  3.4630  1.6664
 5919TIP3    H239173   0.510   5.169   2.224  1.0553  1.8593  0.0812
 5920TIP3   OH239174   3.059   4.197   3.347 -0.2757 -0.6155 -0.4133
 5920TIP3    H139175   3.020   4.255   3.414  1.3734 -1.1931  1.0850
 5920TIP3    H239176   3.131   4.248   3.310 -0.4599 -0.7354 -0.9377
 5921TIP3   OH239177   2.228   3.969  15.429  0.8728 -0.1266  0.2538
 5921TIP3    H139178   2.164   4.034  15.455  1.3928  0.5287 -0.0883
 5921TIP3    H239179   2.211   3.893  15.485  0.6197  0.4970  1.0152
 5922TIP3   OH239180   6.531   4.099   2.418  0.0446 -0.0359  0.3169
 5922TIP3    H139181   6.554   4.099   2.325  0.2789 -1.5289  0.3518
 5922TIP3    H239182   6.531   4.191   2.443  0.8306  0.3311 -0.9573
 5923TIP3   OH239183   5.624   4.208   5.778  1.0226 -0.6210 -0.4123
 5923TIP3    H139184   5.576   4.157   5.843  1.2019 -0.1317  0.1031
 5923TIP3    H239185   5.682   4.144   5.736  0.5542 -1.0361 -0.4371
 5924TIP3   OH239186   2.435   3.313  11.571 -0.2459 -0.4793  0.5523
 5924TIP3    H139187   2.461   3.380  11.634 -0.9581 -0.4364  0.8032
 5924TIP3    H239188   2.378   3.254  11.621  0.0995 -1.0775  0.2450
 5925TIP3   OH239189   0.242   5.252  10.929  0.2312  0.4606  1.0115
 5925TIP3    H139190   0.220   5.295  11.012 -3.1653 -1.3660  1.1490
 5925TIP3    H239191   0.157   5.236  10.887  1.7094 -1.5097 -1.3584
 5926TIP3   OH239192   4.389   0.926  16.625 -0.0894 -0.1394 -0.0658
 5926TIP3    H139193   4.313   0.949  16.679  0.3837  0.6657  0.2574
 5926TIP3    H239194   4.356   0.857  16.567 -0.6373 -0.9545  1.1815
 5927TIP3   OH239195   5.491   4.395   5.617  0.5917  0.2313  0.3023
 5927TIP3    H139196   5.585   4.410   5.617  0.7997 -1.0584  0.1259
 5927TIP3    H239197   5.481   4.304   5.590 -0.6776  0.1797  0.9128
 5928TIP3   OH239198   1.353   2.724   0.700 -0.1619 -0.5280  0.2821
 5928TIP3    H139199   1.409   2.708   0.624  0.5221  2.3992  0.0935
 5928TIP3    H239200   1.414   2.730   0.773 -0.2321  1.8378  0.2020
 5929TIP3   OH239201   6.628   0.286   0.134  0.1133  0.1549  0.5049
 5929TIP3    H139202   6.655   0.259   0.046 -1.1707  0.3625  0.0470
 5929TIP3    H239203   6.702   0.338   0.166  1.4655 -1.5940  0.3404
 5930TIP3   OH239204   1.918   3.717  14.024 -0.1798 -0.3277  0.6899
 5930TIP3    H139205   2.009   3.689  14.036  0.3586  1.9171  2.1973
 5930TIP3    H239206   1.923   3.795  13.969 -1.1623 -0.0219  1.0117
 5931TIP3   OH239207   3.762   1.495   2.166 -0.4760  0.1285 -0.3462
 5931TIP3    H139208   3.685   1.442   2.148 -0.4680 -0.0606  0.1594
 5931TIP3    H239209   3.745   1.578   2.123 -1.9396  0.8635  1.5709
 5932TIP3   OH239210   0.952   6.248   0.021 -0.2687  0.1018  0.3081
 5932TIP3    H139211   0.908   6.332   0.037  2.2018  1.6810 -0.8566
 5932TIP3    H239212   0.923   6.192   0.092 -0.3300  2.6139  2.3428
 5933TIP3   OH239213   3.337   5.557   2.061  0.2257 -0.7962  0.1246
 5933TIP3    H139214   3.318   5.600   1.978 -1.5261 -0.6724  0.5773
 5933TIP3    H239215   3.406   5.611   2.100  1.0030 -0.8011 -1.1864
 5934TIP3   OH239216   1.329   0.826   1.930 -0.1680 -0.0218  0.4818
 5934TIP3    H139217   1.236   0.808   1.939 -0.4017  0.6615 -0.5288
 5934TIP3    H239218   1.364   0.819   2.019 -0.9765 -1.3928  0.7147
 5935TIP3   OH239219   5.188   5.033   3.218 -0.4130  0.7625  0.3754
 5935TIP3    H139220   5.254   5.070   3.159 -0.8361  0.6241 -0.1895
 5935TIP3    H239221   5.205   4.939   3.217 -1.7182  0.5312 -1.1425
 5936TIP3   OH239222   6.610   1.243   4.339 -0.3355 -0.0605  0.3815
 5936TIP3    H139223   6.546   1.313   4.345  0.6507  0.7563  1.6358
 5936TIP3    H239224   6.612   1.204   4.427 -0.1616 -1.0278 -0.0377
 5937TIP3   OH239225   1.412   1.234  14.976  0.3733 -0.1243 -0.5032
 5937TIP3    H139226   1.339   1.216  14.917  1.1285  0.2108 -1.5440
 5937TIP3    H239227   1.443   1.321  14.951 -0.4575  0.8174  1.6036
 5938TIP3   OH239228   0.263   0.073  13.851  0.3203  0.8985  0.0834
 5938TIP3    H139229   0.260  -0.021  13.834  1.3200  0.5262  1.8658
 5938TIP3    H239230   0.335   0.105  13.797  1.2465  0.3062  0.9596
 5939TIP3   OH239231   3.956   2.901  12.087  0.4872 -0.3997 -0.2662
 5939TIP3    H139232   3.974   2.990  12.056  2.6747 -0.1228  1.7428
 5939TIP3    H239233   4.042   2.860  12.097 -0.2348 -1.2801  3.0056
 5940TIP3   OH239234   0.976   1.455  14.510 -0.2537  0.0007 -0.2080
 5940TIP3    H139235   0.953   1.540  14.548 -0.3300  1.0175 -2.3933
 5940TIP3    H239236   0.895   1.404  14.512 -0.8929  0.9449 -1.2343
 5941TIP3   OH239237   3.659   1.589  15.619 -0.2065  0.7528  0.1838
 5941TIP3    H139238   3.682   1.506  15.576 -0.4451  1.6503 -1.7404
 5941TIP3    H239239   3.565   1.598  15.604 -0.0906  1.6092 -0.0629
 5942TIP3   OH239240   6.475   4.358  15.504 -0.5074 -0.1096  0.1475
 5942TIP3    H139241   6.391   4.314  15.493 -0.5579  0.3511 -1.5296
 5942TIP3    H239242   6.496   4.391  15.417  1.6478 -0.6298  0.4294
 5943TIP3   OH239243   1.808   2.681  15.766  0.0843  0.0664  0.0197
 5943TIP3    H139244   1.858   2.693  15.847 -0.9288  0.9133  0.5306
 5943TIP3    H239245   1.866   2.628  15.710  0.3117 -1.5557  1.7306
 5944TIP3   OH239246   5.550   5.404  16.698  0.2077  0.8746  0.1341
 5944TIP3    H139247   5.572   5.467  16.768  2.0019  0.3807  0.0307
 5944TIP3    H239248   5.620   5.413  16.635 -0.3325 -0.1646 -0.6266
 5945TIP3   OH239249   0.524   1.695   3.629  0.4471  0.0200  0.7835
 5945TIP3    H139250   0.580   1.753   3.577  0.0174 -0.3447 -0.0932
 5945TIP3    H239251   0.448   1.750   3.652  0.5098  0.0993  0.8033
 5946TIP3   OH239252   0.924   0.816   5.265  0.3523 -0.2000  0.2705
 5946TIP3    H139253   0.843   0.866   5.270  0.5015 -0.0379  1.2337
 5946TIP3    H239254   0.955   0.811   5.356 -0.6645 -3.7052  0.5312
 5947TIP3   OH239255   4.102   1.400  13.661 -0.1528  0.1594 -0.6761
 5947TIP3    H139256   4.107   1.360  13.574  0.0360  3.1963 -2.1327
 5947TIP3    H239257   4.009   1.405  13.680 -0.4153  3.3354 -2.6126
 5948TIP3   OH239258   4.531   5.638  11.211  0.3088  0.1538  0.1331
 5948TIP3    H139259   4.620   5.624  11.177 -0.5762 -3.5789 -0.8661
 5948TIP3    H239260   4.537   5.616  11.303  0.3559 -0.4323 -0.0078
 5949TIP3   OH239261   4.531   4.455  14.623 -0.7631  0.3207  0.0946
 5949TIP3    H139262   4.549   4.438  14.715 -1.5356  1.8516  0.5538
 5949TIP3    H239263   4.611   4.428  14.577 -0.9000 -1.7615  1.0357
 5950TIP3   OH239264   3.814   4.672   5.356  0.3286 -0.8428 -0.0980
 5950TIP3    H139265   3.765   4.599   5.393  0.0545 -0.0721  1.0929
 5950TIP3    H239266   3.834   4.728   5.431 -0.2618  0.7691 -1.1222
 5951TIP3   OH239267   4.888   0.104  12.311 -0.0218  0.5203 -0.4280
 5951TIP3    H139268   4.975   0.066  12.320 -0.7517 -1.0170  0.2498
 5951TIP3    H239269   4.834   0.055  12.373 -1.1469  2.1571 -0.0889
 5952TIP3   OH239270   4.792   1.033  13.936  0.8356 -0.6328 -0.3540
 5952TIP3    H139271   4.871   1.034  13.990  1.4535 -0.1866 -1.2553
 5952TIP3    H239272   4.766   0.941  13.932  1.4549 -0.8123 -0.2788
 5953TIP3   OH239273   4.908   3.423   5.138  0.3732 -0.7082 -0.2676
 5953TIP3    H139274   4.882   3.395   5.226 -2.6270  0.6083 -0.6647
 5953TIP3    H239275   4.954   3.506   5.152 -0.3455 -0.3571  0.0373
 5954TIP3   OH239276   1.209   3.397  12.156  0.5326 -0.5940 -0.3567
 5954TIP3    H139277   1.241   3.307  12.158  0.1180 -0.7314  0.1529
 5954TIP3    H239278   1.147   3.399  12.083 -0.5274 -1.0981  0.4986
 5955TIP3   OH239279   6.126   0.311  13.755  0.2055 -0.2819 -0.3810
 5955TIP3    H139280   6.172   0.368  13.693 -0.4435  0.4116 -0.2258
 5955TIP3    H239281   6.054   0.274  13.705  0.3556 -0.6134 -0.3533
 5956TIP3   OH239282   5.101   2.979  15.534 -0.3295  0.3359 -0.0681
 5956TIP3    H139283   5.160   3.011  15.603 -0.4011  1.1579 -0.3913
 5956TIP3    H239284   5.016   2.973  15.577 -0.6488  2.0913 -0.4180
 5957TIP3   OH239285   2.709   2.637  12.882  0.3800  0.3114  0.1246
 5957TIP3    H139286   2.671   2.577  12.819 -0.8401  0.4446  0.7271
 5957TIP3    H239287   2.751   2.581  12.947  1.6832  0.1769 -0.8223
 5958TIP3   OH239288   0.567   3.504   2.718  1.0070 -0.2549 -0.4008
 5958TIP3    H139289   0.541   3.418   2.683  2.9458 -0.3614 -1.6797
 5958TIP3    H239290   0.618   3.483   2.796 -1.4406 -0.0987  1.2956
 5959TIP3   OH239291   2.865   0.973  13.191 -0.1482 -0.4079 -0.1291
 5959TIP3    H139292   2.784   1.020  13.208  0.1382  0.0669 -0.0724
 5959TIP3    H239293   2.932   1.041  13.187  0.2452 -0.7961 -0.1906
 5960TIP3   OH239294   5.734   4.475   1.214 -0.2589  0.3763  0.3122
 5960TIP3    H139295   5.749   4.473   1.308  0.2680 -0.3839  0.2217
 5960TIP3    H239296   5.755   4.565   1.188 -3.0865  1.3607  1.3213
 5961TIP3   OH239297   3.721   3.274  13.091  0.4660 -0.0536 -0.0591
 5961TIP3    H139298   3.811   3.268  13.058  0.2562  0.8593 -0.8318
 5961TIP3    H239299   3.712   3.200  13.151  2.1200  0.5308  0.9518
 5962TIP3   OH239300   6.386   2.691  14.788  0.1203 -0.1926 -0.2054
 5962TIP3    H139301   6.335   2.638  14.726  0.7318 -0.0539 -0.8364
 5962TIP3    H239302   6.457   2.633  14.817  0.2319 -0.0352 -0.1616
 5963TIP3   OH239303   0.836   3.666   4.278  0.1211 -0.0066 -0.8653
 5963TIP3    H139304   0.888   3.683   4.199  2.1078  1.5820  0.7497
 5963TIP3    H239305   0.891   3.694   4.350 -2.4618  0.4557  1.0091
 5964TIP3   OH239306   6.767   5.109  12.346 -0.7216  0.5176 -0.4984
 5964TIP3    H139307   6.702   5.152  12.290 -1.7298 -0.6986 -0.2769
 5964TIP3    H239308   6.766   5.017  12.318 -0.4104  0.1262  0.7401
 5965TIP3   OH239309   6.434   0.465  10.733 -0.5477 -0.6806  0.2268
 5965TIP3    H139310   6.393   0.525  10.795  0.5949  2.1224 -1.6303
 5965TIP3    H239311   6.527   0.467  10.756 -0.5389 -2.0862  0.3783
 5966TIP3   OH239312   2.445   3.107   3.355  0.2418 -0.0118  0.1071
 5966TIP3    H139313   2.494   3.110   3.273 -0.9003  1.5632 -0.5581
 5966TIP3    H239314   2.399   3.023   3.353 -0.1684  0.2250 -1.1156
 5967TIP3   OH239315   3.548   1.639   3.730  0.8725 -0.7597  0.1302
 5967TIP3    H139316   3.504   1.558   3.755  0.1081 -1.0460 -2.0609
 5967TIP3    H239317   3.508   1.664   3.647  0.8801  2.0581  0.9443
 5968TIP3   OH239318   2.272   2.519  11.145  0.3737 -0.1965  0.4014
 5968TIP3    H139319   2.191   2.497  11.099  0.7397 -0.5367 -0.0857
 5968TIP3    H239320   2.327   2.561  11.079  0.2215  0.9460  0.9787
 5969TIP3   OH239321   0.159   4.465  17.005  0.2653 -0.0494 -0.4640
 5969TIP3    H139322   0.126   4.528  16.942  1.4269  0.3876 -0.6586
 5969TIP3    H239323   0.219   4.410  16.954  1.2224  0.3170  0.2310
 5970TIP3   OH239324   2.418   6.302  14.009 -0.0137  0.6070  0.4886
 5970TIP3    H139325   2.374   6.359  13.946 -0.7242  0.8504  1.1837
 5970TIP3    H239326   2.488   6.356  14.046 -0.0667  0.7134  0.4347
 5971TIP3   OH239327   2.159   5.653   5.020  0.4993  0.4023 -0.0374
 5971TIP3    H139328   2.097   5.724   5.004  1.0138  0.7972 -0.2819
 5971TIP3    H239329   2.240   5.681   4.977  1.0996  0.2746  1.0045
 5972TIP3   OH239330   5.098   5.006   5.723  0.5713  0.2612  0.1966
 5972TIP3    H139331   5.016   5.039   5.762  0.3845  0.4320 -0.3430
 5972TIP3    H239332   5.166   5.055   5.769  0.2968  1.3589 -0.5374
 5973TIP3   OH239333   5.810   4.862   0.429  0.4269 -0.4377  0.0346
 5973TIP3    H139334   5.855   4.925   0.485 -0.4816 -0.6386  1.0107
 5973TIP3    H239335   5.814   4.901   0.342  3.2311 -0.8715 -0.0734
 5974TIP3   OH239336   1.609   1.180   4.961 -1.1426 -0.0235 -0.0161
 5974TIP3    H139337   1.515   1.162   4.951 -0.8415 -0.8413 -1.4926
 5974TIP3    H239338   1.632   1.229   4.883 -0.3115  0.0928  0.3003
 5975TIP3   OH239339   4.090   3.755   0.946  0.1013  0.0580  0.4771
 5975TIP3    H139340   4.082   3.660   0.955 -1.6872  0.0204 -1.1274
 5975TIP3    H239341   4.063   3.789   1.031 -1.3370 -0.8130  0.3901
 5976TIP3   OH239342   6.179   1.200   4.932  0.2730  0.0882  0.4894
 5976TIP3    H139343   6.253   1.165   4.983 -0.0128  0.9943  1.5564
 5976TIP3    H239344   6.220   1.255   4.865  0.5360  2.1820  2.3078
 5977TIP3   OH239345   4.096   1.898   0.920  0.2055 -0.4609  0.2737
 5977TIP3    H139346   4.085   1.891   0.825 -1.5658  0.3772  0.4036
 5977TIP3    H239347   4.133   1.813   0.946  0.5001 -0.7767 -1.1285
 5978TIP3   OH239348   2.981   2.185  14.610 -0.3662 -0.4856 -0.4619
 5978TIP3    H139349   2.983   2.252  14.542 -1.2786 -1.0411 -1.0351
 5978TIP3    H239350   2.888   2.169  14.626 -0.1647 -0.2887  0.9816
 5979TIP3   OH239351   2.126   5.918   5.973 -0.0379  0.5255  0.3334
 5979TIP3    H139352   2.172   5.988   6.019  0.1008  0.3004  0.5361
 5979TIP3    H239353   2.089   5.864   6.042 -0.0147  0.3117  0.1796
 5980TIP3   OH239354   1.472   3.985   3.399 -0.2715  0.0217  0.1665
 5980TIP3    H139355   1.556   3.990   3.444 -1.0693  0.4226  1.6540
 5980TIP3    H239356   1.486   3.921   3.329  0.3620 -2.4072  2.4195
 5981TIP3   OH239357   1.458   1.369   5.980 -0.0296 -0.2134 -0.2287
 5981TIP3    H139358   1.439   1.298   6.041  0.0019  0.7035  0.8567
 5981TIP3    H239359   1.526   1.420   6.023  0.4552  0.0778 -1.3255
 5982TIP3   OH239360   6.539   1.551  12.599  0.5045  0.1406 -0.6002
 5982TIP3    H139361   6.518   1.458  12.590  3.8255 -0.8354  0.8416
 5982TIP3    H239362   6.562   1.579  12.510  2.1433 -1.1680 -0.6298
 5983TIP3   OH239363   0.788   2.281  13.710 -0.2116 -0.0971  0.3930
 5983TIP3    H139364   0.874   2.273  13.668 -1.1225 -0.3566 -1.4678
 5983TIP3    H239365   0.784   2.373  13.737  0.8554 -0.2072  0.9712
 5984TIP3   OH239366   6.598   0.296  10.532 -0.7171 -0.2262 -0.9364
 5984TIP3    H139367   6.669   0.360  10.525 -0.3029 -0.3535  1.4701
 5984TIP3    H239368   6.613   0.235  10.459  0.9978  0.3974 -1.1328
 5985TIP3   OH239369   0.923   5.492  12.054  0.1244  0.3572  0.2398
 5985TIP3    H139370   0.829   5.499  12.039 -0.1595 -2.7490  0.3985
 5985TIP3    H239371   0.962   5.512  11.968 -0.6239  2.1175  0.2878
 5986TIP3   OH239372   4.122   3.191   3.347 -0.2627 -0.1463  0.4110
 5986TIP3    H139373   4.180   3.257   3.308  1.2601 -1.8678 -0.3346
 5986TIP3    H239374   4.086   3.234   3.425  0.1082  1.8048 -0.4572
 5987TIP3   OH239375   4.406   5.933  14.421 -0.0926  0.2542 -0.1193
 5987TIP3    H139376   4.328   5.900  14.464  0.5813  0.3194  1.1956
 5987TIP3    H239377   4.479   5.893  14.469  0.6943  1.3622 -0.3622
 5988TIP3   OH239378   5.328   5.581   1.442 -0.1617 -0.1826 -0.4190
 5988TIP3    H139379   5.273   5.569   1.520 -0.3945 -1.4190 -0.7709
 5988TIP3    H239380   5.296   5.663   1.403  0.2155  0.6669  0.9814
 5989TIP3   OH239381   1.121   4.305   4.643  0.5022 -0.2896  0.2478
 5989TIP3    H139382   1.061   4.357   4.697  0.2674 -0.4596  0.1517
 5989TIP3    H239383   1.171   4.253   4.706 -0.7276 -1.5199  0.2466
 5990TIP3   OH239384   6.100   0.345  13.384 -0.8375 -0.2153  0.0451
 5990TIP3    H139385   6.023   0.293  13.360 -0.5236 -0.9520  0.6233
 5990TIP3    H239386   6.174   0.295  13.351 -0.7108  1.7675 -2.8600
 5991TIP3   OH239387   4.034   0.649   1.581  0.4640  0.2898 -0.5649
 5991TIP3    H139388   4.116   0.615   1.544 -0.1090 -0.3859 -1.2200
 5991TIP3    H239389   4.016   0.728   1.529  0.1920 -0.1031 -1.0791
 5992TIP3   OH239390   2.465   1.075   0.427 -0.2333 -0.2991  0.4760
 5992TIP3    H139391   2.531   1.109   0.488  1.0728  0.6978 -1.4364
 5992TIP3    H239392   2.396   1.040   0.483 -0.2096  2.7651  2.5480
 5993TIP3   OH239393   6.496   3.941   5.414  0.7895 -0.2869 -0.2582
 5993TIP3    H139394   6.558   3.872   5.440  0.8829  0.0091  0.3126
 5993TIP3    H239395   6.427   3.894   5.368  0.5691 -0.8397  0.6278
 5994TIP3   OH239396   0.781   4.794   4.640 -0.4926 -0.5802 -0.9219
 5994TIP3    H139397   0.797   4.740   4.717 -0.5860 -1.3109 -1.4187
 5994TIP3    H239398   0.868   4.825   4.614 -0.6191  0.9024  0.3723
 5995TIP3   OH239399   0.754   0.652   3.110  0.1322 -0.3505  0.2845
 5995TIP3    H139400   0.664   0.680   3.093  0.4219 -0.5948 -1.7795
 5995TIP3    H239401   0.746   0.558   3.131 -0.4224  0.3405  3.5023
 5996TIP3   OH239402   1.812   5.190  14.678 -0.2695 -1.0285  0.3594
 5996TIP3    H139403   1.814   5.243  14.599  1.6714 -1.9441 -0.2477
 5996TIP3    H239404   1.894   5.212  14.723 -0.5945 -1.7218  1.3013
 5997TIP3   OH239405   3.283   4.990   0.627  0.0532 -0.0967  0.1715
 5997TIP3    H139406   3.250   5.068   0.672  0.1649  0.3961 -0.5810
 5997TIP3    H239407   3.221   4.921   0.650 -0.6907  0.4784 -0.0584
 5998TIP3   OH239408   0.767   4.270   0.968 -0.3025 -0.1629 -0.1081
 5998TIP3    H139409   0.678   4.273   1.003 -0.7307 -0.0590 -1.1855
 5998TIP3    H239410   0.806   4.194   1.009 -0.7339  0.0691  0.7416
 5999TIP3   OH239411   2.208   2.048  16.043 -0.0542 -0.3616 -0.2968
 5999TIP3    H139412   2.264   2.112  16.000  0.8378 -1.5779 -0.9434
 5999TIP3    H239413   2.198   2.082  16.132 -0.1706  1.0412 -0.8269
 6000TIP3   OH239414   4.204   0.746  14.519 -0.0357 -0.1024  0.1272
 6000TIP3    H139415   4.156   0.822  14.552 -1.0912 -0.7145  0.0260
 6000TIP3    H239416   4.239   0.774  14.435  0.7337  0.7149  0.7130
 6001TIP3   OH239417   4.416   2.836   5.216 -0.1072  0.1774  0.2913
 6001TIP3    H139418   4.415   2.740   5.217  1.7261  0.1461  0.4937
 6001TIP3    H239419   4.344   2.861   5.274 -0.3682 -1.0839  0.5206
 6002TIP3   OH239420   1.068   0.750  13.439 -0.2303  0.2681  0.2059
 6002TIP3    H139421   1.136   0.810  13.409 -0.7352  1.1007  0.6916
 6002TIP3    H239422   1.104   0.663  13.424  0.0391  0.6783 -1.6238
 6003TIP3   OH239423   5.679   6.564  16.265 -0.6982 -0.6441  0.0156
 6003TIP3    H139424   5.613   6.509  16.223 -2.3450  0.4995  1.0497
 6003TIP3    H239425   5.650   6.654  16.247  0.0476 -0.1368  1.3129
 6004TIP3   OH239426   3.287   4.239  14.747 -0.2674 -0.2573 -0.0991
 6004TIP3    H139427   3.334   4.159  14.772  0.2510 -0.3577 -1.3109
 6004TIP3    H239428   3.356   4.298  14.715 -0.8651 -0.1385 -1.2204
 6005TIP3   OH239429   3.994   6.525  11.704  0.2285  0.3209  0.0762
 6005TIP3    H139430   3.933   6.588  11.668 -0.6035 -0.6723 -0.2656
 6005TIP3    H239431   3.956   6.499  11.788  0.0721 -0.4512 -0.2292
 6006TIP3   OH239432   5.107   4.768   4.365  0.1785  0.1396  0.3718
 6006TIP3    H139433   5.180   4.819   4.332  0.3830  0.3587  1.1530
 6006TIP3    H239434   5.081   4.712   4.292  0.3625  0.9048 -0.2796
 6007TIP3   OH239435   3.443   6.341   4.570 -0.1595  0.0813  0.3419
 6007TIP3    H139436   3.535   6.330   4.545  0.0953  1.2193  0.7677
 6007TIP3    H239437   3.409   6.404   4.506 -0.2938  0.6907  1.0161
 6008TIP3   OH239438   3.505   5.787   5.115  0.4871  0.1331 -0.2683
 6008TIP3    H139439   3.413   5.773   5.096  0.7026 -0.4564 -0.8979
 6008TIP3    H239440   3.533   5.855   5.054  0.3750  0.5726  0.1737
 6009TIP3   OH239441   4.719   1.689   5.887  0.4667  0.7171  0.4212
 6009TIP3    H139442   4.702   1.613   5.944  1.1346  1.8449  2.1589
 6009TIP3    H239443   4.727   1.651   5.800 -0.8764 -1.0235  1.0121
 6010TIP3   OH239444   1.437   0.064  11.140  0.1669  0.4312  0.4546
 6010TIP3    H139445   1.507   0.057  11.076 -0.0455  1.3531  0.1135
 6010TIP3    H239446   1.457  -0.003  11.205  0.1693 -0.7713 -0.7693
 6011TIP3   OH239447   6.550   3.070  15.032 -0.2359 -0.3735  0.1113
 6011TIP3    H139448   6.482   3.105  15.089  0.8748  2.5486 -0.2656
 6011TIP3    H239449   6.505   3.053  14.949 -1.1432 -1.4755  0.8157
 6012TIP3   OH239450   2.774   4.609   5.573 -0.2226 -0.2873  0.6098
 6012TIP3    H139451   2.816   4.527   5.600 -0.3326 -0.7253 -0.5537
 6012TIP3    H239452   2.740   4.592   5.486  0.8621  1.3869 -0.1803
 6013TIP3   OH239453   1.556   6.300   6.077  0.3525 -0.5723 -0.4870
 6013TIP3    H139454   1.547   6.295   6.172  1.4497 -0.0719 -0.3381
 6013TIP3    H239455   1.562   6.209   6.049  2.5371 -0.6990  0.2220
 6014TIP3   OH239456   6.035   4.204   5.752  0.1544 -0.2397 -0.4374
 6014TIP3    H139457   6.064   4.118   5.720  0.8334 -0.2900  0.3045
 6014TIP3    H239458   6.045   4.199   5.847  0.7159  0.8398 -0.4286
 6015TIP3   OH239459   3.941   6.657   6.472  0.1454  0.0990  0.4700
 6015TIP3    H139460   3.980   6.652   6.384  0.4036 -1.0375  0.6291
 6015TIP3    H239461   3.910   6.568   6.489  0.4123  0.2256  1.6696
 6016TIP3   OH239462   5.208   3.546   3.270 -0.4208 -0.2758 -0.4686
 6016TIP3    H139463   5.172   3.466   3.309  0.3845 -0.7092 -0.6132
 6016TIP3    H239464   5.295   3.554   3.308 -0.7009  0.8351 -0.0370
 6017TIP3   OH239465   5.087   3.327  16.034  0.5874  0.1124 -0.0573
 6017TIP3    H139466   5.111   3.236  16.016  0.2522  0.3467 -1.7218
 6017TIP3    H239467   4.993   3.324  16.049  0.4908  0.2561 -0.6267
 6018TIP3   OH239468   5.029   3.463  14.383  0.4091  0.0085  0.3889
 6018TIP3    H139469   4.994   3.464  14.294 -1.5302  3.5702  1.0744
 6018TIP3    H239470   4.952   3.479  14.439  1.9529  0.1593  2.5393
 6019TIP3   OH239471   5.986   1.132  12.430  0.0410  0.7476 -0.2862
 6019TIP3    H139472   5.893   1.148  12.418 -0.0063  1.2386  0.6823
 6019TIP3    H239473   6.003   1.157  12.521  0.6865 -1.3633  0.2012
 6020TIP3   OH239474   3.430   3.733  14.396  0.4849  0.0390 -0.5116
 6020TIP3    H139475   3.373   3.657  14.381  0.1813  0.2554 -0.4460
 6020TIP3    H239476   3.376   3.809  14.375 -0.1809  0.3960  2.2829
 6021TIP3   OH239477   2.581   1.321  13.073 -0.1734  0.0940  1.1787
 6021TIP3    H139478   2.602   1.296  12.983 -2.5284 -1.0428  0.8980
 6021TIP3    H239479   2.593   1.240  13.123 -1.5645 -0.0185  1.3724
 6022TIP3   OH239480   0.772   6.592  15.887  0.4015 -0.2674  0.3364
 6022TIP3    H139481   0.815   6.550  15.962 -0.0517 -0.4123  0.5154
 6022TIP3    H239482   0.829   6.666  15.866 -1.0992  1.6942  2.8792
 6023TIP3   OH239483   6.048   0.712  15.513  0.1962 -0.1564  0.4061
 6023TIP3    H139484   6.046   0.620  15.485  0.3351 -0.0799  0.1449
 6023TIP3    H239485   6.052   0.707  15.608 -0.3402 -0.4156  0.4165
 6024TIP3   OH239486   0.361   6.379   0.264  0.0340  0.2173  0.1204
 6024TIP3    H139487   0.393   6.465   0.292 -1.4616  0.6582  0.4839
 6024TIP3    H239488   0.430   6.346   0.206  0.0708  2.1890 -0.9931
 6025TIP3   OH239489   3.421   1.174  16.713 -0.1066 -0.3965 -0.0700
 6025TIP3    H139490   3.417   1.238  16.785 -3.7244 -0.3124 -0.2972
 6025TIP3    H239491   3.498   1.201  16.662  0.2159  1.9165  1.5492
 6026TIP3   OH239492   5.565   4.111   4.845 -0.2185  0.0824 -0.6291
 6026TIP3    H139493   5.589   4.178   4.780  0.0734  0.8152  0.2266
 6026TIP3    H239494   5.532   4.038   4.792  2.0592 -0.1948 -1.7375
 6027TIP3   OH239495   3.711   0.425   3.495 -0.0601 -0.0432 -0.0861
 6027TIP3    H139496   3.776   0.362   3.466 -0.2933 -0.0932 -0.5180
 6027TIP3    H239497   3.627   0.379   3.485 -0.0575 -0.4610  1.7908
 6028TIP3   OH239498   5.702   5.433  13.400  0.5187  0.2880  0.8466
 6028TIP3    H139499   5.751   5.506  13.361  0.2058  1.2045  2.1479
 6028TIP3    H239500   5.759   5.358  13.389  0.4609  0.5271 -1.3478
 6029TIP3   OH239501   3.273   3.916   4.058 -0.0637 -0.0040 -0.0495
 6029TIP3    H139502   3.318   3.831   4.057 -0.0519 -0.0123  0.6246
 6029TIP3    H239503   3.181   3.894   4.071 -0.0814  0.0776 -0.0381
 6030TIP3   OH239504   5.344   5.966  11.343 -0.2070  0.2467  0.1388
 6030TIP3    H139505   5.390   5.955  11.259  0.1013  1.3692  0.1503
 6030TIP3    H239506   5.320   5.877  11.369 -0.2551 -0.1193 -1.1154
 6031TIP3   OH239507   4.603   4.632  16.066 -0.2527 -0.1706  0.5631
 6031TIP3    H139508   4.626   4.629  15.973 -0.3454  2.0330  0.4452
 6031TIP3    H239509   4.539   4.562  16.077  0.0052 -0.6606 -0.9637
 6032TIP3   OH239510   4.910   5.766   6.383  0.2370 -0.6664 -0.4432
 6032TIP3    H139511   4.992   5.733   6.347  0.8172  0.8330 -0.5021
 6032TIP3    H239512   4.891   5.845   6.332  1.5440  2.0376  3.0489
 6033TIP3   OH239513   3.702   4.070   2.095 -0.0712  0.2298 -0.3741
 6033TIP3    H139514   3.718   3.975   2.092  0.6001  0.3595 -1.5406
 6033TIP3    H239515   3.741   4.102   2.013  1.2849  1.7519  0.8429
 6034TIP3   OH239516   4.993   1.195   2.362  0.0138 -0.4305  0.7668
 6034TIP3    H139517   4.926   1.219   2.298  1.2285 -0.7909 -0.6722
 6034TIP3    H239518   4.945   1.180   2.443 -1.4391  1.0491  0.1999
 6035TIP3   OH239519   6.142   3.619   3.685  0.2564  0.6941  0.1372
 6035TIP3    H139520   6.214   3.577   3.638  0.6654 -0.4374  1.7355
 6035TIP3    H239521   6.078   3.640   3.617 -0.4486 -3.5467 -0.6029
 6036TIP3   OH239522   3.093   3.874   4.358 -0.0967 -0.1812  0.5082
 6036TIP3    H139523   3.170   3.893   4.412 -1.3462  0.0764  2.2465
 6036TIP3    H239524   3.104   3.783   4.332  1.6772  0.3567 -0.7716
 6037TIP3   OH239525   6.274   1.598   3.135  0.3974 -0.0636 -0.2203
 6037TIP3    H139526   6.358   1.636   3.111  1.1115 -0.8286  1.0392
 6037TIP3    H239527   6.236   1.661   3.197 -0.0361  0.3418 -0.8790
 6038TIP3   OH239528   0.066   0.888  15.051  0.3714  0.2334 -0.3354
 6038TIP3    H139529  -0.019   0.849  15.072  0.5403 -0.8222 -1.5525
 6038TIP3    H239530   0.130   0.826  15.087  0.6322 -0.0708 -1.3111
 6039TIP3   OH239531   4.693   4.874   0.987 -0.3205 -0.3775  0.4610
 6039TIP3    H139532   4.765   4.935   1.005 -1.0870  0.5964  0.2653
 6039TIP3    H239533   4.614   4.928   0.991 -1.0104 -1.3602  0.2728
 6040TIP3   OH239534   2.380   6.229  13.678 -0.0754 -0.3702  0.1779
 6040TIP3    H139535   2.354   6.144  13.642  0.3508 -1.3156  2.0073
 6040TIP3    H239536   2.330   6.236  13.760  0.0726  1.0428  0.1556
 6041TIP3   OH239537   1.067   1.166   5.897 -0.5263  0.4955 -0.2507
 6041TIP3    H139538   0.997   1.102   5.910 -2.4878  2.2689 -1.8038
 6041TIP3    H239539   1.065   1.219   5.977  0.1819 -0.4792  0.4307
 6042TIP3   OH239540   0.839   0.817  13.578  0.1961 -0.0867 -0.2832
 6042TIP3    H139541   0.908   0.772  13.528 -0.0711  1.5050 -2.1710
 6042TIP3    H239542   0.882   0.844  13.659  1.6080  0.2283 -1.1175
 6043TIP3   OH239543   0.366   4.462  13.764 -0.0406  0.1982 -0.2214
 6043TIP3    H139544   0.374   4.386  13.821 -1.1585 -0.0515 -0.3991
 6043TIP3    H239545   0.384   4.537  13.821 -2.5739  0.0562  0.8131
 6044TIP3   OH239546   6.628   3.276  11.826  0.4563  0.0495  0.7604
 6044TIP3    H139547   6.562   3.300  11.891  0.5665  0.1552  0.8329
 6044TIP3    H239548   6.631   3.180  11.829 -0.6840 -0.0358 -0.2155
 6045TIP3   OH239549   0.191   4.121  16.550 -0.5682  0.4331 -0.0051
 6045TIP3    H139550   0.178   4.072  16.469 -0.2523 -0.9831  0.7910
 6045TIP3    H239551   0.267   4.176  16.533 -1.0847  0.8438 -0.9960
 6046TIP3   OH239552   6.245   6.424   1.177 -0.3397 -0.1930 -0.1153
 6046TIP3    H139553   6.179   6.486   1.145  0.6788  1.1761  0.3985
 6046TIP3    H239554   6.228   6.418   1.271 -0.5752 -0.8719 -0.1999
 6047TIP3   OH239555   3.844   4.277   2.883 -0.5649 -0.4096 -0.3471
 6047TIP3    H139556   3.805   4.193   2.858  1.9356 -2.3839  2.0361
 6047TIP3    H239557   3.930   4.276   2.841 -0.1560  0.5430  0.4635
 6048TIP3   OH239558   3.261   2.998  11.317 -0.6460 -0.5992  0.1970
 6048TIP3    H139559   3.204   3.074  11.326 -1.4157 -1.0765 -0.5543
 6048TIP3    H239560   3.261   2.957  11.403 -0.0449  0.3752  0.6653
 6049TIP3   OH239561   2.769   4.175   4.337 -0.3646 -0.1014 -0.0427
 6049TIP3    H139562   2.858   4.200   4.314 -0.2113  0.4737  1.1627
 6049TIP3    H239563   2.758   4.087   4.300  1.4243 -1.0755  1.6712
 6050TIP3   OH239564   4.523   2.467  15.218  0.0732 -0.1808  0.4581
 6050TIP3    H139565   4.429   2.471  15.198  0.6793 -0.7372 -2.7891
 6050TIP3    H239566   4.554   2.557  15.208 -0.0270 -0.0935  0.9604
 6051TIP3   OH239567   2.769   3.367   1.505 -0.1595  0.0904 -0.4558
 6051TIP3    H139568   2.853   3.343   1.464  0.1079 -0.3949  0.3728
 6051TIP3    H239569   2.703   3.332   1.445  0.1874 -4.0838  1.3767
 6052TIP3   OH239570   3.809   3.665  14.605 -0.0936 -0.1057  0.5441
 6052TIP3    H139571   3.740   3.599  14.614 -0.1531  0.0926  1.6181
 6052TIP3    H239572   3.771   3.732  14.549 -0.6513 -0.1652  0.8457
 6053TIP3   OH239573   4.778   6.740   2.892 -0.0161  0.3291 -0.3316
 6053TIP3    H139574   4.821   6.813   2.847  0.3198  0.7470  0.6471
 6053TIP3    H239575   4.849   6.679   2.911 -0.4392 -0.6966 -1.9704
 6054TIP3   OH239576   0.713   5.020  15.830  0.0477 -0.1029 -0.4038
 6054TIP3    H139577   0.626   4.990  15.803 -0.3709  0.1717  0.6336
 6054TIP3    H239578   0.773   4.957  15.791 -0.6023 -0.1972 -1.2703
 6055TIP3   OH239579   5.220   6.635  15.632 -0.2213  0.1980  0.2740
 6055TIP3    H139580   5.229   6.729  15.619  0.8731  0.0771  0.0874
 6055TIP3    H239581   5.135   6.613  15.593  0.5087  0.7526 -1.7013
 6056TIP3   OH239582   5.672   6.508  17.016 -0.1294 -0.2047  0.0439
 6056TIP3    H139583   5.695   6.458  16.938 -0.3316  0.6588 -0.5909
 6056TIP3    H239584   5.755   6.536  17.053 -0.0599  0.7080 -0.7665
 6057TIP3   OH239585   6.221   0.333  11.697  0.5085  0.0779  0.1138
 6057TIP3    H139586   6.263   0.267  11.752  0.5109 -0.1508 -0.1575
 6057TIP3    H239587   6.144   0.288  11.662 -0.0469  0.5407  0.7267
 6058TIP3   OH239588   6.408   0.142  16.581  0.7453 -0.2980  0.1077
 6058TIP3    H139589   6.481   0.107  16.633  1.7165 -1.2459 -1.8586
 6058TIP3    H239590   6.421   0.105  16.494 -1.5838  0.2673 -0.5028
 6059TIP3   OH239591   0.396   1.790  14.462  0.1334  0.4722 -0.3564
 6059TIP3    H139592   0.314   1.820  14.503  0.1408  1.3367 -0.9678
 6059TIP3    H239593   0.368   1.725  14.397  0.0733 -0.4626  0.5912
 6060TIP3   OH239594   3.814   0.456   5.136  0.5428  0.3672  0.4364
 6060TIP3    H139595   3.896   0.453   5.185  0.6878  1.3441  0.2640
 6060TIP3    H239596   3.836   0.503   5.055  0.5260 -2.0223 -0.9982
 6061TIP3   OH239597   1.163   5.178  15.215  0.5143 -0.3925 -0.4018
 6061TIP3    H139598   1.240   5.224  15.248  0.6113 -0.5343 -0.4313
 6061TIP3    H239599   1.092   5.242  15.223  0.2384 -0.8984  1.4267
 6062TIP3   OH239600   0.779   2.979   4.647  0.1548  0.4171  0.0081
 6062TIP3    H139601   0.830   3.017   4.576  1.3794  0.7507  1.0362
 6062TIP3    H239602   0.822   2.895   4.666 -1.8561 -1.0205 -1.4982
 6063TIP3   OH239603   0.349   1.057  13.992  0.3733  0.3953 -0.1999
 6063TIP3    H139604   0.377   1.148  14.006  1.7878  0.0126 -0.3976
 6063TIP3    H239605   0.314   1.056  13.903  0.1065  0.8086 -0.1010
 6064TIP3   OH239606   0.283   2.590   2.583  0.6035  0.1796 -0.0887
 6064TIP3    H139607   0.281   2.559   2.674  0.2586  1.4812  0.3752
 6064TIP3    H239608   0.354   2.655   2.583  0.3622  0.4375 -0.6623
 6065TIP3   OH239609   2.587   4.060  16.191  0.5427  0.0011 -0.3276
 6065TIP3    H139610   2.515   4.037  16.132  0.2898 -0.8373  0.3018
 6065TIP3    H239611   2.650   4.104  16.134 -0.9113  1.6716 -0.6925
 6066TIP3   OH239612   5.365   1.110  12.097  0.0311  0.6716 -0.0448
 6066TIP3    H139613   5.298   1.074  12.038  0.5949  0.8114 -0.7781
 6066TIP3    H239614   5.401   1.185  12.049 -0.3403  1.5319  0.9925
 6067TIP3   OH239615   1.273   4.251   6.546  0.2625  0.6026  0.0629
 6067TIP3    H139616   1.195   4.229   6.598  0.1041 -0.9412 -0.7964
 6067TIP3    H239617   1.343   4.198   6.585 -0.3257 -2.2751 -2.6372
 6068TIP3   OH239618   1.314   4.186   3.846 -0.5182 -0.5054  0.3518
 6068TIP3    H139619   1.241   4.232   3.805 -1.6404 -1.2243  1.5197
 6068TIP3    H239620   1.385   4.251   3.849 -0.7919 -0.0910 -1.6225
 6069TIP3   OH239621   6.382   2.174  11.550 -0.2280  0.3835  0.0217
 6069TIP3    H139622   6.384   2.223  11.632 -1.1205  0.3507  0.0591
 6069TIP3    H239623   6.378   2.082  11.577  0.2571  0.3343 -0.0578
 6070TIP3   OH239624   2.374   2.768  10.484 -0.5785  0.4904  0.7061
 6070TIP3    H139625   2.283   2.778  10.512 -0.4169 -0.6871  1.6482
 6070TIP3    H239626   2.370   2.703  10.414 -0.1985 -1.1210  2.1725
 6071TIP3   OH239627   3.589   3.953   3.429  0.0239 -0.0778  0.6725
 6071TIP3    H139628   3.657   3.913   3.482  0.9173 -1.5660 -1.5072
 6071TIP3    H239629   3.611   4.047   3.428  2.5365 -0.6328 -0.6324
 6072TIP3   OH239630   2.166   4.376   4.994  0.0808 -0.3672 -0.4729
 6072TIP3    H139631   2.215   4.306   4.951  0.7507 -0.0906 -0.1596
 6072TIP3    H239632   2.190   4.455   4.946 -0.8243 -0.3716 -0.9504
 6073TIP3   OH239633   5.883   1.067   5.915  0.1575 -0.0882  0.0785
 6073TIP3    H139634   5.951   1.010   5.878  0.8146 -0.1207  1.2970
 6073TIP3    H239635   5.816   1.006   5.948  1.8021 -0.3106  3.2191
 6074TIP3   OH239636   5.679   4.510   6.201 -0.7206 -0.3487 -0.7160
 6074TIP3    H139637   5.657   4.470   6.285 -1.4072 -0.5661 -0.9987
 6074TIP3    H239638   5.704   4.600   6.223 -0.9926 -0.3748 -0.2916
 6075TIP3   OH239639   3.641   1.940   4.406 -0.0244  0.3749 -0.0799
 6075TIP3    H139640   3.687   1.983   4.478  0.3033 -0.1024 -0.0027
 6075TIP3    H239641   3.707   1.934   4.336  0.0334 -0.3111  0.0328
 6076TIP3   OH239642   2.625   5.566   0.261  0.4589 -0.6875  0.2648
 6076TIP3    H139643   2.683   5.493   0.243  0.0095 -1.0714  0.3608
 6076TIP3    H239644   2.582   5.543   0.343  1.2658  0.2817  0.9673
 6077TIP3   OH239645   0.827   5.131  11.089 -0.6775  0.0536  0.2982
 6077TIP3    H139646   0.905   5.076  11.088 -1.0146 -0.4083 -1.2153
 6077TIP3    H239647   0.776   5.102  11.014 -2.5712  0.0015  1.5767
 6078TIP3   OH239648   1.764   6.255  13.299 -0.5221  0.1386 -0.2804
 6078TIP3    H139649   1.709   6.228  13.373 -1.1474 -0.9845 -1.1361
 6078TIP3    H239650   1.730   6.341  13.274 -0.5181  0.3806  0.5307
 6079TIP3   OH239651   2.213   0.248   2.639  0.2224 -0.4697  0.0907
 6079TIP3    H139652   2.201   0.330   2.687  0.6333 -0.3712  0.0317
 6079TIP3    H239653   2.308   0.242   2.626  0.2260 -1.1254  0.4004
 6080TIP3   OH239654   2.135   3.590  11.606 -0.1813 -0.1617  0.0675
 6080TIP3    H139655   2.212   3.537  11.625  0.1722  0.5231  0.5213
 6080TIP3    H239656   2.068   3.526  11.581  0.2838 -0.8132  0.4826
 6081TIP3   OH239657   3.903   6.337  14.666  0.1528 -0.2325  0.0613
 6081TIP3    H139658   3.952   6.348  14.584 -2.1988  1.1710 -1.2092
 6081TIP3    H239659   3.919   6.419  14.714 -1.8808  0.7770 -0.9130
 6082TIP3   OH239660   6.031   3.569   1.058 -0.2769 -0.1944 -0.0014
 6082TIP3    H139661   6.002   3.479   1.049 -1.7247  0.1134  1.4604
 6082TIP3    H239662   5.991   3.615   0.983  0.0630 -0.6456 -0.4647
 6083TIP3   OH239663   1.971   3.769  11.722 -0.3133 -0.0788 -0.4770
 6083TIP3    H139664   1.964   3.769  11.817 -0.9929  1.9839 -0.4999
 6083TIP3    H239665   2.035   3.700  11.703  0.4496  0.0320  1.5095
 6084TIP3   OH239666   6.244   1.773  13.756  0.0062 -0.5019 -0.3404
 6084TIP3    H139667   6.330   1.738  13.736  0.4616  0.9624 -1.0188
 6084TIP3    H239668   6.248   1.864  13.728 -1.6125 -0.2925  0.0462
 6085TIP3   OH239669   2.950   1.239   4.900 -0.3968 -0.4749 -0.5469
 6085TIP3    H139670   2.912   1.306   4.957  0.3938 -0.3470 -0.1729
 6085TIP3    H239671   2.906   1.158   4.925  0.4430 -0.5536  0.7337
 6086TIP3   OH239672   1.794   3.419   2.787  0.3925  0.0848 -0.1847
 6086TIP3    H139673   1.719   3.360   2.790  1.2396 -1.1621 -1.9814
 6086TIP3    H239674   1.843   3.401   2.867  0.6122 -1.6567 -0.6916
 6087TIP3   OH239675   1.338   5.550  13.153  1.1874 -0.3108 -0.1214
 6087TIP3    H139676   1.255   5.596  13.151  1.1975 -0.3280 -1.3189
 6087TIP3    H239677   1.319   5.466  13.195  0.5430 -0.4492 -0.7012
 6088TIP3   OH239678   1.514   1.075   5.827 -0.4208  0.0058 -0.8601
 6088TIP3    H139679   1.433   1.106   5.786  0.0522  0.6334 -1.3443
 6088TIP3    H239680   1.505   1.097   5.919 -1.5051 -1.4266 -0.6090
 6089TIP3   OH239681   3.403   3.161  14.624 -0.3394  0.0434 -0.7953
 6089TIP3    H139682   3.319   3.141  14.582 -0.9019  1.7706 -0.4931
 6089TIP3    H239683   3.436   3.075  14.652 -2.2875 -0.5961 -0.3729
 6090TIP3   OH239684   3.641   1.107  16.951 -0.4279 -0.2430  0.3255
 6090TIP3    H139685   3.713   1.161  16.919 -0.8835  0.2021  0.0318
 6090TIP3    H239686   3.581   1.169  16.992 -1.2015 -0.4585 -0.4686
 6091TIP3   OH239687   0.776   5.017  13.577  1.2140 -0.7556  0.1680
 6091TIP3    H139688   0.842   5.061  13.525  0.7036  0.4449  0.5083
 6091TIP3    H239689   0.728   5.088  13.620 -1.6584 -1.4825 -1.7129
 6092TIP3   OH239690   4.706   0.686   3.611 -0.0109  0.0935  0.2976
 6092TIP3    H139691   4.622   0.731   3.602  0.5300  0.9598 -0.4976
 6092TIP3    H239692   4.762   0.749   3.657  0.4689 -0.1520  0.0501
 6093TIP3   OH239693   0.000   5.753   0.394  0.2153  0.2266 -0.3415
 6093TIP3    H139694  -0.094   5.747   0.411 -0.0953  1.6071 -1.4450
 6093TIP3    H239695   0.038   5.676   0.437 -1.4426 -0.4670 -0.1026
 6094TIP3   OH239696   2.924   2.832  12.288  0.0123 -0.4047  0.4624
 6094TIP3    H139697   2.984   2.869  12.353  1.1264 -2.4358  0.6005
 6094TIP3    H239698   2.974   2.763  12.245 -1.1503  0.0397 -1.6719
 6095TIP3   OH239699   5.775   0.125   2.658 -0.0738 -0.3400  0.0815
 6095TIP3    H139700   5.828   0.082   2.592  0.0065  0.5368 -0.4292
 6095TIP3    H239701   5.838   0.160   2.721 -0.0857 -0.0241 -0.0819
 6096TIP3   OH239702   2.891   5.142  15.544  0.0073 -0.6613 -0.6965
 6096TIP3    H139703   2.954   5.210  15.521  1.1567 -0.2728  3.2241
 6096TIP3    H239704   2.944   5.065  15.564 -1.0704 -1.7241 -1.8391
 6097TIP3   OH239705   3.018   5.490  13.468 -0.1513  0.0027 -0.2283
 6097TIP3    H139706   2.991   5.502  13.559 -2.7988 -1.3166 -0.7976
 6097TIP3    H239707   3.014   5.578  13.430 -1.1951  0.2177  0.3598
 6098TIP3   OH239708   5.180   6.138   5.221 -0.2565 -0.7937  0.1233
 6098TIP3    H139709   5.268   6.101   5.231 -0.3643 -1.0074  0.2702
 6098TIP3    H239710   5.190   6.205   5.153 -0.0412 -1.0229 -0.0702
 6099TIP3   OH239711   6.437   4.713  11.728 -0.0351 -0.5235  0.6679
 6099TIP3    H139712   6.386   4.773  11.782  1.0702  0.8489  0.2297
 6099TIP3    H239713   6.393   4.629  11.736 -3.0749  0.8722 -0.6545
 6100TIP3   OH239714   3.332   3.722   1.576  0.2047 -0.5970 -0.5304
 6100TIP3    H139715   3.409   3.763   1.615  0.4520  1.0787 -2.6725
 6100TIP3    H239716   3.329   3.635   1.614  2.2463 -0.1298  0.7714
 6101TIP3   OH239717   0.055   4.635   3.330  0.0658 -0.4407  0.1291
 6101TIP3    H139718   0.089   4.685   3.255  0.4437 -0.8046  0.0555
 6101TIP3    H239719   0.112   4.661   3.403 -0.9440  0.6893  0.5203
 6102TIP3   OH239720   2.920   5.913  12.419  1.1783  0.4446 -0.1932
 6102TIP3    H139721   2.995   5.872  12.376 -0.6461 -1.5316 -1.6508
 6102TIP3    H239722   2.889   5.846  12.480  0.1637  0.9334 -0.1627
 6103TIP3   OH239723   0.315   2.196  13.626  0.2505 -0.2458  0.1534
 6103TIP3    H139724   0.396   2.156  13.595  0.3830 -0.5716  0.8977
 6103TIP3    H239725   0.250   2.126  13.622 -0.4294  0.4619 -2.0670
 6104TIP3   OH239726   1.670   0.062   5.779  0.1612 -0.6262 -0.0973
 6104TIP3    H139727   1.691   0.154   5.797  0.8622 -0.5169 -1.3994
 6104TIP3    H239728   1.581   0.064   5.744  0.0589 -0.4834  0.1687
 6105TIP3   OH239729   5.649   1.767   5.518 -0.2479 -0.6985 -0.2264
 6105TIP3    H139730   5.560   1.734   5.530 -0.5846  0.3418  0.1987
 6105TIP3    H239731   5.694   1.747   5.600  0.0319 -1.5926 -0.5954
 6106TIP3   OH239732   2.459   2.649   3.381  0.3169  0.0562 -0.5474
 6106TIP3    H139733   2.451   2.560   3.416  1.0252 -0.0778 -0.7079
 6106TIP3    H239734   2.393   2.654   3.312  1.2264 -0.8234 -1.4976
 6107TIP3   OH239735   6.518   2.021  12.540  0.3179  0.6172 -0.2683
 6107TIP3    H139736   6.491   2.076  12.614 -1.2177 -0.7291  0.2132
 6107TIP3    H239737   6.612   2.010  12.551 -0.0923 -0.7328  2.3421
 6108TIP3   OH239738   3.216   3.681  13.935  0.5010  0.7268 -0.7461
 6108TIP3    H139739   3.124   3.659  13.953  0.2342  2.0079 -0.5125
 6108TIP3    H239740   3.262   3.597  13.939 -0.1941  0.4494  1.9158
 6109TIP3   OH239741   4.260   0.093  12.565  0.0035  0.2011  0.1191
 6109TIP3    H139742   4.239   0.024  12.502 -2.6854 -1.2271  2.4739
 6109TIP3    H239743   4.190   0.157  12.555 -0.5659 -0.1410  1.7875
 6110TIP3   OH239744   3.706   5.317  15.504  0.0385  0.1874 -0.2839
 6110TIP3    H139745   3.659   5.312  15.420 -0.6471  0.2661  0.0929
 6110TIP3    H239746   3.653   5.375  15.557  1.3364  1.4471 -0.3456
 6111TIP3   OH239747   2.615   0.889  15.367  0.4640  0.7861 -0.0775
 6111TIP3    H139748   2.567   0.971  15.382  0.0790  0.5523 -0.0384
 6111TIP3    H239749   2.591   0.863  15.278  0.0348  0.3413  0.1691
 6112TIP3   OH239750   1.152   2.795   0.231 -0.1411 -0.1986  0.2974
 6112TIP3    H139751   1.138   2.796   0.136 -0.2056  0.7260  0.3051
 6112TIP3    H239752   1.074   2.837   0.266  0.5519  0.8076  0.6573
 6113TIP3   OH239753   0.061   5.280  15.972  0.2382 -0.9249  0.0620
 6113TIP3    H139754   0.122   5.352  15.954 -0.6994  0.1447  1.0544
 6113TIP3    H239755   0.004   5.314  16.041 -2.5694 -1.2673 -2.0102
 6114TIP3   OH239756   1.327   4.643  12.096 -0.5119  0.3361  0.0208
 6114TIP3    H139757   1.331   4.712  12.030 -1.8122  0.4771  0.0678
 6114TIP3    H239758   1.235   4.618  12.098  0.0588 -1.9565 -0.5572
 6115TIP3   OH239759   4.273   1.255  11.222 -0.2767 -0.5126 -0.5997
 6115TIP3    H139760   4.326   1.194  11.170  0.2266  0.9236 -1.8001
 6115TIP3    H239761   4.286   1.226  11.313 -0.0026 -2.1474 -1.1287
 6116TIP3   OH239762   0.617   3.975  13.121 -0.5577 -0.0791 -0.0816
 6116TIP3    H139763   0.634   3.897  13.174 -1.9436 -0.5734 -0.3400
 6116TIP3    H239764   0.641   3.949  13.032  0.8125  0.4225  0.1371
 6117TIP3   OH239765   4.232   5.396   5.815  0.8561 -0.4351  0.2955
 6117TIP3    H139766   4.282   5.322   5.850  2.7012  0.6561  0.0217
 6117TIP3    H239767   4.276   5.419   5.734 -2.0956 -1.5480 -1.7067
 6118TIP3   OH239768   6.231   4.566   3.458 -0.3002  0.0772  0.5976
 6118TIP3    H139769   6.255   4.649   3.499 -0.8338 -0.4598  2.0387
 6118TIP3    H239770   6.274   4.568   3.372 -0.6989  2.0312  0.4254
 6119TIP3   OH239771   1.678   0.410   0.049  0.3189 -0.2007  0.0212
 6119TIP3    H139772   1.642   0.321   0.051  0.4678 -0.2519  0.6508
 6119TIP3    H239773   1.632   0.453  -0.022  1.7454 -1.4231 -1.7054
 6120TIP3   OH239774   5.831   1.377  16.047 -0.5375  0.5366  0.3765
 6120TIP3    H139775   5.925   1.363  16.044 -0.6535 -0.1891  0.0471
 6120TIP3    H239776   5.803   1.336  16.129 -0.3458  2.1344  1.2597
 6121TIP3   OH239777   6.314   1.210  12.822  0.0076  0.0737 -0.7111
 6121TIP3    H139778   6.229   1.204  12.777 -0.3154 -1.6601  0.1037
 6121TIP3    H239779   6.308   1.147  12.893  1.9685 -0.0088 -0.5946
 6122TIP3   OH239780   3.570   2.914  14.956  0.9600  0.6783 -0.0494
 6122TIP3    H139781   3.640   2.964  14.915  1.3800 -1.3751 -1.9595
 6122TIP3    H239782   3.613   2.867  15.028  1.3154  0.3227 -0.4910
 6123TIP3   OH239783   4.008   1.759  16.350 -0.2948 -0.3799 -0.9524
 6123TIP3    H139784   4.074   1.780  16.284  0.5936  1.3369  0.4051
 6123TIP3    H239785   4.026   1.668  16.375  0.8589 -0.2890 -1.4118
 6124TIP3   OH239786   1.639   4.123  16.101  0.0498  0.2202 -0.2645
 6124TIP3    H139787   1.551   4.122  16.140  0.2038 -0.5029  0.0884
 6124TIP3    H239788   1.641   4.201  16.046 -1.2602 -0.4434 -1.2754
 6125TIP3   OH239789   6.687   0.855   5.676 -0.0227 -0.7093  0.3104
 6125TIP3    H139790   6.682   0.877   5.769  1.3358  0.9422  0.0318
 6125TIP3    H239791   6.678   0.940   5.631  0.0586 -1.3902 -1.0218
 6126TIP3   OH239792   1.256   3.980   0.028  0.6048 -0.1759  0.1773
 6126TIP3    H139793   1.291   3.929   0.100 -0.2899 -1.7539 -0.4822
 6126TIP3    H239794   1.183   3.928  -0.006  0.7256  0.7494 -1.5787
 6127TIP3   OH239795   4.435   5.759  15.472 -0.1637  0.1621  0.4959
 6127TIP3    H139796   4.384   5.829  15.431 -0.1006  0.3700  0.7726
 6127TIP3    H239797   4.396   5.679  15.438 -0.1871  0.3309  0.1158
 6128TIP3   OH239798   6.079   3.472  11.669  0.2935 -0.3920  0.0751
 6128TIP3    H139799   5.998   3.432  11.702  1.6939 -1.7973  1.8980
 6128TIP3    H239800   6.053   3.561  11.644 -1.7102 -0.6380  1.1434
 6129TIP3   OH239801   3.648   3.186   2.683 -0.5604  0.1426  0.2883
 6129TIP3    H139802   3.660   3.238   2.763 -0.6847  0.6729 -0.0331
 6129TIP3    H239803   3.627   3.098   2.714  2.1211 -0.3480  0.8708
 6130TIP3   OH239804   6.645   5.408  16.107 -0.3131  0.1606  0.3244
 6130TIP3    H139805   6.619   5.499  16.126  2.3101  1.2675 -1.1492
 6130TIP3    H239806   6.572   5.374  16.054 -0.2461  2.2389 -1.2036
 6131TIP3   OH239807   6.392   1.234  10.845 -0.5026 -0.3447 -0.3517
 6131TIP3    H139808   6.322   1.170  10.854 -1.2958  0.3705 -1.3091
 6131TIP3    H239809   6.441   1.229  10.928 -3.1711  0.9108  1.3677
 6132TIP3   OH239810   2.079   2.755  14.453 -0.2797  0.5276  0.3199
 6132TIP3    H139811   2.174   2.764  14.451 -0.4108  2.3046  1.1020
 6132TIP3    H239812   2.063   2.662  14.438  1.5435  0.3564 -0.7217
 6133TIP3   OH239813   5.492   1.033   4.440  0.7528 -0.1611  0.0053
 6133TIP3    H139814   5.539   1.045   4.357  1.7278  0.8010  0.6813
 6133TIP3    H239815   5.542   0.967   4.487  0.9288  0.2172  0.3538
 6134TIP3   OH239816   6.408   3.498   7.091 -0.3641 -0.3876  0.2923
 6134TIP3    H139817   6.453   3.490   7.175  1.2318 -1.7832 -0.6703
 6134TIP3    H239818   6.462   3.560   7.041 -1.2184  0.3103  0.2247
 6135TIP3   OH239819   6.098   4.636   4.214 -0.0913  0.6876 -0.2968
 6135TIP3    H139820   6.129   4.692   4.143  1.8802  0.7710  0.6027
 6135TIP3    H239821   6.117   4.547   4.185  0.4475  0.7063 -0.0088
 6136TIP3   OH239822   3.142   5.476   3.065  0.6008  0.5497  0.7767
 6136TIP3    H139823   3.096   5.556   3.090 -0.2503  0.4935 -0.5157
 6136TIP3    H239824   3.082   5.405   3.090 -0.3747  0.5000 -1.4937
 6137TIP3   OH239825   5.023   6.370   3.414 -0.0130  0.0872  0.2167
 6137TIP3    H139826   5.116   6.351   3.409 -0.0313  0.2819 -1.1004
 6137TIP3    H239827   5.018   6.457   3.453  0.4028  0.3946 -0.4062
 6138TIP3   OH239828   4.794   5.612   6.601  0.0259  0.5471 -0.4476
 6138TIP3    H139829   4.745   5.693   6.613  1.4698  1.3409  0.1809
 6138TIP3    H239830   4.859   5.633   6.534  0.5195 -0.0357 -0.1569
 6139TIP3   OH239831   3.957   6.542  15.040  0.2455 -0.1734 -0.4015
 6139TIP3    H139832   3.878   6.545  15.094  0.3902 -0.5572 -0.1634
 6139TIP3    H239833   4.024   6.586  15.093  0.6621 -1.5209  0.2032
 6140TIP3   OH239834   4.512   3.230   1.387 -0.2110 -0.5177  0.0210
 6140TIP3    H139835   4.497   3.254   1.478  0.1955 -1.1550  0.2613
 6140TIP3    H239836   4.468   3.146   1.376 -0.7860 -0.1458 -0.5414
 6141TIP3   OH239837   6.475   1.908   1.960  0.0247  0.4941  0.2662
 6141TIP3    H139838   6.568   1.889   1.977 -0.0102 -0.3335 -0.4792
 6141TIP3    H239839   6.442   1.938   2.044  0.9252  0.6271  0.5874
 6142TIP3   OH239840   4.581   2.970   5.043  0.4939  0.1824  0.0265
 6142TIP3    H139841   4.620   3.029   5.108  1.1898 -0.2793  0.0424
 6142TIP3    H239842   4.513   2.924   5.091 -0.3360  1.2675 -0.0956
 6143TIP3   OH239843   3.316   1.085   3.901  0.2568  0.7063  0.2896
 6143TIP3    H139844   3.275   1.158   3.946 -0.6451  0.9919 -0.9591
 6143TIP3    H239845   3.341   1.024   3.971 -1.5361  0.9204  1.1480
 6144TIP3   OH239846   3.060   3.266  13.521  0.0257 -0.0418 -1.0009
 6144TIP3    H139847   3.092   3.337  13.465 -1.1274  0.6549 -0.8049
 6144TIP3    H239848   3.095   3.287  13.607 -0.8785  0.6899 -0.7982
 6145TIP3   OH239849   2.683   4.036  11.994 -0.3538 -1.0971  0.1620
 6145TIP3    H139850   2.706   3.971  11.927 -0.4964 -0.2097 -0.7631
 6145TIP3    H239851   2.767   4.065  12.029 -0.1996 -0.2062 -0.9448
 6146TIP3   OH239852   3.374   6.014   3.438 -0.8754  0.2938 -0.7712
 6146TIP3    H139853   3.330   5.964   3.369 -1.2195  1.8324 -1.7108
 6146TIP3    H239854   3.465   6.022   3.409 -0.2490 -1.7813  0.5383
 6147TIP3   OH239855   6.502   2.296  16.893  0.2115  0.8307 -0.1436
 6147TIP3    H139856   6.581   2.332  16.852  1.1079 -1.0919 -0.1665
 6147TIP3    H239857   6.439   2.289  16.822  0.7341  0.4002 -0.5683
 6148TIP3   OH239858   1.638   1.459   3.821 -0.1352  0.5259  0.4546
 6148TIP3    H139859   1.644   1.554   3.805  0.9174  0.5309  0.8198
 6148TIP3    H239860   1.675   1.419   3.742 -1.1663  0.3980  0.0296
 6149TIP3   OH239861   6.469   5.287  10.965 -0.3066  0.2698  0.0722
 6149TIP3    H139862   6.525   5.225  10.919 -2.2656 -1.3914 -0.1303
 6149TIP3    H239863   6.393   5.299  10.908 -1.1458  0.8845  1.2804
 6150TIP3   OH239864   1.296   6.568   3.059 -0.0356 -0.2716 -0.5888
 6150TIP3    H139865   1.201   6.563   3.051 -0.2387  0.4214  1.0387
 6150TIP3    H239866   1.321   6.488   3.105 -0.0106  0.2044  0.2440
 6151TIP3   OH239867   5.808   6.193  14.038  0.2365  0.1271 -0.1387
 6151TIP3    H139868   5.713   6.188  14.045  0.5180 -1.1739  4.3917
 6151TIP3    H239869   5.835   6.105  14.013  0.3638  0.1402 -0.0441
 6152TIP3   OH239870   4.392   2.793  15.452 -0.2499 -0.2977 -0.1659
 6152TIP3    H139871   4.368   2.740  15.528  0.3315 -1.8170 -1.0193
 6152TIP3    H239872   4.330   2.767  15.384 -1.5421  1.9348  0.1317
 6153TIP3   OH239873   2.193   1.337   3.841  0.6911 -0.1691 -0.0153
 6153TIP3    H139874   2.105   1.359   3.810  0.2008  0.5698  1.8492
 6153TIP3    H239875   2.249   1.401   3.797  0.0933  0.4499  0.1026
 6154TIP3   OH239876   0.217   3.595   1.914  0.2787  0.0691 -0.5654
 6154TIP3    H139877   0.232   3.680   1.873 -0.5463 -0.2031 -1.4643
 6154TIP3    H239878   0.128   3.602   1.950  0.2356 -0.3889 -0.5846
 6155TIP3   OH239879   4.637   2.174   2.969 -0.0094 -0.2866  0.1278
 6155TIP3    H139880   4.691   2.101   2.938  1.2162  1.1227 -1.1311
 6155TIP3    H239881   4.683   2.205   3.047 -1.1906 -1.6075  1.3697
 6156TIP3   OH239882   3.374   4.749  14.076 -0.0533 -0.1493  0.1318
 6156TIP3    H139883   3.453   4.796  14.104  0.0137  0.1935 -0.6164
 6156TIP3    H239884   3.376   4.754  13.980 -1.6740  1.0263  0.1435
 6157TIP3   OH239885   2.375   2.053  14.544 -0.1352  0.0776  0.1578
 6157TIP3    H139886   2.416   2.032  14.628  0.7912  0.1465 -0.2709
 6157TIP3    H239887   2.296   1.998  14.541  0.1923 -0.4255  0.7764
 6158TIP3   OH239888   4.169   4.510  16.907 -0.2609 -0.3209 -0.2859
 6158TIP3    H139889   4.120   4.564  16.846 -0.0990 -2.4311 -2.3547
 6158TIP3    H239890   4.111   4.436  16.926 -0.0093 -0.0774  1.5445
 6159TIP3   OH239891   6.087   1.118   1.846 -0.1396  0.3168  0.5630
 6159TIP3    H139892   6.080   1.191   1.909 -1.5116  0.3784  0.3604
 6159TIP3    H239893   6.076   1.160   1.760  1.8872  0.2542  0.2541
 6160TIP3   OH239894   3.140   2.319  11.652  0.7222 -0.0596  0.3772
 6160TIP3    H139895   3.172   2.234  11.684  1.7332 -0.1088 -0.7321
 6160TIP3    H239896   3.063   2.297  11.600  0.9896 -0.2953  0.0799
 6161TIP3   OH239897   3.937   2.981  13.386 -0.1763 -0.3232  0.4072
 6161TIP3    H139898   4.029   2.973  13.413 -0.6751 -1.2803  1.9209
 6161TIP3    H239899   3.908   2.890  13.374 -0.1815  0.0493 -2.7724
 6162TIP3   OH239900   6.681   3.903  16.458  0.1617 -0.0617  0.2740
 6162TIP3    H139901   6.739   3.828  16.470 -1.1654 -1.3955 -1.2691
 6162TIP3    H239902   6.715   3.948  16.381 -0.7149 -0.7643 -0.5471
 6163TIP3   OH239903   0.092   4.587   0.304  0.6736 -0.4688  0.4214
 6163TIP3    H139904   0.003   4.593   0.269  0.8070  1.2494  0.3355
 6163TIP3    H239905   0.147   4.567   0.227  0.4433 -0.9252  0.3739
 6164TIP3   OH239906   4.752   0.263  13.662 -0.5400  0.0427 -0.4339
 6164TIP3    H139907   4.725   0.213  13.585  0.0325  0.1451 -0.7071
 6164TIP3    H239908   4.745   0.202  13.735 -2.9193  0.4856 -0.2600
 6165TIP3   OH239909   0.157   3.308   4.920 -0.3250 -0.3809 -0.6360
 6165TIP3    H139910   0.206   3.231   4.951 -2.8200 -1.3049  1.1796
 6165TIP3    H239911   0.065   3.285   4.933 -1.1414  2.8674 -0.2026
 6166TIP3   OH239912   4.730   6.081  10.711 -0.5182  0.1981 -0.3207
 6166TIP3    H139913   4.787   6.032  10.770 -0.0416  2.4163  1.0770
 6166TIP3    H239914   4.788   6.108  10.639 -0.2236  0.8474  0.1605
 6167TIP3   OH239915   1.145   3.476   2.772  0.1698  0.5054 -0.3655
 6167TIP3    H139916   1.209   3.461   2.842 -0.7701 -0.8146  0.2385
 6167TIP3    H239917   1.118   3.388   2.745 -2.6943  1.0208  0.6334
 6168TIP3   OH239918   1.606   1.157   0.382  0.4947 -0.5084  0.9032
 6168TIP3    H139919   1.656   1.231   0.347 -0.9142  0.5426  1.0704
 6168TIP3    H239920   1.668   1.084   0.383  1.9816  0.7464  1.0259
 6169TIP3   OH239921   5.447   4.707  16.236 -0.6794  0.6032  0.3213
 6169TIP3    H139922   5.409   4.622  16.255  0.8776 -0.2113 -0.1198
 6169TIP3    H239923   5.430   4.720  16.143  1.6353 -0.5839 -0.3063
 6170TIP3   OH239924   3.837   5.929   5.908  0.1565  0.5716  0.3690
 6170TIP3    H139925   3.780   5.861   5.874 -0.8120  0.4234  2.2333
 6170TIP3    H239926   3.787   5.970   5.979  1.7838  1.4195  1.0699
 6171TIP3   OH239927   3.692   0.646   2.451 -0.0396  0.0775  0.1888
 6171TIP3    H139928   3.708   0.728   2.404 -0.0635  0.1085  0.2349
 6171TIP3    H239929   3.758   0.586   2.417  0.8297  0.4944  1.1164
 6172TIP3   OH239930   5.063   5.446  16.901 -0.6494  0.0174  0.0015
 6172TIP3    H139931   4.999   5.389  16.944  0.6394 -1.2068  0.3193
 6172TIP3    H239932   5.093   5.505  16.971  0.4040 -1.0497  0.4618
 6173TIP3   OH239933   5.497   2.241  16.847 -0.1341 -0.4691  0.2627
 6173TIP3    H139934   5.467   2.331  16.855  0.1347 -0.3943  0.4386
 6173TIP3    H239935   5.423   2.195  16.806 -0.2861 -0.1793  0.2049
 6174TIP3   OH239936   6.392   1.951   3.230  0.3662  0.4038  0.3137
 6174TIP3    H139937   6.404   2.035   3.274 -0.3635  0.8341 -0.2940
 6174TIP3    H239938   6.311   1.916   3.267  0.8863 -0.2365  0.8719
 6175TIP3   OH239939   4.159   1.124  15.300  0.4619 -0.3263 -0.0573
 6175TIP3    H139940   4.251   1.103  15.284  0.3720 -0.7752  0.0212
 6175TIP3    H239941   4.161   1.209  15.344  0.7921  0.1658 -1.0112
 6176TIP3   OH239942   2.187   5.641   4.143  0.5021 -0.0916  0.1475
 6176TIP3    H139943   2.122   5.660   4.210  0.7723  0.3737  0.2747
 6176TIP3    H239944   2.262   5.606   4.190  0.5770 -0.0513  0.0598
 6177TIP3   OH239945   3.073   4.300   0.796  0.0542  0.4061 -0.6171
 6177TIP3    H139946   3.089   4.385   0.837  1.9422 -1.2063  2.0868
 6177TIP3    H239947   3.145   4.290   0.734 -0.0422  0.6498 -0.7721
 6178TIP3   OH239948   0.356   4.394  10.777  0.2517 -0.2308 -0.0366
 6178TIP3    H139949   0.439   4.440  10.792  1.2854 -2.3099  0.9191
 6178TIP3    H239950   0.369   4.351  10.692  0.3004 -0.8379  0.2762
 6179TIP3   OH239951   3.369   0.725  14.690  0.4260 -0.5959  0.7424
 6179TIP3    H139952   3.400   0.807  14.651 -3.2319 -0.4207 -2.0956
 6179TIP3    H239953   3.303   0.752  14.754 -0.6869 -1.2866 -0.0973
 6180TIP3   OH239954   3.736   5.414  13.132  0.4121 -0.1445  0.3183
 6180TIP3    H139955   3.756   5.457  13.216 -0.2399  1.0546 -0.1302
 6180TIP3    H239956   3.804   5.348  13.122  1.9309  1.3571  0.6123
 6181TIP3   OH239957   2.226   1.503  16.076 -0.0993 -0.5288 -0.2895
 6181TIP3    H139958   2.133   1.496  16.098 -0.5383 -0.0717 -1.9572
 6181TIP3    H239959   2.232   1.582  16.023  1.3385 -0.2737  0.2402
 6182TIP3   OH239960   2.703   2.231   1.186  0.0846  0.8700  0.3506
 6182TIP3    H139961   2.738   2.228   1.275 -1.2688  2.2559  0.9511
 6182TIP3    H239962   2.765   2.285   1.138 -0.1225  1.5899  0.8935
 6183TIP3   OH239963   6.108   4.746  16.290  0.0225 -0.0928  0.0849
 6183TIP3    H139964   6.108   4.708  16.378 -0.7872 -0.5817 -0.1232
 6183TIP3    H239965   6.174   4.697  16.243  1.8401  1.4530  0.9544
 6184TIP3   OH239966   0.685   5.508  16.275  0.6514 -0.3778  0.5772
 6184TIP3    H139967   0.762   5.525  16.329  2.0706 -1.2054 -1.1023
 6184TIP3    H239968   0.669   5.414  16.285 -1.1101  0.0753  2.1330
 6185TIP3   OH239969   6.262   2.341   4.192  0.1698  0.0751  0.0280
 6185TIP3    H139970   6.306   2.273   4.241 -0.9394 -0.4168  0.3526
 6185TIP3    H239971   6.293   2.331   4.102 -1.5286 -2.1703 -0.3375
 6186TIP3   OH239972   3.729   5.184   5.605  0.4854 -0.0385 -0.4830
 6186TIP3    H139973   3.739   5.124   5.531  0.9570  0.5955 -0.9394
 6186TIP3    H239974   3.767   5.266   5.575  0.4971  0.2863  0.3971
 6187TIP3   OH239975   5.326   5.212   2.025  0.0063  0.0005 -0.3893
 6187TIP3    H139976   5.270   5.288   2.008 -0.9885 -0.8659 -0.9947
 6187TIP3    H239977   5.362   5.189   1.939 -0.7112 -1.0099 -0.4179
 6188TIP3   OH239978   3.242   1.315   6.044 -0.8132 -0.5698  0.2093
 6188TIP3    H139979   3.316   1.302   6.103 -0.0579 -1.3619 -0.8925
 6188TIP3    H239980   3.194   1.232   6.045 -2.6572  0.4713  2.2016
 6189TIP3   OH239981   1.267   5.388  12.064  0.0985  0.0108  0.2054
 6189TIP3    H139982   1.243   5.336  11.987 -1.3742  1.6404 -0.4712
 6189TIP3    H239983   1.346   5.434  12.037 -0.3987  0.5587 -0.3274
 6190TIP3   OH239984   6.290   6.183  13.573  0.0065 -0.1299 -0.1006
 6190TIP3    H139985   6.218   6.130  13.608 -0.8643  1.3937  0.4800
 6190TIP3    H239986   6.352   6.190  13.645 -1.0099  1.6178  0.6430
 6191TIP3   OH239987   4.594   4.757  12.936  0.2774  0.3039  0.5157
 6191TIP3    H139988   4.663   4.759  13.002  1.3922  2.1644 -0.6462
 6191TIP3    H239989   4.521   4.803  12.977 -0.0104 -0.9818  1.4614
 6192TIP3   OH239990   0.348   3.632   0.004 -0.3459 -0.7985 -0.0568
 6192TIP3    H139991   0.370   3.717  -0.036 -0.7219 -0.4265  0.5125
 6192TIP3    H239992   0.316   3.579  -0.069 -0.5461 -0.2927 -0.3438
 6193TIP3   OH239993   0.132   4.907  14.228  0.3812 -0.2963 -0.1753
 6193TIP3    H139994   0.062   4.887  14.166  1.5148  0.9570 -1.8890
 6193TIP3    H239995   0.204   4.940  14.174  0.4979  3.2509  1.9699
 6194TIP3   OH239996   0.824   5.070   6.397 -0.0140  0.0413  0.3471
 6194TIP3    H139997   0.858   5.121   6.470 -1.3840 -2.7784  3.1333
 6194TIP3    H239998   0.901   5.035   6.353  0.8411  0.0070  1.8376
 6195TIP3   OH239999   4.080   4.464  16.089  0.1539 -0.0452 -0.6225
 6195TIP3    H140000   4.080   4.467  15.994 -1.9495 -0.7316 -0.6722
 6195TIP3    H240001   4.007   4.519  16.115  0.9263  0.4160  0.6214
 6196TIP3   OH240002   1.590   5.163  11.312 -0.4144  0.3264  0.2818
 6196TIP3    H140003   1.668   5.133  11.265 -1.4902  0.5713 -1.6886
 6196TIP3    H240004   1.624   5.227  11.375  1.1085 -0.3988  0.2245
 6197TIP3   OH240005   4.803   3.655  13.636  0.4948  0.6265  0.7410
 6197TIP3    H140006   4.752   3.713  13.579  0.9560  0.2744 -0.0365
 6197TIP3    H240007   4.894   3.667  13.608  0.6347 -0.1789  0.8290
 6198TIP3   OH240008   4.738   5.669  16.923  0.2337  0.0379  0.1636
 6198TIP3    H140009   4.698   5.662  17.010  0.6754  0.3669  0.3968
 6198TIP3    H240010   4.709   5.591  16.876 -2.1585  1.1213 -0.2819
 6199TIP3   OH240011   2.983   5.684   0.156 -0.2639 -0.1676 -0.6349
 6199TIP3    H140012   2.963   5.660   0.065 -0.8629 -0.8552 -0.3289
 6199TIP3    H240013   2.979   5.601   0.204 -0.5770  0.2872  0.1339
 6200TIP3   OH240014   2.480   1.272  12.627 -0.4971  0.0194  0.1363
 6200TIP3    H140015   2.396   1.317  12.640 -0.9485 -1.1812  1.6023
 6200TIP3    H240016   2.480   1.203  12.694  1.0771 -0.8365 -0.7235
 6201TIP3   OH240017   3.125   6.083   3.209  0.2944 -0.6271  0.0244
 6201TIP3    H140018   3.145   6.176   3.200 -1.0639 -0.4210 -1.1295
 6201TIP3    H240019   3.043   6.072   3.160 -0.5629 -2.0604  1.7188
 6202TIP3   OH240020   3.107   5.341   6.128  0.4571 -0.2792 -0.1552
 6202TIP3    H140021   3.043   5.365   6.195  0.8782  1.7720 -0.4523
 6202TIP3    H240022   3.192   5.356   6.170  0.7238  1.3749 -1.2616
 6203TIP3   OH240023   1.330   2.847  16.300 -0.0126 -0.2048  0.4462
 6203TIP3    H140024   1.350   2.816  16.388 -2.8621 -0.7653  0.9377
 6203TIP3    H240025   1.252   2.798  16.274  0.2455  0.6049 -2.0411
 6204TIP3   OH240026   2.206   2.098  12.571  0.0967 -0.3108  0.0486
 6204TIP3    H140027   2.165   2.132  12.651 -1.1966 -1.3272 -0.1731
 6204TIP3    H240028   2.264   2.169  12.543  1.0896 -0.2023  2.2445
 6205TIP3   OH240029   0.543   0.079   4.121 -0.8634  0.0457  0.1634
 6205TIP3    H140030   0.542   0.076   4.025 -0.8775  1.3132  0.1085
 6205TIP3    H240031   0.628   0.044   4.146 -0.9392 -0.4724 -0.3043
 6206TIP3   OH240032   2.563   6.239  13.248 -0.5936 -0.1653  0.8076
 6206TIP3    H140033   2.591   6.283  13.168  1.7031 -0.7000  1.3046
 6206TIP3    H240034   2.576   6.303  13.318 -1.5984 -0.0629  0.9082
 6207TIP3   OH240035   3.518   3.340   4.781 -0.2525  0.0476  0.3666
 6207TIP3    H140036   3.585   3.271   4.778  0.2927  0.6475 -2.1855
 6207TIP3    H240037   3.469   3.330   4.699 -2.3707  0.5543  1.5330
 6208TIP3   OH240038   6.615   2.236  15.843 -0.2862  0.0392  0.0094
 6208TIP3    H140039   6.703   2.198  15.851 -0.4617 -0.3776 -0.0353
 6208TIP3    H240040   6.575   2.187  15.772  0.4485  2.1472 -1.9161
 6209TIP3   OH240041   3.324   4.856   2.602  0.4406 -0.1013 -0.4374
 6209TIP3    H140042   3.288   4.944   2.601 -2.3587 -1.1770  0.3663
 6209TIP3    H240043   3.390   4.856   2.532 -0.3755  2.2428 -1.2513
 6210TIP3   OH240044   2.469   3.440   4.385 -0.1082  0.1862 -0.2083
 6210TIP3    H140045   2.540   3.382   4.357 -0.7370 -0.5900 -0.2194
 6210TIP3    H240046   2.394   3.413   4.331 -1.0104 -0.4985  1.3657
 6211TIP3   OH240047   2.671   0.483   4.074 -0.0357 -0.0041 -0.0269
 6211TIP3    H140048   2.733   0.419   4.110  1.7475  1.1490 -0.9166
 6211TIP3    H240049   2.607   0.431   4.027  0.9619 -1.1961 -0.1031
 6212TIP3   OH240050   0.470   4.155  11.544 -0.0572 -0.7546  0.2292
 6212TIP3    H140051   0.458   4.211  11.467  2.1946 -0.4575  0.0370
 6212TIP3    H240052   0.521   4.209  11.605 -2.2558 -0.8113  2.1751
 6213TIP3   OH240053   6.468   5.307  14.299  0.2329 -0.6956  0.5731
 6213TIP3    H140054   6.453   5.216  14.275  1.9975 -0.9483  0.3863
 6213TIP3    H240055   6.557   5.326  14.268  0.2588  0.7813  1.4980
 6214TIP3   OH240056   0.028   3.468   4.562  0.0165 -0.1901 -0.3366
 6214TIP3    H140057   0.097   3.411   4.597  1.3771  0.4176 -1.9541
 6214TIP3    H240058  -0.051   3.414   4.568  0.6323 -0.9583  1.4029
 6215TIP3   OH240059   5.719   6.601   1.856  0.1192 -0.1421  0.0851
 6215TIP3    H140060   5.682   6.583   1.942 -1.5565 -2.0547 -0.9638
 6215TIP3    H240061   5.796   6.655   1.872 -0.6839  0.2565  2.6934
 6216TIP3   OH240062   2.544   2.956   0.101  0.7250 -0.2929  0.6475
 6216TIP3    H140063   2.596   2.885   0.063  0.4090 -0.8651  1.2576
 6216TIP3    H240064   2.516   3.009   0.027  1.0075 -0.7821  0.1909
 6217TIP3   OH240065   0.835   0.120  11.532 -0.2175  0.0666  0.0274
 6217TIP3    H140066   0.923   0.097  11.504  0.4114 -0.0403  2.0203
 6217TIP3    H240067   0.792   0.036  11.549 -0.0888  0.1555  0.8389
 6218TIP3   OH240068   0.929   0.335  15.230  0.1278  0.2780 -0.1311
 6218TIP3    H140069   0.929   0.242  15.207 -2.4233  0.8434 -2.7106
 6218TIP3    H240070   0.856   0.345  15.291  0.4249  0.5763  0.1770
 6219TIP3   OH240071   5.991   5.235  11.372 -0.5031  0.1429 -0.0141
 6219TIP3    H140072   5.959   5.162  11.424  0.7205 -1.6801 -1.7395
 6219TIP3    H240073   5.952   5.222  11.285 -0.0565  1.3961 -0.4233
 6220TIP3   OH240074   4.952   0.083  17.145 -0.0395 -0.5700 -0.5353
 6220TIP3    H140075   4.868   0.100  17.104  0.1448 -1.4334 -1.2920
 6220TIP3    H240076   4.932   0.021  17.215  0.2987 -2.7945 -2.3324
 6221TIP3   OH240077   5.311   3.663   5.310  0.7264  0.4860  0.0611
 6221TIP3    H140078   5.381   3.699   5.365  1.3160 -3.0918  1.7879
 6221TIP3    H240079   5.354   3.643   5.227  0.8842  1.6323 -0.1468
 6222TIP3   OH240080   2.109   4.202   3.075 -0.0669  0.1273  0.0707
 6222TIP3    H140081   2.144   4.286   3.043 -1.1991  0.4398 -0.3829
 6222TIP3    H240082   2.016   4.206   3.054 -0.0098 -1.5260 -0.5308
 6223TIP3   OH240083   1.954   4.384  15.447 -0.0857  0.4868 -0.3634
 6223TIP3    H140084   1.995   4.393  15.361  0.0227 -0.5589 -0.4245
 6223TIP3    H240085   2.021   4.416  15.508  0.0721  0.6487 -0.6185
 6224TIP3   OH240086   3.052   3.324   6.310 -0.0416 -0.0877  0.3315
 6224TIP3    H140087   3.074   3.413   6.338  0.1757  0.7221 -2.2631
 6224TIP3    H240088   3.017   3.282   6.389  1.0603  1.8760  1.9124
 6225TIP3   OH240089   5.592   0.469  15.771  0.3036  0.3666  0.3719
 6225TIP3    H140090   5.518   0.528  15.784 -0.2126 -0.4925  1.3564
 6225TIP3    H240091   5.594   0.454  15.676 -0.8209  0.3292  0.3460
 6226TIP3   OH240092   0.884   4.580  14.474 -0.1204  0.3523 -0.2367
 6226TIP3    H140093   0.911   4.547  14.560  1.4716  0.6019 -0.6115
 6226TIP3    H240094   0.821   4.649  14.492  0.3093  0.4901  0.7341
 6227TIP3   OH240095   0.069   3.043   3.920  0.5238  0.1744 -0.0919
 6227TIP3    H140096   0.070   3.125   3.969 -0.2288 -0.0626  0.3066
 6227TIP3    H240097   0.146   2.996   3.952  0.0711  0.0437  0.8165
 6228TIP3   OH240098   0.300   2.036   6.418  0.3214 -0.5031  0.3720
 6228TIP3    H140099   0.357   1.960   6.406  0.6147 -0.4440  1.3130
 6228TIP3    H240100   0.360   2.110   6.419  0.0727 -0.2953 -0.1548
 6229TIP3   OH240101   4.194   4.661   2.905 -0.2632  0.1305  0.3035
 6229TIP3    H140102   4.284   4.692   2.896 -0.2209 -0.1578 -0.2846
 6229TIP3    H240103   4.199   4.567   2.886 -1.2590  0.7429 -3.4226
 6230TIP3   OH240104   0.111   1.618  16.257  0.6658  0.3873  0.4689
 6230TIP3    H140105   0.049   1.647  16.323  1.1597  0.3277  0.9611
 6230TIP3    H240106   0.152   1.698  16.225 -0.5296  0.5468 -0.7411
 6231TIP3   OH240107   1.730   3.188  14.213  0.1035  0.1985  0.0918
 6231TIP3    H140108   1.642   3.188  14.175  0.3199 -2.1837 -0.4982
 6231TIP3    H240109   1.724   3.129  14.288  1.1723  0.1253  0.1285
 6232TIP3   OH240110   1.172   0.974  15.820  0.0092 -0.4102  0.6115
 6232TIP3    H140111   1.267   0.983  15.809 -0.1124  0.6764  0.3945
 6232TIP3    H240112   1.161   0.936  15.907  0.6307 -0.1793  0.7960
 6233TIP3   OH240113   3.240   0.048  15.471 -0.1307  0.1012 -0.2640
 6233TIP3    H140114   3.210   0.045  15.562  0.4821 -0.8856 -0.0873
 6233TIP3    H240115   3.269  -0.041  15.452 -0.3265  0.2795 -1.4558
 6234TIP3   OH240116   6.782   1.184  15.139 -0.0746  0.2079  0.4243
 6234TIP3    H140117   6.796   1.090  15.152  1.0888  0.4460  0.9420
 6234TIP3    H240118   6.853   1.211  15.081 -1.7955  0.3189 -1.7127
 6235TIP3   OH240119   2.646   3.367   4.014 -0.0533  0.0885  0.2359
 6235TIP3    H140120   2.699   3.430   4.062 -0.6330 -0.1468  1.2031
 6235TIP3    H240121   2.698   3.286   4.014  0.7796  0.6030 -1.1822
 6236TIP3   OH240122   5.476   1.365  16.824  0.0307  0.2756  0.8757
 6236TIP3    H140123   5.416   1.374  16.750  0.3219  1.7565  0.8045
 6236TIP3    H240124   5.557   1.409  16.795  0.3836  0.2500  1.8058
 6237TIP3   OH240125   4.893   1.839  17.205 -0.5150 -0.2040 -0.1961
 6237TIP3    H140126   4.856   1.769  17.152 -1.8341  0.1221  0.2749
 6237TIP3    H240127   4.818   1.875  17.253  0.6707 -0.5785  1.9904
 6238TIP3   OH240128   1.840   4.968   0.389 -0.3566  0.1936  0.0308
 6238TIP3    H140129   1.756   4.930   0.415 -0.6762 -1.3907 -3.0523
 6238TIP3    H240130   1.824   5.062   0.384 -2.0261 -0.1058 -0.6752
 6239TIP3   OH240131   0.526   0.369  12.198  0.6160  0.7183  0.4647
 6239TIP3    H140132   0.556   0.423  12.125  0.5060  1.0421  0.6582
 6239TIP3    H240133   0.463   0.308  12.159  1.3278  0.2024  0.1027
 6240TIP3   OH240134   2.154   1.989  14.984  0.3972  0.0005 -0.2206
 6240TIP3    H140135   2.081   2.039  14.946  1.9442  1.5970 -1.1342
 6240TIP3    H240136   2.113   1.938  15.055 -1.3074  2.1440  0.3876
 6241TIP3   OH240137   0.290   3.915   5.233 -0.4200 -0.2967  0.1177
 6241TIP3    H140138   0.295   3.970   5.155 -2.5521 -0.5796 -0.2380
 6241TIP3    H240139   0.202   3.928   5.267  0.1237 -0.9931  1.8918
 6242TIP3   OH240140   0.662   6.301  14.257 -0.2513 -0.0921  0.0426
 6242TIP3    H140141   0.614   6.367  14.307  1.2666  0.3003  1.0400
 6242TIP3    H240142   0.657   6.222  14.311  1.9807  0.5163  1.2147
 6243TIP3   OH240143   2.881   0.941  13.552 -0.2486  0.2518  0.2485
 6243TIP3    H140144   2.821   0.947  13.626 -1.3270 -0.5556 -0.5509
 6243TIP3    H240145   2.882   1.029  13.515  0.3004  0.6614  1.2233
 6244TIP3   OH240146   6.498   5.314   3.237 -0.0152  0.0330 -0.1570
 6244TIP3    H140147   6.430   5.259   3.198 -1.3001  2.2521 -1.1358
 6244TIP3    H240148   6.452   5.363   3.306  1.0184  0.1955  0.4224
 6245TIP3   OH240149   4.574   3.801  16.449 -0.7110  0.5233 -0.6087
 6245TIP3    H140150   4.532   3.840  16.372  0.2593  2.0163 -0.4042
 6245TIP3    H240151   4.556   3.862  16.520  0.4728  0.3871 -0.1779
 6246TIP3   OH240152   1.912   3.314  14.076  0.1761 -0.1468  0.2293
 6246TIP3    H140153   1.853   3.261  14.130 -1.8465  3.9597  2.3320
 6246TIP3    H240154   1.859   3.338  14.000 -0.0896  1.5265  0.9207
 6247TIP3   OH240155   2.764   3.127   1.323  0.3480 -0.3988 -0.0645
 6247TIP3    H140156   2.843   3.169   1.289 -0.2466  1.2290  0.5275
 6247TIP3    H240157   2.796   3.049   1.368  1.6485  0.3753  0.3789
 6248TIP3   OH240158   5.639   1.400   0.364  0.3312  0.3057  0.8346
 6248TIP3    H140159   5.545   1.400   0.343  0.1864 -1.1120  1.4032
 6248TIP3    H240160   5.672   1.319   0.325  0.9903 -0.0367  2.0785
 6249TIP3   OH240161   1.195   0.083  11.617 -0.4172 -0.0397  0.0520
 6249TIP3    H140162   1.133   0.075  11.544 -0.2967  0.6213 -0.1227
 6249TIP3    H240163   1.277   0.111  11.577  0.4343 -2.3551  0.0937
 6250TIP3   OH240164   1.592   0.310  13.731  0.1066  0.1709  0.5951
 6250TIP3    H140165   1.509   0.310  13.779 -0.6587  0.9394 -0.7007
 6250TIP3    H240166   1.584   0.383  13.670  1.6126  0.0465  0.2411
 6251TIP3   OH240167   3.724   1.953   1.703  0.3371  0.6410  0.5227
 6251TIP3    H140168   3.751   1.896   1.632 -0.4097  2.1155 -0.9793
 6251TIP3    H240169   3.799   2.012   1.717  1.6202 -1.4492  2.9388
 6252TIP3   OH240170   4.635   1.416  10.784 -0.8307 -0.1617  0.1365
 6252TIP3    H140171   4.720   1.441  10.749 -0.3620 -0.4456  1.0635
 6252TIP3    H240172   4.625   1.323  10.762  0.3944 -0.9020  2.5608
 6253TIP3   OH240173   3.195   3.638   3.126 -0.0718  0.1342 -0.0015
 6253TIP3    H140174   3.212   3.657   3.218 -0.8832 -0.6604  0.3155
 6253TIP3    H240175   3.204   3.543   3.119 -3.2958 -0.2301 -0.0149
 6254TIP3   OH240176   3.466   5.608  17.057  0.6307 -0.6417  0.1577
 6254TIP3    H140177   3.370   5.613  17.056  0.6633  0.2043  0.5399
 6254TIP3    H240178   3.490   5.617  17.149  1.0692 -1.0399  0.0832
 6255TIP3   OH240179   2.976   4.574   2.343  0.3616  0.1911  0.3499
 6255TIP3    H140180   2.948   4.659   2.378 -0.5523  0.3756 -0.7936
 6255TIP3    H240181   3.006   4.594   2.254  0.9325 -0.5492  0.3811
 6256TIP3   OH240182   2.258   3.277   4.234 -0.1049  0.5697 -0.3156
 6256TIP3    H140183   2.181   3.222   4.221  0.2840  0.3079 -1.6318
 6256TIP3    H240184   2.223   3.363   4.255 -0.7594  0.4137 -0.7426
 6257TIP3   OH240185   6.518   1.946   5.434  0.2297 -0.9152 -0.2104
 6257TIP3    H140186   6.595   1.910   5.391  0.2122 -1.5133  0.2680
 6257TIP3    H240187   6.483   1.875   5.487  0.5934 -0.0132  1.2786
 6258TIP3   OH240188   3.376   0.821   4.760  0.1625 -0.3491  0.2761
 6258TIP3    H140189   3.445   0.767   4.799  0.2672 -0.0620  0.4868
 6258TIP3    H240190   3.295   0.791   4.801  0.2134 -0.3935  0.3443
 6259TIP3   OH240191   1.231   6.081  12.282  0.2744  0.0687 -0.3424
 6259TIP3    H140192   1.197   6.018  12.218 -1.3371 -0.1452  0.7058
 6259TIP3    H240193   1.182   6.063  12.362  2.0054  0.5797  0.8684
 6260TIP3   OH240194   1.192   6.539   4.060  0.2184 -0.0926 -0.0228
 6260TIP3    H140195   1.154   6.550   3.973  0.3236 -0.2365 -0.0857
 6260TIP3    H240196   1.143   6.600   4.115 -1.7668 -2.0333  0.4142
 6261TIP3   OH240197   1.541   3.370  13.875 -0.2755 -0.3485  0.9224
 6261TIP3    H140198   1.557   3.444  13.816 -0.7235 -1.5392 -0.7462
 6261TIP3    H240199   1.530   3.409  13.961  0.9071  1.4032  0.3003
 6262TIP3   OH240200   1.506   0.471  12.151  0.0551  0.8043  1.0889
 6262TIP3    H140201   1.575   0.468  12.085  0.7651  2.5832  1.7100
 6262TIP3    H240202   1.431   0.510  12.106 -1.0451 -2.3674  0.0307
 6263TIP3   OH240203   3.696   2.514   4.119 -0.4125 -0.6114 -0.2320
 6263TIP3    H140204   3.747   2.486   4.195  0.3416 -0.3080 -0.6191
 6263TIP3    H240205   3.739   2.595   4.090 -0.1157 -1.2408 -1.5607
 6264TIP3   OH240206   3.218   6.724  13.032  0.4353  0.7284  0.0459
 6264TIP3    H140207   3.195   6.725  13.124  2.0091 -0.5517  0.4816
 6264TIP3    H240208   3.151   6.669  12.991  1.0594 -0.6515  0.8332
 6265TIP3   OH240209   5.469   6.481  13.505 -0.0897  0.8720 -0.0467
 6265TIP3    H140210   5.429   6.432  13.433 -3.1729  0.9547  1.5456
 6265TIP3    H240211   5.432   6.442  13.584  2.9031  1.0896  1.5258
 6266TIP3   OH240212   2.242   3.301  14.823 -0.1828 -0.2370  0.2356
 6266TIP3    H140213   2.241   3.304  14.918  0.6604  1.3117  0.2215
 6266TIP3    H240214   2.155   3.330  14.796 -0.2129 -0.0504  0.5375
 6267TIP3   OH240215   4.729   0.362  11.937  0.2496 -0.5927 -0.0349
 6267TIP3    H140216   4.682   0.436  11.976  0.1855 -1.1175  0.9146
 6267TIP3    H240217   4.774   0.399  11.861 -0.2630  0.2918  0.0840
 6268TIP3   OH240218   3.301   4.022  15.589  0.4096  0.0980  0.7841
 6268TIP3    H140219   3.216   3.981  15.605 -0.8474  2.2867  0.0026
 6268TIP3    H240220   3.344   3.965  15.525 -0.4803 -1.0289  1.1817
 6269TIP3   OH240221   5.640   2.671  14.217 -0.4134  0.4295  0.0768
 6269TIP3    H140222   5.673   2.689  14.305  1.4331  1.0793 -0.7116
 6269TIP3    H240223   5.654   2.576  14.205 -3.0373 -0.1511  1.4022
 6270TIP3   OH240224   3.794   2.583   3.584 -0.3556  0.0565 -0.3142
 6270TIP3    H140225   3.728   2.557   3.520 -0.0231  1.6634 -1.3517
 6270TIP3    H240226   3.775   2.531   3.661 -2.6873  0.3046 -0.6938
 6271TIP3   OH240227   4.031   4.895  15.117  0.3489  0.1875 -0.1001
 6271TIP3    H140228   4.035   4.963  15.050  1.5139  0.4592  0.2191
 6271TIP3    H240229   4.030   4.813  15.069  0.2421  0.4049 -0.4670
 6272TIP3   OH240230   0.783   5.438   3.296 -0.4289 -0.3945  0.2143
 6272TIP3    H140231   0.823   5.521   3.268  0.1764 -0.8854 -0.3669
 6272TIP3    H240232   0.732   5.462   3.373 -0.0744  0.4853  0.1860
 6273TIP3   OH240233   5.430   1.393   5.252 -0.3585  0.4004 -0.1019
 6273TIP3    H140234   5.388   1.310   5.231  0.7758  0.3577 -2.3191
 6273TIP3    H240235   5.380   1.458   5.203 -0.9238  0.9880  1.2218
 6274TIP3   OH240236   2.171   4.699  14.981  0.6244 -0.3241  0.2548
 6274TIP3    H140237   2.218   4.654  15.052 -1.0072  1.6395  2.6856
 6274TIP3    H240238   2.079   4.691  15.006  0.0666  0.9223 -1.3642
 6275TIP3   OH240239   1.001   3.597  12.382 -0.7002  0.1278 -0.1700
 6275TIP3    H140240   1.049   3.617  12.302  1.1720 -1.4161  0.5274
 6275TIP3    H240241   1.058   3.629  12.453 -0.4593 -2.0927  0.6850
 6276TIP3   OH240242   1.117   3.092  11.552  0.3696 -0.2258  0.7622
 6276TIP3    H140243   1.077   3.145  11.620 -0.8299 -0.2308  0.0668
 6276TIP3    H240244   1.158   3.156  11.493  0.0904 -0.1413  0.6592
 6277TIP3   OH240245   3.237   2.079  14.516 -0.0422 -0.0923  0.0001
 6277TIP3    H140246   3.171   2.149  14.519  0.3586  0.3538 -1.3558
 6277TIP3    H240247   3.297   2.099  14.588 -0.4500  0.4397  0.1957
 6278TIP3   OH240248   3.094   0.390  16.821 -0.5000 -0.2145  0.3549
 6278TIP3    H140249   3.109   0.296  16.833 -0.2710 -0.0408  1.4914
 6278TIP3    H240250   3.058   0.420  16.905  0.3177  0.8886  0.3318
 6279TIP3   OH240251   2.978   0.156  17.008 -0.1252  0.7275 -0.4548
 6279TIP3    H140252   3.050   0.094  17.021  0.1104  0.9564 -0.6318
 6279TIP3    H240253   2.927   0.152  17.088 -0.8618 -0.6686 -0.9822
 6280TIP3   OH240254   2.539   5.000  14.089  0.6173  0.2659  0.2863
 6280TIP3    H140255   2.532   4.970  14.179  0.6250  0.5296  0.3763
 6280TIP3    H240256   2.482   4.941  14.039 -1.8033  2.0237  0.9008
 6281TIP3   OH240257   2.495   1.784  15.346 -0.2659 -0.2501  0.1303
 6281TIP3    H140258   2.423   1.817  15.400 -1.1584 -1.9898  0.0364
 6281TIP3    H240259   2.453   1.727  15.282  1.1637 -1.0535 -0.1129
 6282TIP3   OH240260   3.695   2.430  14.943 -0.3118  0.6511 -0.0773
 6282TIP3    H140261   3.634   2.444  14.871  0.6323 -0.9447 -1.2106
 6282TIP3    H240262   3.658   2.481  15.016 -3.5304 -1.0389 -0.4309
 6283TIP3   OH240263   4.298   3.499   1.754 -0.5507  0.3627 -0.5850
 6283TIP3    H140264   4.316   3.573   1.694  1.6253  0.1174 -0.2804
 6283TIP3    H240265   4.371   3.501   1.816 -1.0742 -1.3692  0.1020
 6284TIP3   OH240266   1.254   6.255  13.899 -0.4991  0.7755 -0.5258
 6284TIP3    H140267   1.261   6.341  13.858  1.4801  0.3185 -1.1920
 6284TIP3    H240268   1.242   6.273  13.992 -1.6567  1.7823 -0.8698
 6285TIP3   OH240269   6.714   3.006   3.547  0.8007 -0.0736 -0.7077
 6285TIP3    H140270   6.680   2.994   3.635  2.3925  0.7197  0.0522
 6285TIP3    H240271   6.798   3.050   3.560  1.0817  0.0073 -2.6186
 6286TIP3   OH240272   4.751   1.134   3.577  0.2788 -0.0465  0.1439
 6286TIP3    H140273   4.700   1.150   3.657 -0.3569 -0.7851 -0.1136
 6286TIP3    H240274   4.735   1.212   3.523 -0.6779 -0.3225  0.0137
 6287TIP3   OH240275   3.464   2.347   4.099 -0.1271 -0.0120 -0.1324
 6287TIP3    H140276   3.389   2.397   4.067 -1.6247 -1.9081  0.3368
 6287TIP3    H240277   3.540   2.403   4.080 -1.6073  1.7837 -0.9214
 6288TIP3   OH240278   3.354   0.244   0.550  0.5803  0.8212 -0.0937
 6288TIP3    H140279   3.439   0.263   0.511 -0.6446  2.4130 -2.0822
 6288TIP3    H240280   3.324   0.329   0.584 -1.4331  0.8963 -1.9474
 6289TIP3   OH240281   6.778   1.781  14.393 -0.3714  0.3604 -0.1731
 6289TIP3    H140282   6.863   1.763  14.354  0.2332  1.2445  0.7137
 6289TIP3    H240283   6.753   1.866  14.358  0.3945  1.3832  1.6979
 6290TIP3   OH240284   3.484   0.533  13.864 -0.3492  0.0785  0.4077
 6290TIP3    H140285   3.474   0.462  13.927  2.0847  1.3601  2.3369
 6290TIP3    H240286   3.424   0.601  13.894  0.5720  0.5597  1.1993
 6291TIP3   OH240287   4.108   5.922  12.691 -0.5713 -0.4675  0.5095
 6291TIP3    H140288   4.026   5.910  12.740 -0.7319 -0.6353  0.2056
 6291TIP3    H240289   4.103   5.857  12.621 -1.0512  0.8090 -0.6561
 6292TIP3   OH240290   3.394   2.631   4.832 -0.2806  0.1267 -0.1575
 6292TIP3    H140291   3.477   2.584   4.820  1.1821  2.3201  0.9202
 6292TIP3    H240292   3.364   2.606   4.920 -0.0519  0.3707 -0.0079
 6293TIP3   OH240293   5.817   6.111   4.860  0.0065 -0.1862  0.1676
 6293TIP3    H140294   5.783   6.023   4.874 -2.3577  0.1655 -2.9534
 6293TIP3    H240295   5.906   6.097   4.828  0.2742 -1.3657  1.3679
 6294TIP3   OH240296   0.204   6.362   4.364 -0.2937  1.0817  0.1235
 6294TIP3    H140297   0.277   6.323   4.317 -0.8827  1.0890 -0.8029
 6294TIP3    H240298   0.222   6.455   4.365 -0.5050  1.1306 -0.4878
 6295TIP3   OH240299   6.136   5.843  16.578  0.2695 -0.9427  0.0919
 6295TIP3    H140300   6.130   5.939  16.582 -0.6990 -0.9940 -0.1359
 6295TIP3    H240301   6.163   5.818  16.666 -0.5965 -0.5354  0.4820
 6296TIP3   OH240302   3.222   1.617   1.519 -0.2279 -0.4614 -0.1912
 6296TIP3    H140303   3.218   1.649   1.429  2.7767 -0.4825 -0.3821
 6296TIP3    H240304   3.213   1.522   1.511 -1.3408 -0.3489 -0.3331
 6297TIP3   OH240305   2.769   1.648   4.921 -0.4814  0.6481  0.5978
 6297TIP3    H140306   2.806   1.594   4.991  0.7743 -1.3985 -1.5619
 6297TIP3    H240307   2.679   1.665   4.948  0.4748  1.3851  3.5222
 6298TIP3   OH240308   0.847   2.365   2.346 -0.8618  0.3251 -0.0041
 6298TIP3    H140309   0.797   2.346   2.267  0.1047  1.5206 -0.9184
 6298TIP3    H240310   0.795   2.431   2.392 -1.2736 -0.1478  0.2117
 6299TIP3   OH240311   1.959   1.769  10.751  0.6810  0.1901  0.2091
 6299TIP3    H140312   1.956   1.863  10.739 -0.1593  0.1058 -0.2625
 6299TIP3    H240313   1.985   1.734  10.666 -0.3634 -0.0861 -0.0022
 6300TIP3   OH240314   5.359   1.559  15.533 -0.1178 -0.2910 -0.0706
 6300TIP3    H140315   5.323   1.510  15.459  0.1585 -0.2337 -0.2471
 6300TIP3    H240316   5.315   1.644  15.529 -1.2157 -0.8132  0.7326
 6301TIP3   OH240317   3.791   1.792  15.220  0.3022 -0.0390 -0.1133
 6301TIP3    H140318   3.800   1.814  15.313 -0.9273 -1.5236  0.3910
 6301TIP3    H240319   3.857   1.844  15.176  1.1264  0.4383  1.6491
 6302TIP3   OH240320   3.438   1.655  12.059  0.0371 -0.6857  0.0502
 6302TIP3    H140321   3.449   1.563  12.084  0.5810 -0.1037  2.0652
 6302TIP3    H240322   3.507   1.670  11.995  2.2515 -0.7951  2.3133
 6303TIP3   OH240323   1.703   4.818   2.012 -0.2723 -0.2659  0.5406
 6303TIP3    H140324   1.757   4.874   1.956 -2.2731  2.0973  0.8945
 6303TIP3    H240325   1.625   4.800   1.961 -2.1603  1.9933  2.5090
 6304TIP3   OH240326   4.365   1.533   1.522  0.8909  0.6687 -0.2750
 6304TIP3    H140327   4.398   1.533   1.611  2.9173 -0.8036 -0.9800
 6304TIP3    H240328   4.270   1.532   1.531  1.0805  0.0259  1.8566
 6305TIP3   OH240329   5.520   4.040  15.940 -0.0767  0.3324  0.6621
 6305TIP3    H140330   5.457   3.971  15.964 -0.4646  0.2032 -0.6827
 6305TIP3    H240331   5.546   4.018  15.850  1.7723  0.4795  1.1379
 6306TIP3   OH240332   4.373   3.456   5.424 -0.1751  0.3915  0.3745
 6306TIP3    H140333   4.313   3.472   5.350 -2.2045  1.1382  2.1144
 6306TIP3    H240334   4.316   3.455   5.501  1.7568 -1.5533  1.8270
 6307TIP3   OH240335   3.412   3.130  15.042 -0.2369  0.0466 -0.1709
 6307TIP3    H140336   3.464   3.063  14.998  2.1665  2.3691 -1.0270
 6307TIP3    H240337   3.324   3.120  15.005  0.8178 -0.5886 -2.6093
 6308TIP3   OH240338   3.501   2.717   2.744 -0.6610  0.1334 -0.0510
 6308TIP3    H140339   3.585   2.686   2.710 -0.8170 -0.3304 -0.0153
 6308TIP3    H240340   3.440   2.646   2.725 -1.3700  1.0731 -1.4092
 6309TIP3   OH240341   4.923   4.973   3.042 -0.1699  0.4447  0.1690
 6309TIP3    H140342   4.998   4.999   3.095  0.2687  1.1731 -0.7999
 6309TIP3    H240343   4.895   5.053   2.998 -1.5660  0.2040  0.5743
 6310TIP3   OH240344   4.030   5.647   3.441 -0.5146 -1.3047  0.2541
 6310TIP3    H140345   4.106   5.631   3.385 -0.6841 -1.4386  0.0593
 6310TIP3    H240346   4.007   5.561   3.476 -0.7446 -1.3097  0.0921
 6311TIP3   OH240347   0.371   3.643   2.824 -0.2084 -0.2141  0.0202
 6311TIP3    H140348   0.456   3.620   2.787  0.8446  0.6363  1.8414
 6311TIP3    H240349   0.315   3.568   2.806  1.6109 -1.8138  0.9470
 6312TIP3   OH240350   5.908   1.302  16.857 -0.2768  0.0739  0.1701
 6312TIP3    H140351   5.989   1.352  16.845  0.7515 -1.4946  0.4434
 6312TIP3    H240352   5.851   1.360  16.907  0.7701  1.1029  0.1918
 6313TIP3   OH240353   6.337   2.109   6.167  0.3440 -0.1550  0.5235
 6313TIP3    H140354   6.371   2.028   6.205  0.7254 -0.2436  0.0100
 6313TIP3    H240355   6.380   2.114   6.082 -0.8530 -0.1891 -0.0778
 6314TIP3   OH240356   0.634   3.223  12.677 -0.1513 -0.2743  0.2232
 6314TIP3    H140357   0.606   3.227  12.586 -0.7307  1.6508  0.4663
 6314TIP3    H240358   0.655   3.131  12.691 -2.8112 -1.1462 -1.0427
 6315TIP3   OH240359   2.864   0.855   1.440 -0.2935 -0.4222 -0.6854
 6315TIP3    H140360   2.890   0.852   1.533  2.7749 -0.9711 -1.4898
 6315TIP3    H240361   2.807   0.779   1.429 -2.1275  0.6550  1.1345
 6316TIP3   OH240362   0.355   0.039   0.803 -0.0152 -0.5238  0.2367
 6316TIP3    H140363   0.356  -0.056   0.815  0.5025 -0.5007  0.3956
 6316TIP3    H240364   0.277   0.056   0.750 -0.0382 -1.0512  0.1009
 6317TIP3   OH240365   6.757   3.701  16.991  0.8961 -0.5394 -0.1555
 6317TIP3    H140366   6.783   3.791  17.012  3.7114 -1.4458  0.4246
 6317TIP3    H240367   6.662   3.700  17.005  0.6443  2.6003 -1.2390
 6318TIP3   OH240368   2.152   2.934   2.606  0.5685  0.3638 -0.0748
 6318TIP3    H140369   2.172   2.867   2.671  0.9820  0.9658  0.4189
 6318TIP3    H240370   2.141   2.886   2.524 -0.9089 -0.5196  0.6131
 6319TIP3   OH240371   3.297   6.604  14.716 -0.5754 -0.1346 -0.2940
 6319TIP3    H140372   3.217   6.573  14.759 -1.3359  0.8115 -0.9942
 6319TIP3    H240373   3.267   6.674  14.658  0.9316  0.9768  0.2502
 6320TIP3   OH240374   6.280   0.189   0.808  0.0826 -0.5933 -0.4212
 6320TIP3    H140375   6.306   0.280   0.798  0.5267 -0.5446  1.0754
 6320TIP3    H240376   6.185   0.191   0.801  0.2018 -0.2432 -2.0248
 6321TIP3   OH240377   4.525   6.165   1.744  0.0948  0.2248 -0.5914
 6321TIP3    H140378   4.440   6.206   1.760  0.0389  0.7532 -2.1371
 6321TIP3    H240379   4.556   6.139   1.830 -0.7994  1.7217  0.2042
 6322TIP3   OH240380   4.918   3.879   5.465  0.5631 -0.3078  0.2814
 6322TIP3    H140381   4.839   3.898   5.413 -1.1261 -3.7367  1.4631
 6322TIP3    H240382   4.990   3.890   5.403 -1.0650 -0.0082 -1.6126
 6323TIP3   OH240383   6.434   5.058  14.178  0.2926  0.6464  0.2532
 6323TIP3    H140384   6.522   5.090  14.154  1.3379 -2.1492  0.2430
 6323TIP3    H240385   6.407   5.004  14.104  0.4911 -2.1579  2.1496
 6324TIP3   OH240386   1.586   1.293  14.176 -0.2055  0.0665 -0.0252
 6324TIP3    H140387   1.570   1.250  14.093  1.5077  1.3716 -1.0803
 6324TIP3    H240388   1.680   1.282  14.191 -0.4099  0.2632  1.4913
 6325TIP3   OH240389   2.733   5.354   0.143 -0.5539  0.7671  0.4846
 6325TIP3    H140390   2.673   5.388   0.077 -0.5352  0.4233  0.2927
 6325TIP3    H240391   2.708   5.262   0.154 -0.5191  0.8054  0.9104
 6326TIP3   OH240392   1.335   3.123  15.835  0.0030 -0.4028 -0.4458
 6326TIP3    H140393   1.368   3.036  15.813  0.3929 -0.4582  0.3362
 6326TIP3    H240394   1.271   3.142  15.766  0.1861 -1.1485 -0.8330
 6327TIP3   OH240395   1.194   3.002   5.985  0.1305 -0.0715 -0.6067
 6327TIP3    H140396   1.192   3.064   6.058  2.0597 -0.3655 -0.2800
 6327TIP3    H240397   1.180   3.055   5.907  0.3137  0.5753 -0.2006
 6328TIP3   OH240398   0.076   5.873  11.170 -0.3532 -0.2523  0.5163
 6328TIP3    H140399   0.134   5.861  11.245 -1.6698 -0.0021  1.6010
 6328TIP3    H240400   0.094   5.798  11.113  1.7549  0.3856  0.3371
 6329TIP3   OH240401   4.813   0.567  13.429 -0.7933 -0.7546  0.2115
 6329TIP3    H140402   4.760   0.612  13.495 -0.1802 -1.1781  1.0177
 6329TIP3    H240403   4.796   0.474  13.445  0.0259 -0.8846  0.3452
 6330TIP3   OH240404   0.533   0.904   2.135  0.6587  0.4568  0.2217
 6330TIP3    H140405   0.467   0.915   2.065 -1.4219 -1.1062  1.8867
 6330TIP3    H240406   0.491   0.940   2.213  1.2627 -1.7316  1.5910
 6331TIP3   OH240407   2.699   0.160   2.340  0.0846  0.5904  0.0078
 6331TIP3    H140408   2.713   0.131   2.430 -1.5696 -0.7687 -0.1355
 6331TIP3    H240409   2.767   0.226   2.324  1.5884 -0.5367  1.6071
 6332TIP3   OH240410   0.975   3.706  13.196  0.1397 -0.4837  0.1436
 6332TIP3    H140411   1.037   3.772  13.163  0.4536 -0.0802  1.4889
 6332TIP3    H240412   1.017   3.622  13.178  0.5305 -0.2483 -0.0483
 6333TIP3   OH240413   6.502   0.080   0.272  0.1995 -0.2065  0.0285
 6333TIP3    H140414   6.545   0.036   0.346 -0.7354 -0.4618  0.4385
 6333TIP3    H240415   6.563   0.148   0.245  0.4001  0.1139  1.2681
 6334TIP3   OH240416   0.679   0.842   2.559 -0.0770  0.0810  0.1085
 6334TIP3    H140417   0.767   0.829   2.524 -0.4022 -1.4755 -0.1686
 6334TIP3    H240418   0.639   0.907   2.501  0.8896  0.7994  0.2450
 6335TIP3   OH240419   4.668   5.994  13.179  0.7453 -0.3431 -1.0174
 6335TIP3    H140420   4.668   6.089  13.185  1.1101 -0.3345 -1.1369
 6335TIP3    H240421   4.757   5.971  13.153  0.9825 -0.7996  0.1519
 6336TIP3   OH240422   6.054   4.462   1.630  0.2451 -0.6477 -0.4746
 6336TIP3    H140423   6.052   4.367   1.623 -0.8789 -0.5829 -1.0834
 6336TIP3    H240424   6.140   4.487   1.595  0.8318 -1.4829  0.3559
 6337TIP3   OH240425   4.682   0.350  15.055  0.2758 -0.4051  0.5444
 6337TIP3    H140426   4.599   0.379  15.093  0.0517 -0.6924  0.2800
 6337TIP3    H240427   4.666   0.349  14.961  0.2123 -1.5646  0.5594
 6338TIP3   OH240428   3.429   2.151   2.620 -0.2626 -0.3217 -0.0429
 6338TIP3    H140429   3.349   2.186   2.582 -1.1465 -1.7304  0.5094
 6338TIP3    H240430   3.402   2.108   2.701  0.5142 -3.6256 -1.4151
 6339TIP3   OH240431   3.917   5.979   3.778 -0.0318 -0.1723  0.1574
 6339TIP3    H140432   3.985   6.022   3.832 -0.5329  0.4528  0.3008
 6339TIP3    H240433   3.896   5.899   3.826  0.2027 -0.0849  0.4106
 6340TIP3   OH240434   1.616   1.161   1.492 -0.4926 -0.0080 -0.4878
 6340TIP3    H140435   1.691   1.195   1.443  1.0185 -1.1903  0.9383
 6340TIP3    H240436   1.553   1.135   1.425  1.2892 -1.0472 -1.7992
 6341TIP3   OH240437   5.390   5.645   1.913  0.1338  0.3422  0.3039
 6341TIP3    H140438   5.392   5.562   1.865  0.5601 -0.9280  2.4529
 6341TIP3    H240439   5.445   5.703   1.862  0.5064 -0.9538 -0.8034
 6342TIP3   OH240440   3.767   6.267   3.288  0.4327  0.1775 -0.1619
 6342TIP3    H140441   3.824   6.295   3.360 -0.1331  1.7510 -0.3118
 6342TIP3    H240442   3.742   6.348   3.245 -3.1994 -0.3349  0.8412
 6343TIP3   OH240443   2.550   3.924  11.694 -0.3489  0.9546 -0.2416
 6343TIP3    H140444   2.513   4.013  11.693 -0.1632  1.0332  0.0740
 6343TIP3    H240445   2.639   3.935  11.726 -0.4468  0.6043  0.1478
 6344TIP3   OH240446   3.701   6.600   4.848  0.1326 -0.6398 -0.4561
 6344TIP3    H140447   3.741   6.530   4.900 -0.4083 -1.2940 -0.9043
 6344TIP3    H240448   3.752   6.678   4.869  1.5218 -1.4142 -0.8614
 6345TIP3   OH240449   0.957   6.424   5.227  0.0318  0.2223 -0.7542
 6345TIP3    H140450   0.888   6.488   5.244 -0.7218 -1.3208  2.3153
 6345TIP3    H240451   1.000   6.412   5.311  2.2137 -1.0102 -1.9867
 6346TIP3   OH240452   6.483   3.399  12.847  0.2692 -0.3085  0.1938
 6346TIP3    H140453   6.402   3.449  12.844 -0.0055 -0.8031 -0.8918
 6346TIP3    H240454   6.551   3.462  12.823  0.1627  0.0107  0.7266
 6347TIP3   OH240455   1.573   4.861   0.318 -0.4448 -0.2218  0.0584
 6347TIP3    H140456   1.578   4.766   0.311 -0.7569 -0.2686  0.4623
 6347TIP3    H240457   1.515   4.877   0.393 -0.1227  0.2850  0.2018
 6348TIP3   OH240458   1.372   6.728  13.203  0.5889 -0.0764  0.9272
 6348TIP3    H140459   1.385   6.697  13.293  0.3958 -0.9296  0.6659
 6348TIP3    H240460   1.278   6.717  13.188  0.6198  0.0782  0.6259
 6349TIP3   OH240461   1.111   4.357  16.678 -0.5196  0.1252 -0.3857
 6349TIP3    H140462   1.181   4.368  16.614 -0.0079  0.4698  0.2255
 6349TIP3    H240463   1.105   4.262  16.692  0.2076  0.1287 -0.0297
 6350TIP3   OH240464   0.718   5.599  12.458  0.1448 -0.1513 -0.2061
 6350TIP3    H140465   0.794   5.582  12.403 -0.7416 -0.5228 -1.3460
 6350TIP3    H240466   0.703   5.693  12.450 -0.1170 -0.2421 -0.7811
 6351TIP3   OH240467   4.721   4.998  16.509 -0.4057  0.1111  0.1364
 6351TIP3    H140468   4.781   4.991  16.435  0.6594 -0.8383  1.0562
 6351TIP3    H240469   4.724   4.912  16.550 -0.3018  0.8895  1.7939
 6352TIP3   OH240470   5.588   3.679  11.437  0.1881  0.5638 -0.2449
 6352TIP3    H140471   5.533   3.741  11.390 -0.1646  1.0361  0.7759
 6352TIP3    H240472   5.615   3.726  11.516  1.0747 -0.0880 -0.1481
 6353TIP3   OH240473   2.218   1.278   2.281  0.0939  0.0274  0.6173
 6353TIP3    H140474   2.243   1.186   2.286  0.6938  0.0571 -1.5118
 6353TIP3    H240475   2.181   1.297   2.367 -0.2671 -2.2641  1.0020
 6354TIP3   OH240476   1.695   1.963  13.760 -0.3353  0.0877  1.4312
 6354TIP3    H140477   1.643   2.043  13.747  0.6095  0.7038  1.3934
 6354TIP3    H240478   1.733   1.973  13.847 -0.6939 -0.6057  1.6733
 6355TIP3   OH240479   5.522   1.517  14.382 -0.7415  0.7343  0.2175
 6355TIP3    H140480   5.583   1.581  14.344  1.7723  0.3399  3.3625
 6355TIP3    H240481   5.578   1.442  14.404 -2.5748 -0.0635  2.2516
 6356TIP3   OH240482   4.957   6.317  13.216  0.1513  0.7435  0.5998
 6356TIP3    H140483   5.048   6.290  13.223 -0.3251 -0.4944  2.8294
 6356TIP3    H240484   4.950   6.394  13.272  0.0144  1.3501 -0.2507
 6357TIP3   OH240485   5.035   5.963  11.239  0.3136  0.0790  0.9311
 6357TIP3    H140486   5.077   5.997  11.161 -0.3308  1.8648  1.3294
 6357TIP3    H240487   5.097   5.899  11.275  1.3002  0.4179 -0.1570
 6358TIP3   OH240488   4.294   4.422   2.802 -0.2886 -0.2963 -0.6316
 6358TIP3    H140489   4.319   4.384   2.886 -0.7621 -0.1149 -0.4099
 6358TIP3    H240490   4.378   4.439   2.758 -0.0522 -0.7924 -0.3781
 6359TIP3   OH240491   5.986   4.850   5.630  0.0036 -0.4733 -0.4943
 6359TIP3    H140492   5.908   4.826   5.681 -0.3850 -0.1018 -0.9108
 6359TIP3    H240493   6.053   4.788   5.659  0.1166  0.4654  1.3195
 6360TIP3   OH240494   6.768   4.446  13.967 -0.0365 -0.8071  0.1186
 6360TIP3    H140495   6.783   4.414  14.056 -1.6103  2.1758  1.5361
 6360TIP3    H240496   6.676   4.428  13.950 -0.0983 -0.0708 -0.3415
 6361TIP3   OH240497   3.400   1.455  15.086 -0.6941 -0.3570 -1.0648
 6361TIP3    H140498   3.379   1.487  15.173 -0.5049  1.6901 -1.7350
 6361TIP3    H240499   3.475   1.397  15.098 -0.7359 -0.1665  0.1356
 6362TIP3   OH240500   1.501   0.445   0.951  0.1519  0.0127  0.1779
 6362TIP3    H140501   1.554   0.514   0.910 -0.2583 -0.8448 -1.8107
 6362TIP3    H240502   1.413   0.457   0.915 -0.8110  0.6963  2.5885
 6363TIP3   OH240503   6.376   6.586   2.766 -0.0058  0.3290  0.3970
 6363TIP3    H140504   6.416   6.538   2.839 -0.3774  0.7387  0.8760
 6363TIP3    H240505   6.364   6.521   2.698 -0.3631 -0.2302  0.9892
 6364TIP3   OH240506   4.288   4.907   5.866 -0.5274 -0.1045 -0.1271
 6364TIP3    H140507   4.354   4.846   5.834 -0.4797 -0.2047  0.1652
 6364TIP3    H240508   4.256   4.869   5.947 -0.2175  0.4539  0.2581
 6365TIP3   OH240509   3.535   2.377   0.748  0.0925 -0.2152  0.0781
 6365TIP3    H140510   3.572   2.388   0.836 -1.4204  0.7286  0.6072
 6365TIP3    H240511   3.448   2.416   0.753 -0.3749 -0.9845 -1.5936
 6366TIP3   OH240512   4.971   6.733   6.513  0.4077 -0.2434  0.0900
 6366TIP3    H140513   5.032   6.662   6.492 -0.3651 -0.8754 -0.0322
 6366TIP3    H240514   4.993   6.802   6.450  0.6219 -0.6900 -0.3351
 6367TIP3   OH240515   5.601   5.478  12.980 -0.9725 -0.3661  0.5792
 6367TIP3    H140516   5.570   5.539  13.047  0.1808  3.0851 -1.9054
 6367TIP3    H240517   5.548   5.497  12.903  1.1821 -0.6652 -1.0316
 6368TIP3   OH240518   4.157   1.127  13.975 -0.8148 -0.0671  0.6134
 6368TIP3    H140519   4.251   1.137  13.986 -0.8092 -0.4349  0.8988
 6368TIP3    H240520   4.147   1.096  13.884 -0.7140  0.6956  0.3402
 6369TIP3   OH240521   6.642   0.491  13.868  0.1919  0.4546 -0.3650
 6369TIP3    H140522   6.694   0.540  13.932 -0.0990 -0.7124  0.7941
 6369TIP3    H240523   6.602   0.558  13.813  1.7074  1.4217 -0.3277
 6370TIP3   OH240524   0.529   0.072   0.176 -0.4203 -0.1513  0.1849
 6370TIP3    H140525   0.595   0.122   0.128  0.2717  0.0753  1.3523
 6370TIP3    H240526   0.515  -0.007   0.123  0.2967  0.1111 -0.4012
 6371TIP3   OH240527   5.422   3.322   4.008 -0.3142  0.1260  0.3467
 6371TIP3    H140528   5.383   3.389   4.064 -0.2734 -0.1815  0.7479
 6371TIP3    H240529   5.369   3.244   4.023 -0.2140  0.0033  0.0634
 6372TIP3   OH240530   1.996   6.633  13.406  0.0097  0.1434  0.4233
 6372TIP3    H140531   2.009   6.538  13.399 -0.2543  0.1442 -0.0970
 6372TIP3    H240532   2.084   6.669  13.400  0.0418 -0.0256 -0.1141
 6373TIP3   OH240533   1.748   3.446  16.981 -0.0149 -0.2012 -0.2726
 6373TIP3    H140534   1.684   3.374  16.979 -2.1765  1.6807 -0.5780
 6373TIP3    H240535   1.758   3.471  16.889  2.8558 -1.8761 -0.4794
 6374TIP3   OH240536   5.699   3.502   3.409 -0.2439 -0.0533  0.4126
 6374TIP3    H140537   5.792   3.484   3.426  0.1402  1.3040 -0.2029
 6374TIP3    H240538   5.699   3.573   3.346 -1.7229  0.2876  0.7665
 6375TIP3   OH240539   4.388   6.760   5.371 -0.9657 -0.1905  0.2134
 6375TIP3    H140540   4.413   6.713   5.451 -2.2791 -0.4629  0.4699
 6375TIP3    H240541   4.462   6.746   5.312 -0.3047 -0.6104  1.1175
 6376TIP3   OH240542   0.876   4.702   5.555  0.0108 -0.4336  0.3203
 6376TIP3    H140543   0.858   4.787   5.515 -2.0226 -1.2116 -0.4626
 6376TIP3    H240544   0.971   4.702   5.568  0.0400  1.9554  0.3648
 6377TIP3   OH240545   5.801   5.530   2.102  0.5523  0.6651 -0.5319
 6377TIP3    H140546   5.753   5.578   2.169 -0.5304 -0.4107 -0.5209
 6377TIP3    H240547   5.827   5.596   2.039  0.5012  1.5035  0.3212
 6378TIP3   OH240548   2.932   2.222  15.356  1.0613  0.0461 -0.2623
 6378TIP3    H140549   2.948   2.315  15.338 -0.0781  0.1856 -0.5827
 6378TIP3    H240550   2.943   2.179  15.271 -0.1009  0.1248 -0.4572
 6379TIP3   OH240551   1.396   6.595   1.828  0.2515  0.1341 -0.2233
 6379TIP3    H140552   1.324   6.538   1.856 -0.0492  0.3388 -0.5705
 6379TIP3    H240553   1.411   6.654   1.902  0.0148  0.1358 -0.1767
 6380TIP3   OH240554   5.555   0.594  16.950 -0.2266  0.7048  0.0012
 6380TIP3    H140555   5.611   0.671  16.940  0.6739  0.0483  0.0032
 6380TIP3    H240556   5.577   0.559  17.036 -0.9681  0.7047  0.1945
 6381TIP3   OH240557   4.554   5.533   1.744 -0.1187 -0.2489 -0.3345
 6381TIP3    H140558   4.555   5.508   1.652 -0.7238 -1.2211 -0.0885
 6381TIP3    H240559   4.461   5.543   1.765  0.0543  1.0012 -0.0958
 6382TIP3   OH240560   2.655   5.068   3.279  0.0603 -0.7399 -0.0300
 6382TIP3    H140561   2.586   5.096   3.220  1.1884 -0.0139 -1.0415
 6382TIP3    H240562   2.612   5.058   3.364 -1.5734 -1.7517 -0.9566
 6383TIP3   OH240563   3.704   0.895   1.099  0.1147 -0.0598 -0.0634
 6383TIP3    H140564   3.677   0.939   1.180  3.7253  0.4994  0.9203
 6383TIP3    H240565   3.661   0.945   1.029 -1.6331  0.5198  1.3910
 6384TIP3   OH240566   4.945   0.924  11.680  0.6310  0.3184  0.3736
 6384TIP3    H140567   4.856   0.891  11.666  0.9727 -0.6430  0.3923
 6384TIP3    H240568   4.998   0.845  11.688  1.3016  0.8719  1.5855
 6385TIP3   OH240569   5.163   3.985   5.722  0.4472 -0.5280  0.0406
 6385TIP3    H140570   5.223   3.910   5.721  0.9001 -0.1677 -0.8808
 6385TIP3    H240571   5.158   4.012   5.630  0.3807  0.6350  0.3769
 6386TIP3   OH240572   0.342   6.359   4.890  0.2783 -0.3597 -0.0399
 6386TIP3    H140573   0.333   6.442   4.843  1.6600  1.3465  2.5843
 6386TIP3    H240574   0.367   6.296   4.823  0.4329  1.5978 -1.8756
 6387TIP3   OH240575   1.020   2.275   5.804 -0.0881  0.0904 -0.0353
 6387TIP3    H140576   1.072   2.223   5.743  1.3499  0.8045  0.5737
 6387TIP3    H240577   0.992   2.351   5.753 -0.2233 -0.0985 -0.2468
 6388TIP3   OH240578   3.486   0.326  15.250 -0.2188 -0.2704  0.0542
 6388TIP3    H140579   3.540   0.319  15.329 -0.8312  1.3257  0.6186
 6388TIP3    H240580   3.526   0.397  15.199 -2.6144  1.9477  1.1660
 6389TIP3   OH240581   4.012   2.477  11.273  0.7443 -0.2487  0.2617
 6389TIP3    H140582   4.097   2.491  11.229  0.5264 -0.4388 -0.2227
 6389TIP3    H240583   3.999   2.383  11.269  0.3559 -0.1846  0.0516
 6390TIP3   OH240584   5.160   1.019   6.127 -0.2346 -0.1448 -0.0731
 6390TIP3    H140585   5.202   1.075   6.062  0.9904 -1.4779 -0.4738
 6390TIP3    H240586   5.225   0.950   6.144 -1.7729 -1.5362  0.2597
 6391TIP3   OH240587   1.074   0.792   2.790 -0.2492 -0.3273  0.0753
 6391TIP3    H140588   1.027   0.860   2.838 -1.4976  1.0590 -3.0245
 6391TIP3    H240589   1.162   0.829   2.778 -0.5633  0.2412 -0.5320
 6392TIP3   OH240590   3.997   1.698   1.362  0.5682 -0.7600 -0.2808
 6392TIP3    H140591   3.978   1.757   1.288  0.5176 -0.1792  0.1908
 6392TIP3    H240592   4.049   1.751   1.422 -1.9017 -0.2459  1.5039
 6393TIP3   OH240593   3.727   1.939  16.685 -0.0429 -0.0036 -0.5871
 6393TIP3    H140594   3.688   1.851  16.687 -0.1433  0.0256 -1.2809
 6393TIP3    H240595   3.706   1.976  16.771  0.5851 -0.9083 -0.0255
 6394TIP3   OH240596   6.357   4.255  12.371  0.1157 -0.0749  0.2579
 6394TIP3    H140597   6.379   4.162  12.370  1.1970  0.1682 -2.3493
 6394TIP3    H240598   6.415   4.292  12.437 -0.0659 -1.1939  1.0522
 6395TIP3   OH240599   1.788   4.976  13.002 -0.2872  0.4103  0.0383
 6395TIP3    H140600   1.808   4.959  12.910 -1.8279 -1.7500  0.0826
 6395TIP3    H240601   1.872   5.001  13.040  0.5764  0.2511 -1.7078
 6396TIP3   OH240602   5.066   4.426   6.411  0.2822  0.6626 -0.3532
 6396TIP3    H140603   5.134   4.473   6.362  0.1977  0.1873 -0.9367
 6396TIP3    H240604   5.108   4.403   6.494  0.6741  0.8092 -0.5087
 6397TIP3   OH240605   4.393   4.440  16.454  0.4801  0.0961 -0.0134
 6397TIP3    H140606   4.348   4.453  16.371 -0.1827  0.9551  0.4672
 6397TIP3    H240607   4.426   4.527  16.478  1.1053 -0.2431  0.3703
 6398TIP3   OH240608   2.251   5.996  15.501 -0.1061  0.4646 -0.2932
 6398TIP3    H140609   2.293   5.973  15.419 -0.2169  0.4036 -0.3337
 6398TIP3    H240610   2.161   5.965  15.491  0.3230 -1.1299  0.5219
 6399TIP3   OH240611   4.633   5.479   4.935 -0.6007  0.1799 -0.0123
 6399TIP3    H140612   4.647   5.456   5.026 -1.0235 -0.5362 -0.1259
 6399TIP3    H240613   4.635   5.396   4.888 -0.6637  0.5129 -0.6194
 6400TIP3   OH240614   4.384   1.261  12.394  0.0242 -0.2826 -0.8309
 6400TIP3    H140615   4.415   1.344  12.357  0.1498 -0.1940 -0.5241
 6400TIP3    H240616   4.295   1.280  12.425 -0.5855 -0.6971 -2.2741
 6401TIP3   OH240617   3.542   1.450  10.443 -0.3868  0.3042  0.2169
 6401TIP3    H140618   3.455   1.410  10.436 -0.5429  0.3457  1.7050
 6401TIP3    H240619   3.594   1.386  10.492 -0.0659  1.0191  0.8268
 6402TIP3   OH240620   5.867   3.696   0.010  0.0948 -0.1239 -0.0793
 6402TIP3    H140621   5.916   3.708   0.092 -1.4932  1.1398  0.7237
 6402TIP3    H240622   5.840   3.604   0.012 -1.5116  0.3530  1.7623
 6403TIP3   OH240623   5.813   6.744   4.633  0.0038  0.7467 -0.1917
 6403TIP3    H140624   5.859   6.748   4.717 -0.0356  0.0213 -0.1280
 6403TIP3    H240625   5.864   6.799   4.574  0.3655  0.7786  0.1549
 6404TIP3   OH240626   5.375   1.203  15.599 -0.1229 -1.0191  0.2759
 6404TIP3    H140627   5.433   1.127  15.605  0.4779 -0.7953 -2.1042
 6404TIP3    H240628   5.287   1.166  15.604  0.1882 -1.6621  1.1207
 6405TIP3   OH240629   4.362   2.634   3.857 -0.3157 -0.1410 -0.5322
 6405TIP3    H140630   4.360   2.543   3.828 -0.4404 -1.0742  2.3251
 6405TIP3    H240631   4.423   2.635   3.931 -1.1992  1.8804  0.2074
 6406TIP3   OH240632   0.816   2.590   3.553 -0.4541 -0.0557 -0.1992
 6406TIP3    H140633   0.883   2.524   3.571  0.2088  0.3990 -1.0111
 6406TIP3    H240634   0.742   2.541   3.520 -0.6730 -0.6048  1.0610
 6407TIP3   OH240635   2.297   6.386  11.503  0.2240  0.1023  0.0301
 6407TIP3    H140636   2.267   6.334  11.577  1.8378  1.6294  1.7963
 6407TIP3    H240637   2.390   6.402  11.520  0.1770  2.0727 -1.3434
 6408TIP3   OH240638   1.356   4.361   3.556  1.0131 -0.4965  0.5367
 6408TIP3    H140639   1.282   4.420   3.542  0.6195 -1.3808 -1.2626
 6408TIP3    H240640   1.318   4.273   3.555  2.1163 -0.9945 -0.9453
 6409TIP3   OH240641   3.798   2.228   1.067  0.0365 -0.1200 -0.5583
 6409TIP3    H140642   3.887   2.250   1.094 -0.1814  0.4678 -0.3207
 6409TIP3    H240643   3.757   2.312   1.048 -1.0648 -0.2531  1.1378
 6410TIP3   OH240644   2.204   2.736  15.702 -0.2388  0.0423  0.1561
 6410TIP3    H140645   2.288   2.761  15.740 -0.3244 -0.6998  0.8573
 6410TIP3    H240646   2.139   2.785  15.752 -0.2839 -0.0576  0.1942
 6411TIP3   OH240647   6.264   3.301  15.522  0.6991  0.0471  0.0776
 6411TIP3    H140648   6.305   3.218  15.543  0.0611 -0.7712 -1.7593
 6411TIP3    H240649   6.326   3.345  15.464  0.3261  0.1208 -0.2728
 6412TIP3   OH240650   0.580   5.635  11.642 -0.9033 -0.8158  0.0428
 6412TIP3    H140651   0.550   5.545  11.650 -2.3108 -0.3819 -0.2789
 6412TIP3    H240652   0.524   5.685  11.701  0.7265 -0.3307  1.2125
 6413TIP3   OH240653   6.709   5.600   4.054  0.3444  0.3240 -0.5809
 6413TIP3    H140654   6.656   5.667   4.098 -0.6575  0.3383 -1.7886
 6413TIP3    H240655   6.770   5.650   4.000  0.6591  0.2794 -0.2722
 6414TIP3   OH240656   0.951   1.347   0.805 -0.6319 -0.4606  0.6336
 6414TIP3    H140657   0.880   1.338   0.741  0.0974  0.7754 -0.3860
 6414TIP3    H240658   0.956   1.441   0.821  1.0770 -0.4879  0.3360
 6415TIP3   OH240659   4.596   2.346   5.704 -0.3663  0.3686 -0.0362
 6415TIP3    H140660   4.525   2.396   5.744 -1.0936 -1.6529  1.2544
 6415TIP3    H240661   4.597   2.374   5.613 -1.4313  1.9645  0.4274
 6416TIP3   OH240662   4.853   1.164  15.667 -0.1476  0.0825 -0.0349
 6416TIP3    H140663   4.786   1.120  15.719 -0.5468 -0.8656 -1.3123
 6416TIP3    H240664   4.836   1.136  15.577  0.2737  2.0151 -0.7448
 6417TIP3   OH240665   2.613   5.659   2.207 -0.1393  0.4487 -0.0612
 6417TIP3    H140666   2.691   5.623   2.165  0.2638 -0.8073  1.6649
 6417TIP3    H240667   2.564   5.700   2.136  2.2742  1.6319 -1.1184
 6418TIP3   OH240668   2.326   6.527  15.001 -0.0019 -0.5255  0.3808
 6418TIP3    H140669   2.322   6.438  15.037 -1.8646 -0.1123  1.2603
 6418TIP3    H240670   2.394   6.570  15.052 -1.0266 -0.6371  1.8822
 6419TIP3   OH240671   2.069   3.104  13.428  0.3848 -0.1219  0.0901
 6419TIP3    H140672   2.074   3.159  13.506  1.7937  0.3723 -0.3393
 6419TIP3    H240673   1.979   3.115  13.396 -0.7293 -1.6277  2.5613
 6420TIP3   OH240674   5.391   4.121  13.149 -0.6637 -0.9121 -0.0411
 6420TIP3    H140675   5.336   4.094  13.076 -0.8129  1.4018 -0.8228
 6420TIP3    H240676   5.331   4.165  13.209 -0.1223 -0.7091  0.3571
 6421TIP3   OH240677   0.242   5.133  11.635 -0.0673 -0.4001 -0.6701
 6421TIP3    H140678   0.228   5.220  11.597 -1.6242  0.6454  2.1339
 6421TIP3    H240679   0.153   5.100  11.650  0.5265 -1.5894  0.2165
 6422TIP3   OH240680   3.200   2.458   5.555  0.1938 -0.6151  0.3126
 6422TIP3    H140681   3.130   2.499   5.503  0.2673 -1.2734 -0.3189
 6422TIP3    H240682   3.216   2.519   5.626 -2.8540 -1.6238  1.9864
 6423TIP3   OH240683   0.226   4.871   4.752  0.8308  0.0713  0.2958
 6423TIP3    H140684   0.186   4.857   4.666 -2.7625  1.4521  1.6643
 6423TIP3    H240685   0.250   4.964   4.753  0.1658  0.2456  1.0295
 6424TIP3   OH240686   2.520   5.716  12.611  0.3664 -0.1002  0.3554
 6424TIP3    H140687   2.553   5.639  12.565  1.7996 -0.3552  1.7987
 6424TIP3    H240688   2.426   5.718  12.589  0.8030 -0.8232 -1.6848
 6425TIP3   OH240689   4.001   0.435   5.947 -0.0626  0.0737 -0.7569
 6425TIP3    H140690   4.038   0.376   6.013 -1.3180 -1.3488 -1.2910
 6425TIP3    H240691   4.037   0.521   5.968  0.3212 -0.5429  1.1724
 6426TIP3   OH240692   4.049   6.330   0.836 -0.8848  0.0972  0.0437
 6426TIP3    H140693   4.079   6.249   0.879 -1.7715 -0.5240 -0.4945
 6426TIP3    H240694   4.040   6.306   0.744 -1.4818  0.7249 -0.0611
 6427TIP3   OH240695   1.057   1.613  14.902  0.1944 -0.2541 -0.0597
 6427TIP3    H140696   1.086   1.573  14.983  1.6844  0.4651 -0.2176
 6427TIP3    H240697   1.106   1.568  14.834  1.7456  1.6659 -0.2524
 6428TIP3   OH240698   0.968   5.542  16.936  1.0769 -0.2182 -0.3351
 6428TIP3    H140699   0.892   5.599  16.948 -0.1112 -1.6640 -0.9275
 6428TIP3    H240700   1.024   5.560  17.012  0.3762  1.1855 -0.1355
 6429TIP3   OH240701   0.194   4.312  11.012  0.1014  0.3463 -0.0069
 6429TIP3    H140702   0.138   4.371  11.063  1.6235  1.0397  0.8956
 6429TIP3    H240703   0.239   4.369  10.950 -0.9492 -0.3592 -1.4528
 6430TIP3   OH240704   1.747   3.422  11.708 -0.1409  0.4549  0.3121
 6430TIP3    H140705   1.836   3.438  11.738 -0.2169  1.0718  0.2064
 6430TIP3    H240706   1.707   3.508  11.704 -1.1694  0.0713  1.6852
 6431TIP3   OH240707   2.420   5.014  13.528 -0.1393  0.2267 -0.3094
 6431TIP3    H140708   2.327   4.999  13.510  0.0728 -0.6926 -0.6711
 6431TIP3    H240709   2.461   4.928  13.518  0.4003  0.1488  2.1706
 6432TIP3   OH240710   4.693   5.315   5.197 -0.7420 -0.0489 -0.1182
 6432TIP3    H140711   4.762   5.375   5.226  0.4694 -1.6078  0.2926
 6432TIP3    H240712   4.723   5.285   5.111 -1.2494 -0.2204 -0.2349
 6433TIP3   OH240713   6.121   4.521  11.858  0.5380 -0.3679 -1.0773
 6433TIP3    H140714   6.184   4.457  11.824 -0.3224 -0.9699 -1.5694
 6433TIP3    H240715   6.117   4.589  11.790 -0.8649 -1.3590 -2.0183
 6434TIP3   OH240716   6.050   2.847   3.948 -0.2238  0.1858 -0.5840
 6434TIP3    H140717   6.057   2.917   3.883  1.2602  0.1271 -0.4995
 6434TIP3    H240718   6.027   2.891   4.029  0.1838  0.5274 -0.6498
 6435TIP3   OH240719   6.015   1.936  12.213  0.4075  0.0717  0.5437
 6435TIP3    H140720   5.985   1.911  12.300  0.7243  0.5920  0.7995
 6435TIP3    H240721   6.097   1.888  12.201  0.9368  0.8677  0.9750
 6436TIP3   OH240722   5.545   5.322   4.753 -0.6027  0.2267 -0.1522
 6436TIP3    H140723   5.630   5.311   4.796  0.3410 -1.6881 -2.3592
 6436TIP3    H240724   5.562   5.388   4.685 -0.4532 -1.1905 -1.5320
 6437TIP3   OH240725   5.046   5.639   5.877 -0.6338  0.3845 -0.1144
 6437TIP3    H140726   5.086   5.722   5.903 -1.4061  1.3956 -2.0705
 6437TIP3    H240727   5.086   5.619   5.792 -1.6115 -0.4294 -0.3875
 6438TIP3   OH240728   2.111   5.307   0.709  0.2073 -0.4068  0.2383
 6438TIP3    H140729   2.176   5.288   0.641 -0.0309 -1.7102  0.3508
 6438TIP3    H240730   2.112   5.229   0.765  0.3988  0.6501  1.7349
 6439TIP3   OH240731   1.904   2.900   1.663 -0.4154 -0.4755  0.3403
 6439TIP3    H140732   1.979   2.873   1.610 -0.2563  0.1352  0.2583
 6439TIP3    H240733   1.942   2.929   1.745 -0.6334 -1.0347  0.6446
 6440TIP3   OH240734   6.336   5.330  16.462 -0.3410 -0.4597 -0.2688
 6440TIP3    H140735   6.416   5.278  16.475 -1.0106 -1.5220 -0.3291
 6440TIP3    H240736   6.341   5.359  16.371  1.2133  1.6142  0.4389
 6441TIP3   OH240737   0.236   1.733   4.549  0.3628  0.1145  0.3818
 6441TIP3    H140738   0.287   1.808   4.518  1.5823 -1.0180 -0.3877
 6441TIP3    H240739   0.302   1.672   4.583 -0.5489 -1.0492  0.0617
 6442TIP3   OH240740   0.752   0.261   6.019 -0.0202 -0.2330  0.1258
 6442TIP3    H140741   0.739   0.319   5.944 -2.8924 -1.4432 -0.3978
 6442TIP3    H240742   0.705   0.304   6.090  0.8528 -0.1577  0.6534
 6443TIP3   OH240743   2.124   5.617   1.281  0.3744  0.3257 -0.5401
 6443TIP3    H140744   2.149   5.548   1.342 -2.9088 -0.0212  0.4954
 6443TIP3    H240745   2.118   5.573   1.196  1.6253  0.1050 -0.5296
 6444TIP3   OH240746   5.817   1.515  14.649  0.2828 -0.0788 -0.0291
 6444TIP3    H140747   5.725   1.543  14.657 -0.2617 -1.7302 -0.2644
 6444TIP3    H240748   5.818   1.425  14.683  1.3234 -0.9456 -2.2155
 6445TIP3   OH240749   2.975   0.539   1.557  0.1363 -0.3840 -0.3378
 6445TIP3    H140750   2.984   0.618   1.610 -0.2000 -0.3842 -0.2760
 6445TIP3    H240751   3.058   0.493   1.568 -0.0331 -0.5154  0.4045
 6446TIP3   OH240752   1.422   5.958   4.557 -0.3394 -0.1756 -0.2644
 6446TIP3    H140753   1.361   6.015   4.510 -0.0201  0.2022 -0.2222
 6446TIP3    H240754   1.373   5.930   4.635 -1.1479 -1.4178 -1.2006
 6447TIP3   OH240755   4.369   5.935  12.615  0.4868 -0.2448 -0.2224
 6447TIP3    H140756   4.362   5.928  12.520  0.3187  0.7180 -0.2811
 6447TIP3    H240757   4.279   5.929  12.647  0.6906 -2.5901  0.0300
 6448TIP3   OH240758   0.192   4.649  11.772 -0.1664 -0.2930 -0.3830
 6448TIP3    H140759   0.250   4.719  11.743 -0.8633  0.8664  0.9698
 6448TIP3    H240760   0.246   4.570  11.768  1.7522  0.8674  1.5463
 6449TIP3   OH240761   1.263   4.231  16.969 -0.2061  0.1612 -0.1964
 6449TIP3    H140762   1.320   4.304  16.946 -1.8070  1.2474 -0.7936
 6449TIP3    H240763   1.178   4.272  16.987 -0.9840 -1.5029 -0.0123
 6450TIP3   OH240764   4.681   5.959  11.732 -0.0245  0.0592  0.6727
 6450TIP3    H140765   4.736   6.037  11.734  0.0635 -0.0190  1.3221
 6450TIP3    H240766   4.629   5.968  11.652 -0.3621  1.0200  1.0053
 6451TIP3   OH240767   0.733   5.113   2.064  0.1534 -0.2461  0.1259
 6451TIP3    H140768   0.676   5.172   2.015  0.3357 -1.4677 -1.5922
 6451TIP3    H240769   0.791   5.172   2.113 -1.0714  0.9979  0.1195
 6452TIP3   OH240770   6.086   4.274   6.027  0.4112 -0.1940 -0.7108
 6452TIP3    H140771   6.001   4.318   6.023 -0.4288 -1.5643  1.0830
 6452TIP3    H240772   6.149   4.344   6.039 -0.3209  0.9420 -3.1358
 6453TIP3   OH240773   3.725   4.162  12.477 -0.0751  0.3328 -0.0917
 6453TIP3    H140774   3.726   4.075  12.437 -1.2113 -0.6537  1.9575
 6453TIP3    H240775   3.658   4.210  12.428 -0.4000 -0.3642 -0.3345
 6454TIP3   OH240776   2.463   0.258  12.451  0.4118  0.0362 -0.1581
 6454TIP3    H140777   2.390   0.202  12.423 -0.5444  0.3835  1.5334
 6454TIP3    H240778   2.431   0.299  12.532  1.9291  1.3470 -0.2091
 6455TIP3   OH240779   5.250   1.973  14.483 -0.0187  0.1224  0.1591
 6455TIP3    H140780   5.303   2.014  14.415  0.8470  1.4539  1.5931
 6455TIP3    H240781   5.272   1.880  14.477  1.2376  0.4355 -0.3654
 6456TIP3   OH240782   0.227   5.434  14.679 -0.0884 -0.3416 -0.4750
 6456TIP3    H140783   0.194   5.373  14.745 -0.7029  0.2264 -0.2609
 6456TIP3    H240784   0.321   5.440  14.698 -0.0576 -1.0542 -0.3676
 6457TIP3   OH240785   1.111   1.149  10.729 -0.1624  0.4851 -0.2681
 6457TIP3    H140786   1.128   1.055  10.737 -2.4021 -0.1315 -2.0381
 6457TIP3    H240787   1.185   1.183  10.679 -1.0856 -1.0479 -2.7824
 6458TIP3   OH240788   1.708   3.247  10.905  0.4462  0.5898  0.5352
 6458TIP3    H140789   1.640   3.249  10.838  0.2401 -2.5657  0.5842
 6458TIP3    H240790   1.787   3.279  10.861 -0.1928  0.6729 -0.5657
 6459TIP3   OH240791   1.972   6.760  12.099  0.3559 -0.3738 -0.0268
 6459TIP3    H140792   1.918   6.689  12.132 -0.2161 -0.2707 -0.7159
 6459TIP3    H240793   2.062   6.732  12.116  0.0639  0.5147  3.3020
 6460TIP3   OH240794   6.593   3.209   4.532  0.0104  0.0722  0.1478
 6460TIP3    H140795   6.562   3.127   4.571  2.6362 -0.3288  1.5212
 6460TIP3    H240796   6.646   3.182   4.457  1.4462  0.4473  1.0039
 6461TIP3   OH240797   0.286   4.044   2.609 -0.3442  0.0581 -0.0363
 6461TIP3    H140798   0.215   4.109   2.607 -0.1423  0.2479 -1.5567
 6461TIP3    H240799   0.366   4.096   2.609 -0.1503 -0.1561 -2.8097
 6462TIP3   OH240800   2.771   5.716  14.008 -0.1794 -0.0703  0.3027
 6462TIP3    H140801   2.792   5.630  14.046 -0.7511 -0.8975 -1.2089
 6462TIP3    H240802   2.856   5.757  13.995  0.1953 -1.0020 -0.2853
 6463TIP3   OH240803   0.577   5.244  11.087  0.2052 -0.3472 -0.1383
 6463TIP3    H140804   0.663   5.211  11.113 -0.5437 -2.2390  0.0091
 6463TIP3    H240805   0.533   5.168  11.047 -1.0956  0.8005 -0.9254
 6464TIP3   OH240806   4.230   6.705  16.704  0.1995 -0.0243  0.1862
 6464TIP3    H140807   4.288   6.648  16.755  2.4395  1.9339 -0.1129
 6464TIP3    H240808   4.269   6.707  16.617 -0.2602  1.3993  0.0075
 6465TIP3   OH240809   0.232   5.316   0.921 -0.4651  0.3730 -0.3330
 6465TIP3    H140810   0.306   5.365   0.957 -0.1886 -0.4540  0.2236
 6465TIP3    H240811   0.158   5.341   0.975 -0.5876  1.1421 -0.8424
 6466TIP3   OH240812   3.434   1.730  12.906  0.4281  0.2813 -0.4086
 6466TIP3    H140813   3.398   1.659  12.959 -0.3401  0.1245 -1.1178
 6466TIP3    H240814   3.517   1.696  12.872 -0.4019 -0.6594 -1.5459
 6467TIP3   OH240815   1.419   1.439   0.400 -0.4802  0.3512 -0.5741
 6467TIP3    H140816   1.336   1.470   0.364 -0.5849 -1.3841 -1.8961
 6467TIP3    H240817   1.397   1.354   0.440  0.6823 -0.1803 -1.0504
 6468TIP3   OH240818   0.210   6.152   2.221 -0.9025  0.6529 -0.0410
 6468TIP3    H140819   0.299   6.139   2.254 -1.3685 -0.0448  0.9524
 6468TIP3    H240820   0.220   6.154   2.126  0.2438  1.0911  0.0861
 6469TIP3   OH240821   4.368   0.052  10.224 -0.7171  0.2482 -0.4315
 6469TIP3    H140822   4.446   0.084  10.270 -0.1179 -1.0377 -0.5054
 6469TIP3    H240823   4.386   0.066  10.132  0.0375 -1.2820 -0.5408
 6470TIP3   OH240824   0.791   3.597  12.612  0.2113 -0.1423  0.6546
 6470TIP3    H140825   0.877   3.610  12.572  0.1131  0.0395  0.5041
 6470TIP3    H240826   0.810   3.569  12.702  0.4300  2.0071  1.3019
 6471TIP3   OH240827   1.736   5.723   0.470 -0.3277  0.1910  0.2313
 6471TIP3    H140828   1.666   5.679   0.422 -1.7168  0.7174  1.7418
 6471TIP3    H240829   1.695   5.753   0.551  1.0657  2.5862  0.0918
 6472TIP3   OH240830   4.586   1.996  13.768 -0.1790 -0.2123 -0.4299
 6472TIP3    H140831   4.557   2.006  13.677  0.0677  0.7046 -0.4125
 6472TIP3    H240832   4.674   1.959  13.761 -0.0063  0.2224 -0.5784
 6473TIP3   OH240833   0.986   2.236  11.418 -0.9770 -0.3460  0.0056
 6473TIP3    H140834   0.895   2.261  11.407 -0.7872 -0.4831 -1.9597
 6473TIP3    H240835   1.025   2.248  11.332  0.8066 -0.5406  0.7659
 6474TIP3   OH240836   5.799   1.810   5.292 -0.0730 -0.3550 -0.1836
 6474TIP3    H140837   5.761   1.767   5.368  0.4518  2.3109  1.6690
 6474TIP3    H240838   5.891   1.821   5.314  0.6218 -1.7487 -2.2670
 6475TIP3   OH240839   2.837   2.328   5.582 -0.2465  0.7402 -0.5923
 6475TIP3    H140840   2.766   2.271   5.553 -0.6996  0.2445  1.4128
 6475TIP3    H240841   2.884   2.277   5.648  1.0535  1.6402 -0.7923
 6476TIP3   OH240842   3.057   6.354  14.027 -0.4176  0.1720 -0.0372
 6476TIP3    H140843   3.047   6.379  14.119 -0.3665  1.3537 -0.3453
 6476TIP3    H240844   2.983   6.296  14.009 -1.7384  1.7746  0.1260
 6477TIP3   OH240845   3.230   5.944   0.519 -0.2145 -0.0481  0.1176
 6477TIP3    H140846   3.200   5.858   0.549 -1.4705 -0.2861 -1.7183
 6477TIP3    H240847   3.159   6.004   0.542  1.9713  1.1596  4.2556
 6478TIP3   OH240848   6.142   0.483  17.231 -0.3368  0.4460 -0.2986
 6478TIP3    H140849   6.162   0.484  17.138 -1.5231 -0.3751 -0.5698
 6478TIP3    H240850   6.130   0.575  17.254 -0.5483  0.6156 -1.0811
 6479TIP3   OH240851   3.177   3.416   0.690  0.1879 -0.6530  0.5888
 6479TIP3    H140852   3.162   3.457   0.605  3.5308  1.7912  1.0528
 6479TIP3    H240853   3.103   3.444   0.744 -1.1723 -0.9957 -1.0783
 6480TIP3   OH240854   5.691   2.201   0.372 -0.4937 -0.3593  0.1193
 6480TIP3    H140855   5.653   2.189   0.460  0.2627 -1.7233  0.2616
 6480TIP3    H240856   5.769   2.255   0.387 -1.1144  0.5613  0.1031
 6481TIP3   OH240857   6.515   5.223   1.052  0.5916  0.0270 -0.3013
 6481TIP3    H140858   6.501   5.141   1.099  0.3001  0.1684 -0.1369
 6481TIP3    H240859   6.464   5.288   1.101  0.0218  0.1152 -0.9912
 6482TIP3   OH240860   4.444   3.862  16.221 -0.4799  0.2513  0.0189
 6482TIP3    H140861   4.455   3.831  16.131  1.5580  1.7130 -0.2813
 6482TIP3    H240862   4.390   3.941  16.212  0.3323  0.8117 -0.0266
 6483TIP3   OH240863   1.938   4.325   1.772 -0.5422 -0.0892  0.7559
 6483TIP3    H140864   2.000   4.382   1.817 -0.1134  0.2321 -0.2261
 6483TIP3    H240865   1.926   4.250   1.830  1.2023 -0.4177  0.6955
 6484TIP3   OH240866   4.942   2.824  11.860 -0.0147 -0.8295 -0.5666
 6484TIP3    H140867   5.037   2.832  11.865 -0.0516 -0.6058 -0.2292
 6484TIP3    H240868   4.909   2.911  11.883 -0.2450 -0.3492 -2.5371
 6485TIP3   OH240869   3.193   1.136   0.706  0.5076 -0.2139  0.1849
 6485TIP3    H140870   3.275   1.099   0.672  0.5578  1.1284 -1.2017
 6485TIP3    H240871   3.142   1.156   0.628 -1.2606 -1.2567  1.0470
 6486TIP3   OH240872   0.116   3.955  14.986  0.0844  0.5175 -0.4476
 6486TIP3    H140873   0.057   3.911  15.047  0.0265  1.1037 -0.0679
 6486TIP3    H240874   0.174   3.886  14.954 -0.4969  0.0268 -0.4589
 6487TIP3   OH240875   5.860   3.068   1.743 -0.9582 -0.0021 -0.0673
 6487TIP3    H140876   5.776   3.090   1.702 -0.8855  1.2654  0.4237
 6487TIP3    H240877   5.901   3.006   1.683 -0.9369  1.6628 -1.8214
 6488TIP3   OH240878   3.098   0.592  10.876 -0.5313  0.0711 -0.7163
 6488TIP3    H140879   3.047   0.670  10.854  1.6046  1.3439 -1.2574
 6488TIP3    H240880   3.170   0.592  10.814 -0.3872 -2.2552 -0.5855
 6489TIP3   OH240881   3.718   5.332  14.765 -0.0154  0.1567 -0.1119
 6489TIP3    H140882   3.750   5.277  14.836  0.2618 -2.6361 -2.2828
 6489TIP3    H240883   3.797   5.372  14.728  0.1764 -0.7366 -0.6886
 6490TIP3   OH240884   0.738   4.254  13.617 -0.3696  0.0521 -0.2325
 6490TIP3    H140885   0.764   4.345  13.606 -0.3281  0.3558  2.0439
 6490TIP3    H240886   0.808   4.216  13.671 -0.2999 -1.3675 -1.3098
 6491TIP3   OH240887   3.583   6.038   3.934 -0.2604  1.3432 -0.1816
 6491TIP3    H140888   3.507   6.095   3.925 -1.4092 -0.3388 -1.5279
 6491TIP3    H240889   3.580   5.982   3.857  0.1016 -1.3428  1.6610
 6492TIP3   OH240890   0.156   5.904  16.678 -0.3264  0.1879 -0.3337
 6492TIP3    H140891   0.121   5.918  16.766  0.2771  0.2107 -0.0889
 6492TIP3    H240892   0.082   5.917  16.619 -0.6541  0.5175  0.1530
 6493TIP3   OH240893   4.930   4.103  17.060 -0.8960 -0.5192  0.0395
 6493TIP3    H140894   4.994   4.055  17.008 -1.5606 -0.3304 -0.9772
 6493TIP3    H240895   4.949   4.195  17.042  0.3120 -0.3980  1.9089
 6494TIP3   OH240896   6.317   0.011  12.601 -0.5990 -0.2235  0.4004
 6494TIP3    H140897   6.314   0.025  12.695 -1.3894 -0.5907  0.4338
 6494TIP3    H240898   6.273  -0.072  12.587 -3.0496  1.1708 -0.5597
 6495TIP3   OH240899   0.242   3.667  12.505 -0.5442 -0.4147  0.1964
 6495TIP3    H140900   0.204   3.596  12.557 -0.7323 -0.6876 -0.3203
 6495TIP3    H240901   0.336   3.649  12.506 -0.4965 -0.1647  0.8257
 6496TIP3   OH240902   4.814   0.131  14.698 -0.1429  0.0649 -0.5346
 6496TIP3    H140903   4.821   0.084  14.781 -1.3219 -0.6421 -0.8166
 6496TIP3    H240904   4.744   0.195  14.713 -1.6143 -1.2706 -1.5189
 6497TIP3   OH240905   3.781   5.567   1.976 -0.5005 -0.2882  0.0461
 6497TIP3    H140906   3.725   5.535   1.906  1.3416 -0.4148 -1.4000
 6497TIP3    H240907   3.821   5.647   1.942  1.1775 -0.8816  0.5278
 6498TIP3   OH240908   5.283   3.198   4.339  0.4946  0.0415 -0.3718
 6498TIP3    H140909   5.334   3.278   4.355  0.1692 -0.1082  1.5040
 6498TIP3    H240910   5.267   3.199   4.245  1.7999  1.4028 -0.6058
 6499TIP3   OH240911   4.452   4.176   4.265  0.5081 -0.5084  0.8691
 6499TIP3    H140912   4.482   4.178   4.174 -1.2871  1.0485  0.2726
 6499TIP3    H240913   4.386   4.106   4.267 -3.6350  3.1846 -0.4733
 6500TIP3   OH240914   5.887   3.210   2.129 -0.1022  0.0347  0.8629
 6500TIP3    H140915   5.921   3.131   2.087  0.7246  0.8858 -0.0947
 6500TIP3    H240916   5.903   3.280   2.066 -0.3440  1.0619  1.9146
 6501TIP3   OH240917   2.677   3.539   1.888 -0.5054  0.6380  0.1906
 6501TIP3    H140918   2.660   3.610   1.827 -0.6457  1.0809  0.7461
 6501TIP3    H240919   2.619   3.469   1.860  1.3486 -0.1472 -1.8638
 6502TIP3   OH240920   5.553   4.817  12.709 -0.2752  0.1596 -0.0255
 6502TIP3    H140921   5.464   4.818  12.674  0.2993  2.3735 -1.5514
 6502TIP3    H240922   5.609   4.808  12.631  0.8972  0.5942  0.7489
 6503TIP3   OH240923   2.151   3.783  13.636  0.1383  0.0676 -0.4926
 6503TIP3    H140924   2.223   3.748  13.582  0.4588  0.5220 -0.3656
 6503TIP3    H240925   2.072   3.742  13.600  0.3201  0.5687 -1.4820
 6504TIP3   OH240926   0.885   2.982   0.757 -0.0785 -0.2794  0.0854
 6504TIP3    H140927   0.838   3.063   0.741 -0.5913 -0.2839  1.4953
 6504TIP3    H240928   0.818   2.922   0.790  0.2733 -1.3120 -1.0498
 6505TIP3   OH240929   5.430   3.579   5.037 -0.0149 -0.8738 -0.0161
 6505TIP3    H140930   5.339   3.575   5.008 -0.1411  1.5560 -0.0362
 6505TIP3    H240931   5.481   3.557   4.960 -0.5348 -0.2372 -0.5454
 6506TIP3   OH240932   1.790   6.276   5.797 -0.4503  0.0229  0.1376
 6506TIP3    H140933   1.721   6.219   5.764 -1.1482  0.0448  1.5422
 6506TIP3    H240934   1.824   6.232   5.875  1.0349  0.0787 -0.4494
 6507TIP3   OH240935   2.194   4.312   3.321  0.2671 -0.4576 -0.1550
 6507TIP3    H140936   2.202   4.254   3.245  1.4593  1.4242 -1.5356
 6507TIP3    H240937   2.118   4.280   3.369 -0.6197 -1.5768 -2.2568
 6508TIP3   OH240938   5.875   3.822   2.530 -0.3139 -0.9849  0.1464
 6508TIP3    H140939   5.939   3.878   2.572 -1.2507  1.4438 -1.5533
 6508TIP3    H240940   5.873   3.743   2.584  1.0342  0.5958  2.6049
 6509TIP3   OH240941   0.554   5.014   6.000  0.3183 -0.1601  0.3013
 6509TIP3    H140942   0.616   5.080   5.969  1.2409 -1.9693 -1.7954
 6509TIP3    H240943   0.607   4.954   6.053 -0.0227 -0.6377  0.1033
 6510TIP3   OH240944   3.734   4.303  15.540 -0.4857 -0.2373  0.1910
 6510TIP3    H140945   3.696   4.224  15.579 -0.4160 -0.7117 -0.7083
 6510TIP3    H240946   3.698   4.307  15.452  0.0188  0.3875  0.0088
 6511TIP3   OH240947   2.066   5.461  16.984  0.1882  0.2463 -0.6115
 6511TIP3    H140948   2.094   5.461  17.076 -2.0727 -0.4642  0.1051
 6511TIP3    H240949   2.104   5.541  16.947  1.9740  0.0213  0.6450
 6512TIP3   OH240950   6.660   4.244  12.056  1.1694 -0.4464 -0.6470
 6512TIP3    H140951   6.637   4.267  11.966 -0.5770 -0.0693 -0.1126
 6512TIP3    H240952   6.629   4.154  12.067  1.4473 -0.5179 -0.4380
 6513TIP3   OH240953   4.444   5.466  12.019  0.0451  0.4730  0.2069
 6513TIP3    H140954   4.491   5.394  11.976 -3.6452 -1.3480 -0.9876
 6513TIP3    H240955   4.428   5.435  12.108  2.0386  1.5775  0.9815
 6514TIP3   OH240956   0.999   2.403   6.129  0.2287  0.4143 -0.9106
 6514TIP3    H140957   1.047   2.388   6.211 -0.7210  0.4892 -0.3353
 6514TIP3    H240958   0.915   2.360   6.143 -0.4942  1.7164 -1.2807
 6515TIP3   OH240959   0.732   1.927   1.871  0.3269  0.0797  0.0527
 6515TIP3    H140960   0.787   1.912   1.794  0.4580  1.4814 -0.1316
 6515TIP3    H240961   0.791   1.915   1.945  0.6854  0.7688 -0.1209
 6516TIP3   OH240962   2.844   1.342   0.060  0.5194  0.2909 -0.4292
 6516TIP3    H140963   2.770   1.282   0.073 -0.5734  1.2364 -2.1330
 6516TIP3    H240964   2.920   1.284   0.052 -0.3288 -0.7950 -0.7875
 6517TIP3   OH240965   5.894   3.411   5.580 -0.4859 -0.2917 -0.0407
 6517TIP3    H140966   5.955   3.408   5.507 -1.9148 -0.1003 -1.2688
 6517TIP3    H240967   5.945   3.381   5.656  1.8981  2.5089 -0.4685
 6518TIP3   OH240968   5.008   4.870  11.443 -0.7220 -0.2186 -0.1840
 6518TIP3    H140969   4.992   4.846  11.534 -0.6560 -2.7760 -0.7975
 6518TIP3    H240970   4.984   4.791  11.394  1.5649  0.2909 -2.1705
 6519TIP3   OH240971   6.460   3.681   1.563 -0.1341 -0.3767  0.4066
 6519TIP3    H140972   6.502   3.603   1.598 -0.1180  0.2611  1.8332
 6519TIP3    H240973   6.375   3.651   1.532 -0.2828 -0.8944  1.3047
 6520TIP3   OH240974   0.855   1.031  13.089  0.1106  0.7494  0.0530
 6520TIP3    H140975   0.854   0.951  13.036  0.9850  0.3388  0.6150
 6520TIP3    H240976   0.830   1.001  13.177  1.2018  0.9376  0.4426
 6521TIP3   OH240977   0.923   4.280   2.407 -0.3341 -0.1848 -0.1848
 6521TIP3    H140978   1.010   4.317   2.397  0.6973 -2.5904 -0.5017
 6521TIP3    H240979   0.937   4.196   2.451 -2.7291  0.4605  1.9536
 6522TIP3   OH240980   0.119   2.633   0.113  0.0175  0.2841 -0.2146
 6522TIP3    H140981   0.074   2.597   0.036  2.2514 -1.7572 -0.6096
 6522TIP3    H240982   0.211   2.633   0.089  0.5373  1.6187  1.6988
 6523TIP3   OH240983   3.974   2.361  11.692 -0.2509 -0.0168 -0.4395
 6523TIP3    H140984   4.017   2.404  11.618 -0.5538 -1.7493 -1.6451
 6523TIP3    H240985   4.042   2.305  11.730 -0.1376  0.7560  0.5139
 6524TIP3   OH240986   2.098   2.000   0.654  0.1568 -0.2156  0.3846
 6524TIP3    H140987   2.084   1.909   0.629  1.3498  0.1662 -1.8173
 6524TIP3    H240988   2.053   2.051   0.587  0.3494  0.8325  1.0289
 6525TIP3   OH240989   1.971   2.698  13.274 -0.1006  0.0856  0.2111
 6525TIP3    H140990   2.014   2.634  13.218  0.6079  0.9627 -0.2551
 6525TIP3    H240991   2.014   2.781  13.254  0.3717  0.3644  2.2679
 6526TIP3   OH240992   6.284   2.781   2.077  0.3322 -0.0502 -0.3513
 6526TIP3    H140993   6.210   2.725   2.101 -0.5076  0.5980 -1.4145
 6526TIP3    H240994   6.347   2.722   2.036  0.8260 -0.7708  1.4031
 6527TIP3   OH240995   0.134   6.763   2.818  0.1271  0.9534 -0.0159
 6527TIP3    H140996   0.213   6.815   2.804 -0.0920  1.3916  0.3270
 6527TIP3    H240997   0.085   6.813   2.883 -0.5511  0.8215 -0.4192
 6528TIP3   OH240998   2.684   3.408   2.787  0.4818  0.3804  0.4946
 6528TIP3    H140999   2.702   3.430   2.695  0.5617 -0.7299  0.2466
 6528TIP3    H241000   2.771   3.405   2.828  0.4083  1.4726  0.7484
 6529TIP3   OH241001   5.048   3.571  15.836 -0.2237 -0.2851  0.2924
 6529TIP3    H141002   5.011   3.604  15.918 -3.6102 -1.4280 -0.7122
 6529TIP3    H241003   5.114   3.507  15.864  0.7342  1.4435  2.1200
 6530TIP3   OH241004   0.349   5.303   2.935  0.1306  0.1739 -0.5028
 6530TIP3    H141005   0.284   5.318   3.004 -0.6056 -1.3944 -0.8357
 6530TIP3    H241006   0.422   5.260   2.979  1.1647  2.3054 -0.0464
 6531TIP3   OH241007   4.276   4.631   3.801  0.3189 -0.0682 -0.3716
 6531TIP3    H141008   4.277   4.712   3.852  0.5453 -0.4904  0.3102
 6531TIP3    H241009   4.241   4.565   3.861  0.1594 -0.4817 -0.9105
 6532TIP3   OH241010   5.655   0.205   4.969 -0.0343  0.6118  0.4154
 6532TIP3    H141011   5.688   0.223   5.057  0.6708  1.3937 -0.0048
 6532TIP3    H241012   5.733   0.199   4.915 -0.5985  3.0934 -0.7108
 6533TIP3   OH241013   2.073   4.075  16.687  0.0807 -0.3960 -0.8175
 6533TIP3    H141014   1.992   4.025  16.700 -0.8469  1.1320 -0.6323
 6533TIP3    H241015   2.055   4.131  16.611 -0.4067  2.6832  1.4833
 6534TIP3   OH241016   5.188   2.244   6.190 -0.1930  0.9138  0.3831
 6534TIP3    H141017   5.222   2.275   6.106 -0.5122  1.0155  0.2913
 6534TIP3    H241018   5.109   2.195   6.167 -0.9326  1.9391  0.7282
 6535TIP3   OH241019   2.674   4.742  13.930  0.0033  0.0228 -0.7639
 6535TIP3    H141020   2.619   4.742  13.852 -0.6088 -1.0696 -0.3351
 6535TIP3    H241021   2.730   4.820  13.920 -0.7231  0.4129 -1.8214
 6536TIP3   OH241022   1.680   4.526  14.600  0.3605  0.5190 -0.4305
 6536TIP3    H141023   1.695   4.482  14.684 -1.0431 -1.1225 -1.0008
 6536TIP3    H241024   1.615   4.593  14.619 -0.2201 -0.0873 -0.2846
 6537TIP3   OH241025   0.987   6.084   2.728 -0.2635 -0.6266  0.2340
 6537TIP3    H141026   1.053   6.127   2.782 -1.2420  1.6618 -0.3040
 6537TIP3    H241027   0.949   6.017   2.785  1.4004 -0.8925  1.0683
 6538TIP3   OH241028   5.635   1.492  13.637 -0.2041 -0.2492 -0.3320
 6538TIP3    H141029   5.641   1.562  13.572 -1.0002 -1.7499 -2.0695
 6538TIP3    H241030   5.725   1.459  13.644  0.1772  0.9507  0.5137
 6539TIP3   OH241031   3.762   2.510  15.438  0.1216 -0.4488  0.4757
 6539TIP3    H141032   3.833   2.448  15.426  0.9492  0.2744  1.5542
 6539TIP3    H241033   3.770   2.540  15.528 -0.6681  0.7276  0.1784
 6540TIP3   OH241034   5.494   1.991   5.681  0.0280  0.6639  0.1293
 6540TIP3    H141035   5.572   2.046   5.677  0.4455 -0.0374 -1.6958
 6540TIP3    H241036   5.526   1.907   5.715  0.4332 -0.1974 -2.2873
 6541TIP3   OH241037   0.900   5.506  16.484 -0.7481  0.0171 -0.0126
 6541TIP3    H141038   0.894   5.474  16.573 -0.0296  0.8550  0.3481
 6541TIP3    H241039   0.924   5.599  16.493  0.4526 -0.1653 -1.0717
 6542TIP3   OH241040   5.995   0.948  15.781 -0.5719  0.1623  0.5339
 6542TIP3    H141041   5.986   1.028  15.731 -1.5983 -0.3061 -0.0462
 6542TIP3    H241042   6.063   0.967  15.847 -1.9460  2.0201  1.4347
 6543TIP3   OH241043   2.567   0.320   3.879 -0.4544  0.0858 -0.1544
 6543TIP3    H141044   2.650   0.304   3.835 -0.1253  0.1271  0.4483
 6543TIP3    H241045   2.523   0.384   3.823 -0.7217 -1.0378 -1.2545
 6544TIP3   OH241046   1.639   5.289  16.011  0.2533  0.3574 -0.1550
 6544TIP3    H141047   1.590   5.371  16.007 -1.8602 -0.9150 -1.3796
 6544TIP3    H241048   1.577   5.225  16.047  0.2110 -1.8029 -3.8254
 6545TIP3   OH241049   0.034   4.364  15.157 -0.5561  0.5756 -0.2403
 6545TIP3    H141050  -0.041   4.316  15.121  1.1325 -1.2444 -1.3936
 6545TIP3    H241051   0.022   4.454  15.125 -3.4384  0.8625  1.4616
 6546TIP3   OH241052   2.722   0.199   0.408 -0.7219 -0.1379 -0.1259
 6546TIP3    H141053   2.667   0.185   0.330  0.7330  0.4133 -1.2889
 6546TIP3    H241054   2.729   0.113   0.448  1.8717 -1.3608 -2.9450
 6547TIP3   OH241055   0.184   4.815  12.679  0.0360  0.3268 -0.0054
 6547TIP3    H141056   0.096   4.841  12.653 -0.2080 -2.4408 -2.1940
 6547TIP3    H241057   0.172   4.770  12.763  0.0283  3.8210  1.9876
 6548TIP3   OH241058   5.741   3.774   4.947 -0.1231 -0.6408  0.5843
 6548TIP3    H141059   5.723   3.685   4.917  3.4040 -1.7135  1.5216
 6548TIP3    H241060   5.731   3.770   5.042 -2.1386  0.5613  0.4699
 6549TIP3   OH241061   3.867   5.776  13.856 -0.8642 -0.1242 -0.5631
 6549TIP3    H141062   3.832   5.859  13.826 -0.6631  0.0349 -0.3588
 6549TIP3    H241063   3.899   5.794  13.945  2.4631  0.4916 -1.8213
 6550TIP3   OH241064   5.822   2.859  16.584 -0.0663 -0.2163 -0.0615
 6550TIP3    H141065   5.825   2.827  16.674 -1.3565 -1.7650 -0.5470
 6550TIP3    H241066   5.805   2.953  16.593  0.0948 -0.3041  1.3054
 6551TIP3   OH241067   4.608   1.889  16.469 -0.0951 -0.5852  0.1524
 6551TIP3    H141068   4.526   1.936  16.451 -0.3572 -0.8153  0.7370
 6551TIP3    H241069   4.630   1.849  16.385 -2.1206 -2.8995  0.6750
 6552TIP3   OH241070   3.981   4.698  14.454 -0.1319  1.3548 -0.0461
 6552TIP3    H141071   3.948   4.608  14.450 -1.0786  1.7056 -0.3546
 6552TIP3    H241072   3.995   4.722  14.362 -0.0593  1.5843  0.0235
 6553TIP3   OH241073   2.479   2.813  15.770 -0.4643 -0.0045  0.0631
 6553TIP3    H141074   2.532   2.741  15.804 -2.3240 -0.3786  2.3148
 6553TIP3    H241075   2.497   2.886  15.829  0.8305  1.2154 -1.7603
 6554TIP3   OH241076   3.045   6.530  12.897 -0.4352  0.3598  0.3287
 6554TIP3    H141077   2.962   6.574  12.919 -0.6899  0.9660 -1.7107
 6554TIP3    H241078   3.029   6.491  12.811  1.0172 -0.5641  0.4627
 6555TIP3   OH241079   0.481   1.044  17.024  0.2855  0.5282 -0.4483
 6555TIP3    H141080   0.388   1.031  17.007  0.3577  1.7024 -1.8445
 6555TIP3    H241081   0.514   0.956  17.045 -0.6863 -0.2760 -2.2005
 6556TIP3   OH241082   5.225   1.043   5.646  0.8456  0.0306 -0.5129
 6556TIP3    H141083   5.260   1.034   5.735  1.2487 -0.5031 -0.7246
 6556TIP3    H241084   5.151   1.103   5.656 -0.1074 -1.2814  0.4536
 6557TIP3   OH241085   5.913   6.196  15.314 -0.3873  0.8529 -0.2418
 6557TIP3    H141086   5.992   6.174  15.363 -1.4157  2.3261  2.1850
 6557TIP3    H241087   5.933   6.279  15.271  0.5657 -0.5111 -2.5132
 6558TIP3   OH241088   1.064   0.938   3.850 -0.4336  0.4853  0.1322
 6558TIP3    H141089   1.003   0.870   3.878 -1.3206  1.6080  0.9653
 6558TIP3    H241090   1.126   0.946   3.922  1.1211 -1.0945 -0.9741
 6559TIP3   OH241091   3.131   3.250   6.030  0.2495 -0.5153 -0.2169
 6559TIP3    H141092   3.174   3.166   6.047  3.2593  1.1924  1.0411
 6559TIP3    H241093   3.106   3.283   6.116 -2.2522 -0.7453 -0.8167
 6560TIP3   OH241094   6.495   2.549   0.301 -0.0064 -0.3324  0.2635
 6560TIP3    H141095   6.429   2.524   0.237  1.4436 -1.0234 -1.0136
 6560TIP3    H241096   6.509   2.471   0.354  1.2942 -0.8874 -0.8493
 6561TIP3   OH241097   6.503   3.237   0.144 -0.2557  0.2048 -0.3671
 6561TIP3    H141098   6.472   3.172   0.081  0.6549 -1.0108  0.4031
 6561TIP3    H241099   6.425   3.264   0.192 -0.6023 -0.5424 -0.5111
 6562TIP3   OH241100   6.358   2.770  16.582  0.4122 -0.0188 -0.6812
 6562TIP3    H141101   6.404   2.806  16.506  0.8929  0.8407  0.0175
 6562TIP3    H241102   6.270   2.751  16.549  0.0545  2.0598 -1.0115
 6563TIP3   OH241103   4.299   0.589   2.372  0.3237  0.2482 -0.1743
 6563TIP3    H141104   4.299   0.631   2.459 -0.7177 -1.1133  0.5065
 6563TIP3    H241105   4.295   0.495   2.391  1.7838 -0.1527 -1.6886
 6564TIP3   OH241106   5.451   4.573  15.199  0.3141  0.3542  0.1413
 6564TIP3    H141107   5.547   4.577  15.194  0.3161  0.8083  0.4462
 6564TIP3    H241108   5.434   4.525  15.280  0.2859  0.5631  0.2610
 6565TIP3   OH241109   2.670   6.150  16.028  0.1051  0.1829  0.3959
 6565TIP3    H141110   2.745   6.144  16.086 -0.1273 -0.0554  0.6752
 6565TIP3    H241111   2.680   6.077  15.967  1.2622  1.4530 -0.9538
 6566TIP3   OH241112   1.308   0.272  13.330 -0.8721  0.0443  0.0316
 6566TIP3    H141113   1.403   0.274  13.321 -0.7024 -2.2594  0.9858
 6566TIP3    H241114   1.276   0.255  13.241 -0.3739  0.3960 -0.2155
 6567TIP3   OH241115   3.388   2.209   0.158 -0.1968 -0.0106  0.2515
 6567TIP3    H141116   3.460   2.229   0.098 -0.4552  0.3637  0.0589
 6567TIP3    H241117   3.397   2.115   0.177  0.5826  0.1224  0.5599
 6568TIP3   OH241118   1.744   1.422  16.369 -0.0087  0.1188 -0.0768
 6568TIP3    H141119   1.666   1.475  16.385  0.5530  0.6403  1.0104
 6568TIP3    H241120   1.815   1.485  16.366  0.5893 -0.5078  0.6320
 6569TIP3   OH241121   5.861   2.697  11.555 -0.4358  0.0866  0.5615
 6569TIP3    H141122   5.806   2.772  11.579  1.9168  2.1444 -0.3297
 6569TIP3    H241123   5.930   2.695  11.622  0.6289 -0.0742 -0.5267
 6570TIP3   OH241124   3.651   3.904   3.032 -0.0256  0.4501  0.1737
 6570TIP3    H141125   3.698   3.824   3.008 -1.3256 -0.3944  0.3897
 6570TIP3    H241126   3.709   3.949   3.093 -0.1096 -1.2782  1.5523
 6571TIP3   OH241127   0.162   2.985   5.940 -0.2048  0.0737  0.9705
 6571TIP3    H141128   0.109   3.063   5.923  0.4585  0.6679  1.5754
 6571TIP3    H241129   0.142   2.962   6.031  1.0355  0.6784  1.4051
 6572TIP3   OH241130   0.343   5.737   4.622  0.1870 -0.6436  0.4182
 6572TIP3    H141131   0.305   5.649   4.621 -0.2358 -0.5256  2.4632
 6572TIP3    H241132   0.270   5.795   4.642  0.7419 -0.0039  0.6482
 6573TIP3   OH241133   0.311   5.697   0.728 -0.4240 -0.0249 -0.6672
 6573TIP3    H141134   0.363   5.692   0.648  1.5065 -1.9933  0.6715
 6573TIP3    H241135   0.361   5.754   0.786 -1.5966  1.0297 -0.6538
 6574TIP3   OH241136   4.786   6.430  14.002  0.2901 -0.3110  0.2654
 6574TIP3    H141137   4.758   6.403  13.915 -1.8274 -0.5696  0.9950
 6574TIP3    H241138   4.754   6.361  14.060  0.8977  0.3076  1.3578
 6575TIP3   OH241139   6.761   1.481   1.071 -0.3305  0.0597 -0.0997
 6575TIP3    H141140   6.701   1.487   0.996  0.1490 -0.0558 -0.4970
 6575TIP3    H241141   6.760   1.389   1.095 -1.6401  0.3483  0.9973
 6576TIP3   OH241142   6.639   5.071   3.798 -0.0064  0.0393 -0.3998
 6576TIP3    H141143   6.694   4.996   3.776  1.6605  0.1296  2.9829
 6576TIP3    H241144   6.689   5.117   3.866 -2.8256  1.9268  0.4801
 6577TIP3   OH241145   2.479   4.837   4.547  0.3256  0.5480 -0.1485
 6577TIP3    H141146   2.389   4.803   4.546 -0.0731  1.4833  1.4458
 6577TIP3    H241147   2.506   4.826   4.638  0.5368  3.6024  0.1920
 6578TIP3   OH241148   2.285   4.407   1.257 -0.1123 -0.0449 -0.0123
 6578TIP3    H141149   2.284   4.340   1.189 -2.6853  0.2984 -0.3548
 6578TIP3    H241150   2.193   4.432   1.268  0.6029  2.1443  1.3815
 6579TIP3   OH241151   5.827   2.403  14.238 -0.3579  0.0841  0.1078
 6579TIP3    H141152   5.808   2.394  14.331  1.0241 -0.7531  0.3294
 6579TIP3    H241153   5.758   2.354  14.194 -1.0729  0.5706  0.6776
 6580TIP3   OH241154   5.586   5.813  14.781  0.1653  0.2246  0.5922
 6580TIP3    H141155   5.513   5.751  14.773  0.8568 -0.6097  0.6500
 6580TIP3    H241156   5.629   5.810  14.695  0.1270  0.7165  0.5566
 6581TIP3   OH241157   0.697   5.276   6.664 -0.4854 -0.1749 -0.1061
 6581TIP3    H141158   0.674   5.332   6.590 -0.3875  1.0599  0.7712
 6581TIP3    H241159   0.789   5.295   6.681 -1.4034  2.3521  2.6170
 6582TIP3   OH241160   4.631   0.276   0.152 -0.1297 -0.2156  0.3317
 6582TIP3    H141161   4.570   0.291   0.224  0.1174  1.4452  0.2138
 6582TIP3    H241162   4.577   0.283   0.073  0.3284  2.1065  0.1870
 6583TIP3   OH241163   4.610   3.609  11.547  0.7599  0.1325  0.6656
 6583TIP3    H141164   4.673   3.610  11.475  1.2477  1.5253  1.0889
 6583TIP3    H241165   4.592   3.702  11.564 -0.5666 -0.2273  1.2846
 6584TIP3   OH241166   5.954   5.188   4.970  0.0595  0.1757  0.0954
 6584TIP3    H141167   5.894   5.201   5.043 -0.4151  1.5973 -0.5420
 6584TIP3    H241168   5.909   5.127   4.912 -0.9610  1.5387 -0.5738
 6585TIP3   OH241169   6.173   2.048  12.459 -0.3856  0.0579  0.0828
 6585TIP3    H141170   6.154   2.111  12.529 -0.8148 -0.5289  0.4975
 6585TIP3    H241171   6.111   1.977  12.473 -3.4129  1.8260 -3.4066
 6586TIP3   OH241172   3.816   4.953  13.510  0.3638  0.2223  0.1841
 6586TIP3    H141173   3.727   4.956  13.475  0.7266  1.7690 -0.6487
 6586TIP3    H241174   3.873   4.962  13.433  1.2500 -0.6935  0.7108
 6587TIP3   OH241175   3.717   0.909  12.981 -0.4781 -0.0530 -0.0760
 6587TIP3    H141176   3.805   0.926  13.016 -0.2261  1.0295 -1.1997
 6587TIP3    H241177   3.669   0.990  12.998 -1.2266 -0.5961  0.4080
 6588TIP3   OH241178   4.348   4.769  15.423  0.3325  0.0035  0.1893
 6588TIP3    H141179   4.279   4.795  15.485 -0.2046 -0.3741 -0.2403
 6588TIP3    H241180   4.342   4.674  15.420  0.3976  0.0150 -0.3919
 6589TIP3   OH241181   1.094   1.327   0.054 -0.1659  0.9477 -0.5238
 6589TIP3    H141182   1.028   1.280   0.003  0.6992  0.6483 -1.3852
 6589TIP3    H241183   1.173   1.273   0.046  0.8329  2.5053 -1.4966
 6590TIP3   OH241184   2.344   5.989   3.185 -0.4771 -0.0041  0.1973
 6590TIP3    H141185   2.277   6.054   3.208 -2.2554 -1.7360  0.0645
 6590TIP3    H241186   2.365   5.946   3.268 -1.4763 -1.2250 -0.1554
 6591TIP3   OH241187   4.259   2.730   4.934  0.4620  0.5394 -0.1314
 6591TIP3    H141188   4.200   2.758   5.004 -0.1750  1.9641 -1.2223
 6591TIP3    H241189   4.269   2.807   4.878  2.3375 -0.0705 -0.6788
 6592TIP3   OH241190   0.415   6.230  17.058 -0.6068 -0.4566  0.2643
 6592TIP3    H141191   0.345   6.246  16.994  0.7209  1.4005 -0.7893
 6592TIP3    H241192   0.489   6.200  17.005  0.3622  0.6663  0.9489
 6593TIP3   OH241193   6.583   6.557  10.704  0.6657 -0.6786  0.1227
 6593TIP3    H141194   6.606   6.522  10.618  0.2670  0.5827 -0.5029
 6593TIP3    H241195   6.497   6.520  10.723  1.0792 -1.5576  0.3306
 6594TIP3   OH241196   3.431   6.528   0.314 -0.4815  0.0732  0.7705
 6594TIP3    H141197   3.488   6.582   0.261 -0.5669 -1.0681 -0.5095
 6594TIP3    H241198   3.342   6.548   0.283 -0.6027  0.0287  1.0765
 6595TIP3   OH241199   3.507   1.259  13.663  0.1579 -0.2826 -0.2761
 6595TIP3    H141200   3.498   1.164  13.667 -0.1466 -0.2389  0.1247
 6595TIP3    H241201   3.594   1.274  13.626  0.1605 -0.7162 -0.4430
 6596TIP3   OH241202   3.079   1.480  10.599 -0.0062 -0.1571 -0.2067
 6596TIP3    H141203   3.096   1.548  10.664  0.6970 -2.4595  2.0658
 6596TIP3    H241204   2.988   1.456  10.611  0.4650 -1.4784  0.8228
 6597TIP3   OH241205   4.405   3.489  15.079 -0.2391 -0.2743 -0.4768
 6597TIP3    H141206   4.333   3.426  15.073 -1.2371  0.9108 -1.2429
 6597TIP3    H241207   4.472   3.454  15.021 -1.2334 -0.0713 -1.7742
 6598TIP3   OH241208   5.399   5.207  16.042 -0.4433 -0.3149 -0.3556
 6598TIP3    H141209   5.311   5.212  16.006  0.0179 -1.3635 -1.6674
 6598TIP3    H241210   5.445   5.283  16.006 -0.7287  0.0886  0.1197
 6599TIP3   OH241211   6.547   4.381  16.692  0.2598  0.0327 -0.0896
 6599TIP3    H141212   6.549   4.293  16.654  1.3754 -0.8178  1.8544
 6599TIP3    H241213   6.623   4.425  16.655  0.5074 -0.2927  0.0317
 6600TIP3   OH241214   5.522   4.657   1.529 -0.3397 -0.5649 -0.2497
 6600TIP3    H141215   5.565   4.575   1.504  0.3310 -0.2726 -0.0435
 6600TIP3    H241216   5.583   4.725   1.504  0.0190 -0.2270  1.5197
 6601TIP3   OH241217   0.463   5.772  15.551 -0.4780  0.0279 -0.7268
 6601TIP3    H141218   0.525   5.838  15.518  2.0777 -0.7664  2.1609
 6601TIP3    H241219   0.396   5.766  15.484  1.4895  2.4800 -3.0439
 6602TIP3   OH241220   2.858   4.306   6.064 -0.1283 -0.5489  0.2345
 6602TIP3    H141221   2.950   4.288   6.044 -0.8018 -1.3662 -2.2485
 6602TIP3    H241222   2.850   4.401   6.051 -0.3640 -0.9398 -2.7908
 6603TIP3   OH241223   0.640   1.232   2.966 -0.1016 -0.3231 -0.1856
 6603TIP3    H141224   0.603   1.152   2.929 -0.4603 -0.0276 -0.4595
 6603TIP3    H241225   0.679   1.278   2.892  1.0433 -0.7487  0.1329
 6604TIP3   OH241226   5.758   0.487   5.296 -0.1712 -0.6302  0.5865
 6604TIP3    H141227   5.742   0.469   5.388  0.0525 -1.0628  0.5411
 6604TIP3    H241228   5.837   0.541   5.296 -2.4931  2.9059  0.9208
 6605TIP3   OH241229   6.044   2.270   2.111 -0.2526  0.2992 -0.3264
 6605TIP3    H141230   6.063   2.342   2.051  0.5645 -0.1018 -0.5548
 6605TIP3    H241231   5.948   2.260   2.107 -0.1788  0.0552 -1.8179
 6606TIP3   OH241232   5.925   0.626   2.600  0.1536 -0.2370  0.3898
 6606TIP3    H141233   5.859   0.557   2.602  0.8582 -0.9490 -0.2514
 6606TIP3    H241234   5.882   0.703   2.638 -1.7947 -0.0325 -2.0906
 6607TIP3   OH241235   5.429   3.709   6.112 -0.0491  0.0835  0.2403
 6607TIP3    H141236   5.406   3.747   6.027  0.7021 -0.0917 -0.0468
 6607TIP3    H241237   5.431   3.784   6.172  0.2007  0.3269 -0.0655
 6608TIP3   OH241238   6.301   4.552  11.028  0.6909 -0.0030  0.6255
 6608TIP3    H141239   6.223   4.498  11.017  1.7535 -1.5788  0.5241
 6608TIP3    H241240   6.305   4.606  10.949  0.5408 -1.0196 -0.0871
 6609TIP3   OH241241   4.966   1.216   4.062  0.0297 -0.5046  0.7103
 6609TIP3    H141242   5.005   1.223   3.975  0.5548  0.1670  0.9958
 6609TIP3    H241243   5.014   1.280   4.115 -2.4238  1.4236  0.7174
 6610TIP3   OH241244   5.412   6.596  11.991  0.1964  1.0927 -0.4168
 6610TIP3    H141245   5.440   6.549  12.070 -0.1709 -0.0332 -0.9549
 6610TIP3    H241246   5.466   6.560  11.921 -0.9154  0.6279 -1.0427
 6611TIP3   OH241247   3.900   0.329  14.805 -0.6359  0.1164  0.6919
 6611TIP3    H141248   3.905   0.410  14.754  1.8403 -0.0011  0.6928
 6611TIP3    H241249   3.872   0.262  14.741  1.6845  0.1218 -0.3663
 6612TIP3   OH241250   2.597   1.963   5.163 -0.1280 -0.4485 -0.4138
 6612TIP3    H141251   2.641   1.878   5.156 -1.0756 -0.7708 -3.8165
 6612TIP3    H241252   2.505   1.941   5.173 -0.4293  0.1494 -1.7619
 6613TIP3   OH241253   1.576   3.048  11.487  0.1951 -0.0546 -0.6037
 6613TIP3    H141254   1.619   2.974  11.444  0.3773  0.0208 -0.5505
 6613TIP3    H241255   1.645   3.090  11.538 -0.4718 -1.3950  1.4731
 6614TIP3   OH241256   5.893   1.090   1.279  0.1390 -0.1287 -0.2914
 6614TIP3    H141257   5.966   1.079   1.339 -0.1313  1.3809  0.3227
 6614TIP3    H241258   5.816   1.062   1.329 -0.0603  0.9447  0.0105
 6615TIP3   OH241259   2.756   6.411  14.285 -0.7485 -0.5937  0.4890
 6615TIP3    H141260   2.784   6.467  14.213 -0.8230 -0.2593  0.7220
 6615TIP3    H241261   2.835   6.396  14.336  0.2300 -4.0791 -1.8297
 6616TIP3   OH241262   3.086   2.104   0.739 -0.0675 -0.1707 -0.1933
 6616TIP3    H141263   3.066   2.073   0.827  0.1835  0.1246 -0.0343
 6616TIP3    H241264   3.002   2.139   0.707  0.2515  1.3122  0.5759
 6617TIP3   OH241265   0.735   3.731   2.636 -0.3680  0.8586 -0.8087
 6617TIP3    H141266   0.683   3.657   2.668  0.7708  0.5772  0.4552
 6617TIP3    H241267   0.817   3.691   2.605 -0.5977  1.3675 -2.1072
 6618TIP3   OH241268   2.243   4.246  12.765 -0.5780 -0.6742 -0.1029
 6618TIP3    H141269   2.318   4.243  12.706 -0.2717 -0.5041  0.2852
 6618TIP3    H241270   2.256   4.325  12.817 -1.8252  0.2272 -1.1101
 6619TIP3   OH241271   3.656   3.225   3.963 -0.3876  0.5095 -0.1907
 6619TIP3    H141272   3.739   3.225   3.914  0.0436  1.8514  0.5155
 6619TIP3    H241273   3.680   3.197   4.051 -0.7872  0.3880 -0.1186
 6620TIP3   OH241274   3.944   3.256   2.948  0.0919  0.2355 -0.4931
 6620TIP3    H141275   4.040   3.262   2.953  0.0114  1.4433 -0.1928
 6620TIP3    H241276   3.924   3.259   2.854  0.2666  1.6691 -0.5006
 6621TIP3   OH241277   0.083   4.024   2.991 -0.1663  0.1033 -1.1151
 6621TIP3    H141278   0.148   3.957   2.967  1.2084  0.8665  0.3586
 6621TIP3    H241279   0.072   4.076   2.912  1.4768  0.3241 -1.2246
 6622TIP3   OH241280   5.544   1.483  17.209 -0.0584  0.0896  0.4353
 6622TIP3    H141281   5.584   1.505  17.293  0.6029  1.3195 -0.1799
 6622TIP3    H241282   5.617   1.451  17.155  0.1556  2.3726 -0.7057
 6623TIP3   OH241283   3.689   6.134  11.893  0.3971 -0.2060  0.0514
 6623TIP3    H141284   3.741   6.123  11.972 -1.4359  1.1016  1.4929
 6623TIP3    H241285   3.608   6.086  11.911 -0.2583  0.5560 -0.8250
 6624TIP3   OH241286   1.711   6.590   3.514  0.2454  0.1320  0.7732
 6624TIP3    H141287   1.674   6.589   3.603 -0.1487  1.3130  0.6331
 6624TIP3    H241288   1.681   6.673   3.477 -1.5929 -1.4266 -1.3103
 6625TIP3   OH241289   0.315   1.658   2.702  0.5274  0.7196  0.1526
 6625TIP3    H141290   0.364   1.579   2.680  1.7291  1.5692 -0.2867
 6625TIP3    H241291   0.287   1.693   2.617  0.0279  0.7760  0.3415
 6626TIP3   OH241292   3.531   4.333  16.014 -0.1625  0.3429 -0.1306
 6626TIP3    H141293   3.540   4.409  15.956  0.5302 -0.5568 -1.2181
 6626TIP3    H241294   3.484   4.269  15.962  0.8312 -0.6353  0.1605
 6627TIP3   OH241295   2.704   0.042  11.392  0.0911  0.1599  0.2186
 6627TIP3    H141296   2.653   0.043  11.473 -0.6111  2.4015 -0.2090
 6627TIP3    H241297   2.640   0.059  11.323  1.2751  2.4868 -0.3773
 6628TIP3   OH241298   0.983   1.912   5.833  0.4384 -0.5768 -0.0594
 6628TIP3    H141299   0.973   1.840   5.771 -0.7184 -0.3119 -0.1971
 6628TIP3    H241300   0.930   1.983   5.797 -0.1798 -0.3895  1.1604
 6629TIP3   OH241301   0.164   5.340  16.585  0.6909 -0.2633  0.0461
 6629TIP3    H141302   0.147   5.250  16.557  3.0199 -0.5275 -0.6422
 6629TIP3    H241303   0.178   5.388  16.504  0.8655  0.4356  0.4834
 6630TIP3   OH241304   6.629   6.778   5.808 -0.1244 -0.3960 -0.0125
 6630TIP3    H141305   6.604   6.830   5.731 -1.0424 -0.1998  0.4137
 6630TIP3    H241306   6.715   6.741   5.785 -0.5496 -0.6234 -1.2721
 6631TIP3   OH241307   6.114   2.831  17.104 -0.4010 -0.2576 -0.3713
 6631TIP3    H141308   6.030   2.876  17.112  0.9230  2.2896 -0.2107
 6631TIP3    H241309   6.164   2.861  17.180  1.7115  0.6641 -2.0759
 6632TIP3   OH241310   2.807   5.747   0.440  0.7949 -0.1458  0.6063
 6632TIP3    H141311   2.882   5.776   0.388 -1.6499  1.5582 -2.1135
 6632TIP3    H241312   2.815   5.795   0.522  2.3924  0.4358  0.1347
 6633TIP3   OH241313   6.074   2.457   1.898 -0.2589  0.1201 -0.4961
 6633TIP3    H141314   6.006   2.518   1.868 -0.3252 -0.4929 -1.6217
 6633TIP3    H241315   6.156   2.501   1.878 -0.3057  1.3109  1.7994
 6634TIP3   OH241316   4.145   1.149   5.402  0.3807 -0.0404 -0.0501
 6634TIP3    H141317   4.146   1.055   5.384 -0.4881 -0.1949  0.7017
 6634TIP3    H241318   4.137   1.190   5.316 -3.1703 -0.7499 -0.1366
 6635TIP3   OH241319   4.585   6.372   3.401  0.3841  0.4612 -0.0902
 6635TIP3    H141320   4.519   6.429   3.441 -0.8994  0.5037 -2.2200
 6635TIP3    H241321   4.576   6.386   3.307  0.5269 -2.7051 -0.6271
 6636TIP3   OH241322   2.700   1.595   5.968  0.0640 -0.5542 -0.4231
 6636TIP3    H141323   2.624   1.618   6.022  0.3275  0.0352 -0.3073
 6636TIP3    H241324   2.757   1.546   6.027  0.9157  1.1431  0.1729
 6637TIP3   OH241325   5.292   2.496   4.968  0.2447 -0.2043 -0.6310
 6637TIP3    H141326   5.379   2.534   4.981  0.7936 -1.7267  0.3240
 6637TIP3    H241327   5.269   2.459   5.053 -2.2620  1.9599 -0.2877
 6638TIP3   OH241328   0.989   3.426  15.664 -0.0961  0.3212 -0.0068
 6638TIP3    H141329   0.937   3.346  15.679 -0.3247  0.8274  2.1228
 6638TIP3    H241330   1.075   3.394  15.639  0.2787 -0.6773  2.3822
 6639TIP3   OH241331   2.895   5.220   0.738 -0.0592 -0.0792  0.0525
 6639TIP3    H141332   2.858   5.269   0.811  1.2173 -0.3733  0.9328
 6639TIP3    H241333   2.883   5.128   0.762 -0.3951 -0.1847 -0.5104
 6640TIP3   OH241334   6.549   4.495  12.141 -0.0943 -0.1770  0.5337
 6640TIP3    H141335   6.519   4.486  12.232  1.9086  2.0058  1.4651
 6640TIP3    H241336   6.594   4.413  12.122  1.6919  0.3214  2.4259
 6641TIP3   OH241337   0.120   5.066   1.458 -0.0975 -0.3981 -0.1265
 6641TIP3    H141338   0.107   5.145   1.510 -0.3415 -0.6852  0.2442
 6641TIP3    H241339   0.204   5.080   1.414 -0.8925  0.7858 -1.3273
 6642TIP3   OH241340   3.003   6.573   3.839 -0.0362 -0.0425 -0.0236
 6642TIP3    H141341   3.053   6.581   3.920  1.1150  0.6655 -0.7976
 6642TIP3    H241342   2.977   6.480   3.837 -1.7063  0.3446  2.0806
 6643TIP3   OH241343   6.305   4.787   4.517 -0.0780 -0.0586 -0.2406
 6643TIP3    H141344   6.387   4.828   4.545 -0.0849 -1.0426  1.2762
 6643TIP3    H241345   6.254   4.778   4.597 -0.5896 -1.8898 -0.7444
 6644TIP3   OH241346   5.740   5.235   0.965 -0.3538 -0.1501 -0.0669
 6644TIP3    H141347   5.656   5.254   0.924 -0.3141  1.1967  0.4418
 6644TIP3    H241348   5.752   5.141   0.953 -2.4757 -0.5854  0.8523
 6645TIP3   OH241349   1.713   0.631   5.881 -0.1801 -0.6150  0.1109
 6645TIP3    H141350   1.789   0.672   5.841 -0.5396  0.0145  0.0635
 6645TIP3    H241351   1.639   0.686   5.854 -0.0043  2.2779  4.9224
 6646TIP3   OH241352   0.820   0.926   2.881  0.2044 -0.1499  0.1452
 6646TIP3    H141353   0.803   1.000   2.823 -2.1027  0.9425  2.1692
 6646TIP3    H241354   0.756   0.860   2.855 -0.0464 -0.1093  0.6520
 6647TIP3   OH241355   1.999   3.978   5.212  0.4249 -0.7120 -0.1564
 6647TIP3    H141356   2.028   3.887   5.206  0.7529 -0.7257  1.5411
 6647TIP3    H241357   2.076   4.030   5.190  1.1882 -0.7931  2.1945
 6648TIP3   OH241358   4.927   1.162  11.215  0.1015  0.0421 -0.7826
 6648TIP3    H141359   4.849   1.133  11.167 -0.8677  0.6852  0.3549
 6648TIP3    H241360   4.954   1.242  11.170 -1.6263  1.4133  0.5248
 6649TIP3   OH241361   6.323   4.195   2.196  1.0687 -0.2276 -0.3153
 6649TIP3    H141362   6.242   4.226   2.157  0.8188 -0.7297 -0.2024
 6649TIP3    H241363   6.315   4.099   2.195  2.3146 -0.3310 -1.7068
 6650TIP3   OH241364   3.982   2.824  14.760 -0.1203  0.5980  0.0513
 6650TIP3    H141365   3.900   2.788  14.726 -0.0480  0.4641  0.0157
 6650TIP3    H241366   4.037   2.838  14.683  0.6420 -1.2245  0.2340
 6651TIP3   OH241367   0.297   0.093   1.896  0.0696 -0.0736 -0.4357
 6651TIP3    H141368   0.206   0.106   1.869  0.0841 -1.5630 -1.2392
 6651TIP3    H241369   0.335   0.040   1.827  1.5666  0.5529 -0.1069
 6652TIP3   OH241370   3.831   2.602   0.773  0.7819 -0.1917 -0.0787
 6652TIP3    H141371   3.805   2.593   0.681 -0.0450 -0.8166  0.2183
 6652TIP3    H241372   3.908   2.546   0.782  1.1003  0.1788 -0.4885
 6653TIP3   OH241373   0.378   6.059   2.013 -0.7269  0.0248  0.6252
 6653TIP3    H141374   0.414   5.971   2.012 -0.6456  0.0689 -0.0900
 6653TIP3    H241375   0.449   6.115   1.982  0.0129  0.6434  3.2570
 6654TIP3   OH241376   1.175   0.166  14.046  0.1961 -0.1845  0.3300
 6654TIP3    H141377   1.207   0.181  14.135  1.4152 -0.4288 -0.0577
 6654TIP3    H241378   1.080   0.172  14.053  0.3095  0.2349  1.5678
 6655TIP3   OH241379   2.061   2.841   1.111 -0.5636  0.1685 -0.1647
 6655TIP3    H141380   2.140   2.860   1.162 -0.5289  1.3570 -0.6410
 6655TIP3    H241381   2.061   2.907   1.042 -1.6450 -0.2159 -0.5383
 6656TIP3   OH241382   3.198   0.688  11.898 -0.7795  0.4982 -0.1159
 6656TIP3    H141383   3.209   0.737  11.980  2.5950  0.8949 -0.7401
 6656TIP3    H241384   3.175   0.755  11.833 -1.9010  0.4013  0.1686
 6657TIP3   OH241385   2.873   1.480  11.257 -0.2221  0.2286  0.6179
 6657TIP3    H141386   2.932   1.554  11.239  1.9858 -1.4729  0.6049
 6657TIP3    H241387   2.849   1.447  11.170 -1.2449  0.9446  0.6227
 6658TIP3   OH241388   0.557   0.542   5.442  0.2924  0.0197 -0.1595
 6658TIP3    H141389   0.489   0.491   5.486 -0.2173  1.6057  0.9237
 6658TIP3    H241390   0.567   0.620   5.495 -0.0162  1.7802 -2.5831
 6659TIP3   OH241391   3.625   4.552  13.427  0.0443  0.3169  0.1816
 6659TIP3    H141392   3.664   4.639  13.441 -0.5092  0.3272  1.8110
 6659TIP3    H241393   3.634   4.508  13.512 -1.6450 -0.4055  0.0114
 6660TIP3   OH241394   2.764   0.535  13.363  0.9430 -0.0951  0.1312
 6660TIP3    H141395   2.710   0.487  13.300 -0.3329  1.0768  0.3142
 6660TIP3    H241396   2.753   0.487  13.445  0.3829 -0.0101  0.1084
 6661TIP3   OH241397   6.743   6.361  15.803 -0.2036 -0.8537 -0.4454
 6661TIP3    H141398   6.704   6.331  15.884 -0.8598  0.5225 -0.2456
 6661TIP3    H241399   6.818   6.415  15.831  0.6328 -1.8344 -0.7853
 6662TIP3   OH241400   3.858   3.652   3.076  0.2837  0.4234 -0.6254
 6662TIP3    H141401   3.840   3.661   2.982 -0.9557 -0.1917 -0.4553
 6662TIP3    H241402   3.953   3.647   3.082  0.3321 -0.4804 -1.9376
 6663TIP3   OH241403   4.112   5.640   5.805 -0.3762 -0.8315 -0.5614
 6663TIP3    H141404   4.177   5.569   5.802 -0.4361 -0.8291 -2.5416
 6663TIP3    H241405   4.130   5.684   5.888  4.3887  1.1715 -2.4237
 6664TIP3   OH241406   1.096   5.379  14.183 -0.0889 -0.1785 -0.1225
 6664TIP3    H141407   1.042   5.427  14.246  1.0984  0.5558  0.3477
 6664TIP3    H241408   1.129   5.446  14.123 -0.7758 -0.8017 -1.2251
 6665TIP3   OH241409   2.247   2.024   3.188  0.7478  0.5992 -0.0625
 6665TIP3    H141410   2.280   1.989   3.105 -1.1687 -1.2891 -0.0614
 6665TIP3    H241411   2.316   2.083   3.218  3.2264 -1.6567 -1.0769
 6666TIP3   OH241412   2.704   2.635   3.068 -0.1933 -0.5966 -0.9683
 6666TIP3    H141413   2.694   2.618   2.975  1.2128 -1.1955 -1.0291
 6666TIP3    H241414   2.620   2.672   3.096 -0.4705 -0.0212 -2.5522
 6667TIP3   OH241415   2.552   6.074  13.899  0.0817  0.2049 -0.3588
 6667TIP3    H141416   2.476   6.113  13.941 -1.1986  0.0892 -2.5152
 6667TIP3    H241417   2.598   6.148  13.859 -0.1075  0.0052 -0.9485
 6668TIP3   OH241418   5.850   0.760   5.439 -0.2298  0.3421 -0.0966
 6668TIP3    H141419   5.815   0.808   5.364 -1.2191  1.0052  0.7668
 6668TIP3    H241420   5.775   0.710   5.472 -0.1035  0.9436  1.1267
 6669TIP3   OH241421   5.013   6.198  12.847  0.1104  0.4535  0.3152
 6669TIP3    H141422   5.100   6.217  12.881 -0.0340  0.4457  0.6885
 6669TIP3    H241423   4.963   6.278  12.864  0.0006  0.3985  0.2488
 6670TIP3   OH241424   4.124   3.986  12.633  0.2506  0.4022  0.3740
 6670TIP3    H141425   4.184   3.941  12.693 -1.1751  0.3884  1.8315
 6670TIP3    H241426   4.168   4.068  12.613  1.5431 -0.3559  0.0268
 6671TIP3   OH241427   1.634   5.903  13.590  0.1069  0.5389 -0.0682
 6671TIP3    H141428   1.685   5.952  13.526 -0.0946  1.2861  0.3325
 6671TIP3    H241429   1.549   5.947  13.592 -0.3523 -0.3085 -0.2747
 6672TIP3   OH241430   1.819   0.946  11.907 -0.2763 -0.0423 -0.2131
 6672TIP3    H141431   1.758   0.878  11.879  0.9413 -0.5535 -1.6425
 6672TIP3    H241432   1.880   0.955  11.835  0.4069  1.6009  0.5484
 6673TIP3   OH241433   0.559   1.948  12.185 -0.4018 -0.1274 -0.3714
 6673TIP3    H141434   0.522   1.971  12.100 -0.2923  0.5530 -0.2461
 6673TIP3    H241435   0.651   1.929  12.167 -0.1616  0.9103 -0.2767
 6674TIP3   OH241436   1.741   5.583  15.148  0.3334  0.7237 -0.7216
 6674TIP3    H141437   1.675   5.535  15.098  0.5126  0.2253 -0.4823
 6674TIP3    H241438   1.713   5.675  15.143 -0.6602  0.4612 -0.1938
 6675TIP3   OH241439   1.211   1.386  11.752 -0.0767 -0.4464  0.1828
 6675TIP3    H141440   1.224   1.454  11.686 -2.1042  1.0018  1.1988
 6675TIP3    H241441   1.274   1.318  11.730  1.0444  1.1553 -1.6933
 6676TIP3   OH241442   0.811   1.754  15.220  0.1495  0.4867  0.1152
 6676TIP3    H141443   0.750   1.684  15.197 -0.0193  0.1983  1.4238
 6676TIP3    H241444   0.791   1.824  15.158 -0.1528 -0.3483 -0.7518
 6677TIP3   OH241445   2.217   5.463  14.318 -0.1035  0.1120 -0.6231
 6677TIP3    H141446   2.273   5.541  14.321  0.7225 -0.5150  0.3453
 6677TIP3    H241447   2.132   5.493  14.351  0.6146  0.2753  1.1125
 6678TIP3   OH241448   4.093   4.278   2.682 -0.3568 -0.6487  0.6550
 6678TIP3    H141449   4.075   4.359   2.634 -2.2593 -0.2810  1.9616
 6678TIP3    H241450   4.163   4.301   2.743  1.6116 -0.9451 -1.4223
 6679TIP3   OH241451   2.458   2.497  11.649  0.0664 -0.4773 -0.0568
 6679TIP3    H141452   2.433   2.530  11.736  0.4194 -1.6189  0.4970
 6679TIP3    H241453   2.544   2.457  11.662  0.5493  0.1930 -1.1510
 6680TIP3   OH241454   3.489   4.218  11.434 -0.5421 -0.0528 -0.0701
 6680TIP3    H141455   3.500   4.299  11.385  1.4903  1.0590  2.1348
 6680TIP3    H241456   3.543   4.154  11.388  0.3674  0.6689 -0.0272
 6681TIP3   OH241457   0.971   3.928  16.507  0.2339  0.2165  0.2866
 6681TIP3    H141458   0.972   3.833  16.497 -1.0538  0.2743 -0.4767
 6681TIP3    H241459   0.927   3.960  16.428 -0.7481  1.3543  1.2773
 6682TIP3   OH241460   1.418   5.138  13.236  0.1109  0.0107  0.2061
 6682TIP3    H141461   1.473   5.214  13.256  0.7113  0.2455 -2.1655
 6682TIP3    H241462   1.339   5.175  13.197  0.5584 -0.5707 -1.2951
 6683TIP3   OH241463   1.259   6.697   4.717  0.4541  0.0425 -0.5936
 6683TIP3    H141464   1.245   6.634   4.646  0.5244  1.2500 -1.7034
 6683TIP3    H241465   1.265   6.644   4.796  1.4784 -1.4151 -1.6399
 6684TIP3   OH241466   1.220   4.962   4.417  0.5747  0.3248 -0.1628
 6684TIP3    H141467   1.281   4.953   4.489 -1.4797  0.1616  1.6110
 6684TIP3    H241468   1.236   5.051   4.383 -0.5032  1.5896  2.4846
 6685TIP3   OH241469   0.475   0.415  15.939 -1.0053 -0.0635 -0.2494
 6685TIP3    H141470   0.408   0.481  15.958 -0.1451  0.6295  0.3932
 6685TIP3    H241471   0.556   0.454  15.970 -0.7301 -2.1572  1.7546
 6686TIP3   OH241472   3.336   1.392   0.259 -0.1938 -0.1999 -0.6931
 6686TIP3    H141473   3.370   1.310   0.293 -0.2775 -0.3532 -0.9773
 6686TIP3    H241474   3.354   1.389   0.165 -2.1240 -0.8531 -1.0661
 6687TIP3   OH241475   2.186   0.765  12.037 -0.3871 -0.1118  0.3036
 6687TIP3    H141476   2.148   0.677  12.034  1.6703 -1.0408  1.0588
 6687TIP3    H241477   2.280   0.751  12.035 -0.0168  2.0461  1.3034
 6688TIP3   OH241478   5.304   1.845  16.834 -0.3103  0.0569  0.1842
 6688TIP3    H141479   5.322   1.821  16.925 -0.1618 -0.9497 -0.1131
 6688TIP3    H241480   5.211   1.824  16.822  0.8237 -4.5754 -1.3734
 6689TIP3   OH241481   6.368   4.047   5.630  0.4598  0.2831 -0.0282
 6689TIP3    H141482   6.435   3.993   5.589 -1.5236 -0.9636 -1.7070
 6689TIP3    H241483   6.366   4.126   5.576 -0.0806 -0.0823 -0.5420
 6690TIP3   OH241484   3.707   6.352   4.532 -0.3160 -0.1642 -0.4063
 6690TIP3    H141485   3.768   6.335   4.460 -0.5356 -0.6060 -0.4901
 6690TIP3    H241486   3.725   6.442   4.558  2.9617 -1.4034  2.0287
 6691TIP3   OH241487   0.545   6.605  16.281 -0.5837 -0.7919  0.3342
 6691TIP3    H141488   0.488   6.682  16.285 -0.8699 -0.9495 -0.6024
 6691TIP3    H241489   0.633   6.640  16.294 -0.4132  0.0872 -2.6513
 6692TIP3   OH241490   0.042   2.071  17.142 -0.5333  0.4507  0.0219
 6692TIP3    H141491   0.036   2.161  17.107  1.9094  0.0308 -1.5714
 6692TIP3    H241492   0.110   2.076  17.209 -1.5345  0.0952  1.0864
 6693TIP3   OH241493   5.587   2.873  15.796  0.2481 -0.2847  0.1274
 6693TIP3    H141494   5.524   2.816  15.751  1.4978 -0.7034 -1.1342
 6693TIP3    H241495   5.551   2.961  15.788  0.7930 -0.2575 -2.3606
 6694TIP3   OH241496   5.155   6.709   2.334  0.3055 -0.0480 -0.0997
 6694TIP3    H141497   5.194   6.722   2.420  0.7439 -1.0139 -0.1436
 6694TIP3    H241498   5.105   6.789   2.318  2.1443  1.1709  0.0104
 6695TIP3   OH241499   1.767   5.940  15.314 -0.2472  0.0360 -0.2140
 6695TIP3    H141500   1.675   5.931  15.339 -0.1554  1.4907  0.7167
 6695TIP3    H241501   1.791   6.029  15.342  1.4108 -0.2940 -0.5242
 6696TIP3   OH241502   4.672   4.255   4.435  0.1422  0.5827 -0.8621
 6696TIP3    H141503   4.641   4.240   4.524 -0.0606  4.2224 -0.2329
 6696TIP3    H241504   4.604   4.218   4.379 -0.6340 -0.0880  0.5060
 6697TIP3   OH241505   2.268   0.558   1.806  0.5343  0.2055  0.0452
 6697TIP3    H141506   2.228   0.510   1.733  0.3129  1.0758 -0.4044
 6697TIP3    H241507   2.359   0.569   1.781  0.4551  0.5168 -0.1066
 6698TIP3   OH241508   2.537   4.886  14.336 -0.0786  0.3084  0.4990
 6698TIP3    H141509   2.486   4.805  14.336  1.1379 -0.4687  0.7729
 6698TIP3    H241510   2.519   4.925  14.421 -0.4587  0.2022  0.4711
 6699TIP3   OH241511   2.233   0.525   0.071 -0.6308  0.4173 -0.1679
 6699TIP3    H141512   2.257   0.597   0.128  0.1871 -0.2953  0.4061
 6699TIP3    H241513   2.137   0.522   0.073 -0.5675 -1.2524  3.2491
 6700TIP3   OH241514   5.292   2.591   2.625  0.0562 -0.2588 -0.1760
 6700TIP3    H141515   5.259   2.589   2.715 -0.9261  1.6533 -0.4675
 6700TIP3    H241516   5.384   2.618   2.634 -0.4743  1.4930  0.1608
 6701TIP3   OH241517   5.205   3.066   4.776 -0.2660  0.5863 -0.0432
 6701TIP3    H141518   5.172   3.092   4.690  1.2220  1.1654 -0.4429
 6701TIP3    H241519   5.128   3.031   4.821 -1.1656  0.7640 -1.4158
 6702TIP3   OH241520   1.516   4.243   2.251 -0.8250 -0.6118  0.1694
 6702TIP3    H141521   1.586   4.196   2.207  0.5624  2.5009 -1.1117
 6702TIP3    H241522   1.548   4.258   2.340 -0.1285  0.2448 -0.2236
 6703TIP3   OH241523   2.199   0.700  10.505  0.1185 -0.5436 -0.3073
 6703TIP3    H141524   2.220   0.713  10.597  0.5556 -0.4751 -0.4169
 6703TIP3    H241525   2.150   0.778  10.480 -0.2015 -0.6666 -0.0760
 6704TIP3   OH241526   3.745   2.459  13.753  0.2306  0.4496 -0.2493
 6704TIP3    H141527   3.753   2.365  13.735  1.0975  0.7183 -1.3236
 6704TIP3    H241528   3.680   2.489  13.689  3.2463  1.3918 -2.9878
 6705TIP3   OH241529   4.002   1.276  11.133  0.2888  0.2693  0.2010
 6705TIP3    H141530   4.075   1.247  11.188  0.5352  0.7347  0.1257
 6705TIP3    H241531   4.044   1.319  11.058 -0.0452 -0.4309 -0.3966
 6706TIP3   OH241532   6.464   0.618   5.346  0.3612 -0.0099  0.1955
 6706TIP3    H141533   6.433   0.654   5.263  2.3033 -0.5684 -0.7935
 6706TIP3    H241534   6.558   0.634   5.345  0.5135 -0.7101  1.9656
 6707TIP3   OH241535   5.241   5.080  13.419 -0.7235  0.5378  0.3826
 6707TIP3    H141536   5.295   5.090  13.341  1.8738  0.1060  2.0868
 6707TIP3    H241537   5.255   5.160  13.469 -1.0517  0.0810  1.2210
 6708TIP3   OH241538   6.164   2.280  13.875  0.2289  0.4119  0.2472
 6708TIP3    H141539   6.104   2.326  13.816  1.1726  0.4139 -0.7296
 6708TIP3    H241540   6.141   2.313  13.963 -1.7528 -0.2192 -0.0027
 6709TIP3   OH241541   4.665   1.862  16.747  0.3608 -0.4957  0.3340
 6709TIP3    H141542   4.632   1.774  16.765  2.0161 -1.7669 -2.5632
 6709TIP3    H241543   4.653   1.873  16.653 -0.9078  2.8701  0.8282
 6710TIP3   OH241544   1.921   0.954  16.012  0.0499 -0.0768 -0.4758
 6710TIP3    H141545   1.984   0.893  15.973 -0.6548 -0.4631 -1.0446
 6710TIP3    H241546   1.934   0.945  16.106  1.9060  0.9982 -0.5998
 6711TIP3   OH241547   0.466   3.736  15.923 -0.7128 -0.5025  0.3451
 6711TIP3    H141548   0.461   3.665  15.859 -0.4918 -0.3913  0.2035
 6711TIP3    H241549   0.547   3.782  15.902 -1.4898  0.5697 -0.3845
 6712TIP3   OH241550   3.734   0.874   2.268 -0.2119  0.1558  1.0083
 6712TIP3    H141551   3.789   0.941   2.308  0.2662  0.8615 -0.7961
 6712TIP3    H241552   3.666   0.923   2.223  0.3217 -0.5388 -0.5824
 6713TIP3   OH241553   0.536   2.755   3.513 -1.1620  0.0078  0.0240
 6713TIP3    H141554   0.502   2.702   3.586 -1.3131  0.8611  0.5782
 6713TIP3    H241555   0.618   2.792   3.547  0.3443 -1.9955 -1.2840
 6714TIP3   OH241556   3.734   3.556  12.286  0.6679  0.2366 -0.7286
 6714TIP3    H141557   3.758   3.515  12.369 -0.6130 -0.9733 -0.9429
 6714TIP3    H241558   3.816   3.596  12.255  2.2718 -3.1306 -1.0593
 6715TIP3   OH241559   5.612   0.557   5.014 -0.0196 -0.2027 -1.0011
 6715TIP3    H141560   5.694   0.599   5.039 -1.0816  0.7654  0.9755
 6715TIP3    H241561   5.614   0.473   5.060  0.4346 -0.7409 -1.9912
 6716TIP3   OH241562   6.540   4.753  15.426  0.2080  0.1227  0.0043
 6716TIP3    H141563   6.630   4.724  15.443  0.3885  1.3701  1.3287
 6716TIP3    H241564   6.549   4.816  15.354  0.1416 -1.1319 -1.1209
 6717TIP3   OH241565   6.668   3.434  17.022 -0.2817 -0.3438 -0.4440
 6717TIP3    H141566   6.711   3.463  16.942 -1.0900  1.3678 -0.2945
 6717TIP3    H241567   6.584   3.399  16.993 -0.7971  0.7675 -0.3001
 6718TIP3   OH241568   3.467   2.762  11.734  0.0417  0.3014 -0.0840
 6718TIP3    H141569   3.492   2.674  11.706 -1.3384 -0.5895  1.4409
 6718TIP3    H241570   3.497   2.769  11.824  1.6963  2.0557 -0.7151
 6719TIP3   OH241571   5.806   5.430   4.838  0.5014  0.6148  0.3939
 6719TIP3    H141572   5.891   5.391   4.857 -0.6470 -2.1712 -0.0217
 6719TIP3    H241573   5.815   5.465   4.750  0.3604 -2.2603 -0.8021
 6720TIP3   OH241574   2.035   1.744  14.218 -0.1643 -0.2186  0.3741
 6720TIP3    H141575   2.079   1.775  14.297  0.6378  0.7560 -0.4464
 6720TIP3    H241576   2.071   1.797  14.148 -0.0573 -1.8324 -0.8159
 6721TIP3   OH241577   2.239   1.052   0.596  0.3656 -0.5776  0.0096
 6721TIP3    H141578   2.178   1.044   0.669 -0.9560  1.5402 -0.7913
 6721TIP3    H241579   2.192   1.015   0.521  0.5394 -0.0331 -0.3713
 6722TIP3   OH241580   4.167   2.538  16.198 -0.2891  0.0574 -0.0504
 6722TIP3    H141581   4.135   2.571  16.283 -1.8670  1.7022 -1.2341
 6722TIP3    H241582   4.154   2.443  16.203 -1.1634  0.2236  1.2383
 6723TIP3   OH241583   4.703   0.204  11.639 -0.0796  0.0540 -0.3432
 6723TIP3    H141584   4.779   0.253  11.607 -1.0172  1.5267 -0.3593
 6723TIP3    H241585   4.658   0.265  11.697  0.3575 -1.7967  2.0611
 6724TIP3   OH241586   4.187   4.332  11.516 -0.5448 -0.4390 -0.0223
 6724TIP3    H141587   4.151   4.244  11.502 -0.1179 -0.5825 -0.2641
 6724TIP3    H241588   4.117   4.392  11.492 -1.2150 -0.7263  1.2090
 6725TIP3   OH241589   0.354   4.586  15.204 -0.3816  0.2627 -0.2687
 6725TIP3    H141590   0.419   4.652  15.224 -0.3950 -0.5296  2.5217
 6725TIP3    H241591   0.270   4.626  15.227 -0.5769 -0.0003 -0.5064
 6726TIP3   OH241592   1.640   0.377   5.070  0.2507 -0.1153 -0.0748
 6726TIP3    H141593   1.703   0.437   5.109 -0.0895  0.6168 -0.6271
 6726TIP3    H241594   1.643   0.397   4.976 -0.1454 -0.6930 -0.2137
 6727TIP3   OH241595   4.944   1.514   2.765 -0.1359  0.3523 -0.1282
 6727TIP3    H141596   4.901   1.598   2.748  1.6703  1.2984 -0.0843
 6727TIP3    H241597   5.006   1.532   2.835  0.6136 -0.9071 -0.4567
 6728TIP3   OH241598   6.602   4.191   5.325 -0.0291  0.2583  0.5620
 6728TIP3    H141599   6.594   4.208   5.231  0.0844 -0.0528  0.4925
 6728TIP3    H241600   6.562   4.104   5.337  1.0136 -0.2307  0.6033
 6729TIP3   OH241601   1.746   0.341  15.348  0.0388  0.2623 -0.5251
 6729TIP3    H141602   1.830   0.369  15.386 -0.9618  1.5679  0.8039
 6729TIP3    H241603   1.686   0.412  15.369 -1.3075 -0.4505 -1.8782
 6730TIP3   OH241604   4.485   3.356  15.628  0.1651  0.0120 -0.3788
 6730TIP3    H141605   4.459   3.319  15.543  0.7651  0.2331 -0.6622
 6730TIP3    H241606   4.540   3.431  15.605 -0.3913  0.5961  0.2021
 6731TIP3   OH241607   0.694   4.781   0.490 -0.0027  0.4779  0.2083
 6731TIP3    H141608   0.608   4.789   0.450  0.5662 -1.2976 -1.4886
 6731TIP3    H241609   0.678   4.783   0.584 -2.0259 -0.7911 -0.0765
 6732TIP3   OH241610   3.000   3.985   2.295  0.0273  0.0922 -0.0713
 6732TIP3    H141611   2.932   4.039   2.254 -0.0676  1.3581  1.6932
 6732TIP3    H241612   3.014   4.025   2.381  1.6658 -1.2880  0.3352
 6733TIP3   OH241613   2.037   0.670   4.889 -0.0777  0.6229  0.3950
 6733TIP3    H141614   2.029   0.735   4.959 -0.1798 -0.3372  1.2976
 6733TIP3    H241615   2.109   0.702   4.835  0.6937  0.8431  1.5365
 6734TIP3   OH241616   1.941   4.632  15.738 -0.6269  0.4752  0.2453
 6734TIP3    H141617   1.948   4.717  15.781  0.9457  0.4143  0.1443
 6734TIP3    H241618   1.851   4.629  15.705 -1.5028  1.0189  2.4913
 6735TIP3   OH241619   0.096   1.765  11.060 -0.0269  0.3894 -0.0880
 6735TIP3    H141620   0.042   1.686  11.053 -2.0922  1.7533 -0.0220
 6735TIP3    H241621   0.133   1.775  10.972 -2.6859  1.3409 -1.1539
 6736TIP3   OH241622   3.515   2.918  13.105  0.1053  0.0983  0.3374
 6736TIP3    H141623   3.457   2.913  13.181  1.3300  1.3570  1.3687
 6736TIP3    H241624   3.597   2.954  13.139  1.3125 -1.1105 -1.2155
 6737TIP3   OH241625   4.632   1.048  11.689 -0.3825  0.2065  0.2636
 6737TIP3    H141626   4.662   1.076  11.602  0.5039  1.0956  0.8407
 6737TIP3    H241627   4.572   0.975  11.672 -0.6422  0.7293 -1.1229
 6738TIP3   OH241628   6.740   0.229   3.396  0.2484  0.3718 -0.2061
 6738TIP3    H141629   6.690   0.156   3.431  2.2478 -1.6443 -1.4920
 6738TIP3    H241630   6.685   0.306   3.413 -3.4995 -1.8092 -2.0617
 6739TIP3   OH241631   6.333   4.875  13.963  0.3741  0.0674  0.5459
 6739TIP3    H141632   6.355   4.808  14.027 -0.8084 -0.8910 -0.0176
 6739TIP3    H241633   6.377   4.848  13.882  0.2223  0.1854  0.4223
 6740TIP3   OH241634   2.431   5.083  16.274 -0.1540  0.1485 -0.0745
 6740TIP3    H141635   2.431   4.987  16.277 -1.7724  0.1632  0.8833
 6740TIP3    H241636   2.362   5.105  16.213  2.9622  0.6932 -3.5970
 6741TIP3   OH241637   6.225   0.566  12.913  0.3926  0.3781  0.6916
 6741TIP3    H141638   6.195   0.500  12.975  0.1643  0.4672  0.6752
 6741TIP3    H241639   6.226   0.520  12.829 -0.5950  0.6381  0.5330
 6742TIP3   OH241640   5.865   3.178   5.324 -0.3601 -0.1158  0.0738
 6742TIP3    H141641   5.958   3.197   5.335 -0.6615  0.4215  1.8274
 6742TIP3    H241642   5.829   3.255   5.280 -0.0849 -0.0970 -0.1175
 6743TIP3   OH241643   4.325   1.077  15.604 -0.4108 -0.3218  0.4843
 6743TIP3    H141644   4.247   1.033  15.571 -0.3196  0.8462 -1.3793
 6743TIP3    H241645   4.335   1.153  15.547  0.8298  0.7558  2.0925
 6744TIP3   OH241646   2.247   2.779   3.861 -0.1630 -0.0389  0.3283
 6744TIP3    H141647   2.172   2.779   3.801 -0.8055  0.4164  1.1270
 6744TIP3    H241648   2.229   2.850   3.922  0.7436 -0.1725  0.7631
 6745TIP3   OH241649   0.834   2.922  15.818 -0.5342  0.0537  0.9639
 6745TIP3    H141650   0.906   2.982  15.836  1.0582 -1.2185 -1.0212
 6745TIP3    H241651   0.776   2.931  15.894 -0.8827  4.8685  0.2327
 6746TIP3   OH241652   6.332   4.393   6.174 -0.2851 -0.5114 -0.0211
 6746TIP3    H141653   6.325   4.310   6.222 -0.1691 -0.1741  0.5865
 6746TIP3    H241654   6.426   4.401   6.155 -0.3379 -0.6700 -0.3473
 6747TIP3   OH241655   6.564   0.834  13.402  0.3252 -0.0771 -0.1788
 6747TIP3    H141656   6.656   0.861  13.411  0.6223 -1.1317 -0.0389
 6747TIP3    H241657   6.565   0.766  13.335 -0.5588  0.8989 -1.2139
 6748TIP3   OH241658   0.701   5.752  14.899 -0.3068  0.4919  0.5268
 6748TIP3    H141659   0.608   5.761  14.918 -0.3667 -1.3861  1.2637
 6748TIP3    H241660   0.721   5.660  14.919  1.7336  0.9035  0.5393
 6749TIP3   OH241661   6.234   2.287  13.493 -0.0385  0.6129  0.0746
 6749TIP3    H141662   6.224   2.371  13.539  0.2701  0.3885  0.5576
 6749TIP3    H241663   6.207   2.305  13.403  0.4359  1.3314  0.0811
 6750TIP3   OH241664   2.509   6.550  11.615 -0.0810  0.7870 -0.1127
 6750TIP3    H141665   2.454   6.546  11.693  2.3930  0.9162  1.7026
 6750TIP3    H241666   2.525   6.644  11.602  0.3108  0.7155 -0.1673
 6751TIP3   OH241667   6.600   2.884   0.782  0.0345  0.8072 -0.0240
 6751TIP3    H141668   6.681   2.929   0.760  0.4565 -0.0590 -0.2641
 6751TIP3    H241669   6.620   2.837   0.863 -0.7143  1.8649  0.7902
 6752TIP3   OH241670   1.027   5.491  15.798 -0.0969 -0.5623 -0.2200
 6752TIP3    H141671   0.977   5.412  15.776  0.8483 -1.2348  0.0333
 6752TIP3    H241672   0.978   5.530  15.870 -0.9399 -0.5534 -0.7890
 6753TIP3   OH241673   0.069   5.104   6.318 -0.1141  0.4072  0.2194
 6753TIP3    H141674   0.026   5.056   6.388  0.1921 -0.9002 -0.4701
 6753TIP3    H241675   0.161   5.110   6.345  0.4380 -1.9197 -0.9967
 6754TIP3   OH241676   3.272   5.488  15.735 -0.4339  0.1696  0.2336
 6754TIP3    H141677   3.207   5.418  15.733 -0.3885  0.1344 -0.0892
 6754TIP3    H241678   3.267   5.524  15.824  0.1078 -0.7776  0.6582
 6755TIP3   OH241679   0.247   0.498   2.737  0.0019 -0.6409 -0.8447
 6755TIP3    H141680   0.273   0.545   2.658 -0.3570  0.0056 -0.5851
 6755TIP3    H241681   0.190   0.560   2.784 -1.1279 -1.6302 -0.8832
 6756TIP3   OH241682   2.962   0.913  13.924  0.0803 -0.2227  0.0502
 6756TIP3    H141683   3.005   0.830  13.905 -0.6023 -0.8759  1.2397
 6756TIP3    H241684   2.982   0.930  14.016 -0.5415  0.4641  0.0683
 6757TIP3   OH241685   2.956   0.370  16.153  0.2356  0.2467 -0.3945
 6757TIP3    H141686   2.977   0.422  16.075  2.4494 -1.5107 -1.0267
 6757TIP3    H241687   2.903   0.297  16.120  0.6743 -0.1709 -0.1861
 6758TIP3   OH241688   2.419   1.902   2.306  0.0283 -0.1808 -0.0558
 6758TIP3    H141689   2.428   1.991   2.341 -0.6353  0.2607 -0.9734
 6758TIP3    H241690   2.327   1.880   2.318 -0.0078 -0.3859 -0.6568
 6759TIP3   OH241691   3.697   2.325  16.310  0.6095 -0.2440  0.1623
 6759TIP3    H141692   3.712   2.364  16.224  0.4506  0.3054  0.3854
 6759TIP3    H241693   3.780   2.282  16.331  1.2501  1.1452  0.5308
 6760TIP3   OH241694   4.607   1.194  13.399  0.1800  0.2410 -1.1003
 6760TIP3    H141695   4.647   1.275  13.431 -0.8476  0.9600 -1.5830
 6760TIP3    H241696   4.672   1.126  13.416  0.6587  1.0047  0.2417
 6761TIP3   OH241697   2.376   2.251  14.357  0.1927  0.4676  0.2719
 6761TIP3    H141698   2.338   2.195  14.289  1.9238  0.2458 -0.5517
 6761TIP3    H241699   2.392   2.191  14.431  1.2752  0.0150 -0.3099
 6762TIP3   OH241700   5.782   1.195   3.025  0.2397  0.4502 -0.0024
 6762TIP3    H141701   5.762   1.146   2.945 -1.1689 -0.2897  0.7899
 6762TIP3    H241702   5.837   1.267   2.995  0.3341 -0.2319 -1.5401
 6763TIP3   OH241703   1.912   4.350  13.234  0.2389 -0.2853  0.4535
 6763TIP3    H141704   1.897   4.312  13.148 -0.3231 -0.7589  0.7664
 6763TIP3    H241705   1.945   4.438  13.215  3.9083 -1.7373 -0.3201
 6764TIP3   OH241706   5.839   5.039  16.393  0.1645 -0.0358  0.0436
 6764TIP3    H141707   5.905   5.100  16.426 -0.5268 -0.4283  2.2231
 6764TIP3    H241708   5.758   5.090  16.391  0.3645  0.2418 -1.9530
 6765TIP3   OH241709   5.560   3.416  15.748 -0.0851  0.0209 -0.7052
 6765TIP3    H141710   5.632   3.439  15.806 -0.2238  0.7799 -0.8242
 6765TIP3    H241711   5.601   3.398  15.664  0.0517 -0.4155 -0.5444
 6766TIP3   OH241712   6.638   6.272   2.480 -0.0046  0.2297  0.3420
 6766TIP3    H141713   6.730   6.290   2.498  0.3494  0.4754 -1.5590
 6766TIP3    H241714   6.592   6.352   2.509  0.6639  1.0703 -0.8688
 6767TIP3   OH241715   4.679   1.627   1.631  0.0192  0.2407  0.0678
 6767TIP3    H141716   4.680   1.661   1.720 -0.5462  1.3669 -0.3578
 6767TIP3    H241717   4.665   1.532   1.642  1.4386  0.1504  1.2296
 6768TIP3   OH241718   4.415   5.924  10.767 -0.1472 -0.4994 -0.2445
 6768TIP3    H141719   4.361   6.002  10.752 -1.0192 -1.1002 -0.3241
 6768TIP3    H241720   4.493   5.937  10.713 -1.0828 -0.4557 -1.6102
 6769TIP3   OH241721   4.673   1.339   1.637 -0.2147 -0.1585  0.1460
 6769TIP3    H141722   4.705   1.259   1.598 -0.6467  0.1080 -0.7701
 6769TIP3    H241723   4.612   1.310   1.705  0.0679 -0.6077  0.2090
 6770TIP3   OH241724   3.097   5.239  13.352  0.1161  0.5667  0.0293
 6770TIP3    H141725   3.067   5.242  13.261  0.6662  1.4502 -0.1210
 6770TIP3    H241726   3.055   5.315  13.393  0.3393  0.4997  0.3766
 6771TIP3   OH241727   2.340   0.147  15.062  0.1699 -0.0419 -0.1473
 6771TIP3    H141728   2.262   0.118  15.110 -0.7300  1.8475 -0.4097
 6771TIP3    H241729   2.321   0.128  14.970  0.6018 -0.8167 -0.0844
 6772TIP3   OH241730   3.762   4.623   4.611  0.6766 -0.0122 -0.2832
 6772TIP3    H141731   3.837   4.682   4.605 -0.8560  2.0394  0.3385
 6772TIP3    H241732   3.714   4.636   4.529  0.8251 -1.1068 -0.5551
 6773TIP3   OH241733   3.445   6.278   5.673 -0.0850  0.4626 -0.6018
 6773TIP3    H141734   3.521   6.247   5.723 -0.0402  0.7460 -0.4972
 6773TIP3    H241735   3.482   6.319   5.595 -0.1956 -1.0533 -1.4695
 6774TIP3   OH241736   1.009   1.076   4.858  0.0596 -0.7490  0.1710
 6774TIP3    H141737   0.986   1.105   4.946  0.2029 -0.3905  0.0929
 6774TIP3    H241738   1.086   1.020   4.870 -1.2475 -2.4980  0.5050
 6775TIP3   OH241739   0.559   4.962   4.610  0.2390  0.4744  0.5579
 6775TIP3    H141740   0.539   5.020   4.537 -2.4969 -1.9213 -0.6804
 6775TIP3    H241741   0.630   4.906   4.578 -0.6255 -0.2447 -0.1532
 6776TIP3   OH241742   6.579   2.043  14.893  0.6981 -0.0356 -0.3866
 6776TIP3    H141743   6.503   1.985  14.891  0.3089  0.3924  1.0998
 6776TIP3    H241744   6.652   1.989  14.863  0.2110 -1.0940  0.3079
 6777TIP3   OH241745   4.201   2.228   1.438 -0.4671 -0.7334  0.1155
 6777TIP3    H141746   4.210   2.321   1.417 -1.5771 -0.4887  0.6976
 6777TIP3    H241747   4.107   2.211   1.431 -0.2108 -1.9637 -0.6106
 6778TIP3   OH241748   5.045   4.271   2.478 -0.8460 -0.6958  0.4392
 6778TIP3    H141749   5.052   4.221   2.559  0.5313  0.2485  0.9070
 6778TIP3    H241750   5.075   4.210   2.410  0.5368 -0.6127  0.9701
 6779TIP3   OH241751   5.006   5.656  14.788 -0.2683  0.2225  0.0923
 6779TIP3    H141752   5.036   5.672  14.878  0.0297 -0.6741  0.1588
 6779TIP3    H241753   4.911   5.657  14.795 -0.2462  0.1583  0.4197
 6780TIP3   OH241754   1.489   1.582  16.172  0.2698 -0.0666  0.4588
 6780TIP3    H141755   1.520   1.613  16.257 -0.7813 -0.0659  0.8474
 6780TIP3    H241756   1.394   1.589  16.177  0.1267 -1.3460 -0.2212
 6781TIP3   OH241757   4.105   5.620  12.196 -0.4022 -0.1864  0.1337
 6781TIP3    H141758   4.155   5.651  12.121 -0.3584  0.9971  0.6314
 6781TIP3    H241759   4.019   5.598  12.161  0.3239 -1.8240 -0.6546
 6782TIP3   OH241760   3.858   6.130   1.129 -0.1236 -0.2378  0.2840
 6782TIP3    H141761   3.800   6.122   1.204 -1.6786 -0.5069 -0.9071
 6782TIP3    H241762   3.818   6.199   1.075  1.3370  0.4349  0.0248
 6783TIP3   OH241763   5.783   0.639   3.962  0.1294  0.1669  0.0627
 6783TIP3    H141764   5.776   0.734   3.976 -1.5034  0.2739 -1.3142
 6783TIP3    H241765   5.855   0.630   3.900  0.1163  0.5442 -0.0119
 6784TIP3   OH241766   0.180   4.281   2.514  0.2744 -0.4884  0.4334
 6784TIP3    H141767   0.136   4.300   2.431 -1.3797  0.2077  1.4558
 6784TIP3    H241768   0.263   4.330   2.509 -0.1180  0.0798 -0.5267
 6785TIP3   OH241769   2.796   1.013   4.947 -0.0112  0.8181 -0.5037
 6785TIP3    H141770   2.737   1.006   5.021  0.7958 -0.1907  0.0573
 6785TIP3    H241771   2.744   0.985   4.872 -0.1130 -0.5466  0.0604
 6786TIP3   OH241772   6.035   2.261  12.628 -0.2389  0.2656  0.0392
 6786TIP3    H141773   5.978   2.332  12.658  0.4968  0.5410  0.8008
 6786TIP3    H241774   6.122   2.301  12.624  0.3741 -0.8646  1.5408
 6787TIP3   OH241775   2.977   5.314  13.130 -0.1735 -0.2517 -0.0806
 6787TIP3    H141776   2.954   5.352  13.045 -1.8539 -1.5611 -0.2291
 6787TIP3    H241777   2.927   5.364  13.194 -0.7373 -0.7957 -0.0874
 6788TIP3   OH241778   2.576   3.843   0.549  0.1276  0.0393 -0.4808
 6788TIP3    H141779   2.516   3.797   0.490  0.0748 -0.2288 -0.2194
 6788TIP3    H241780   2.608   3.917   0.497  0.3353 -0.3775 -0.9574
 6789TIP3   OH241781   2.440   1.711  11.620  0.1578 -0.4073 -0.8670
 6789TIP3    H141782   2.429   1.620  11.648  1.1927 -0.4842 -0.7112
 6789TIP3    H241783   2.519   1.741  11.665  1.0469 -0.1038 -2.5908
 6790TIP3   OH241784   1.363   1.311   5.487 -0.2720  0.0125  0.5280
 6790TIP3    H141785   1.421   1.352   5.423 -0.5338 -1.2211 -0.5190
 6790TIP3    H241786   1.401   1.334   5.572  0.6352  0.8448 -0.1001
 6791TIP3   OH241787   5.977   1.005   4.576 -0.1005  0.0476  0.4424
 6791TIP3    H141788   5.957   1.097   4.591 -1.5427 -0.3492  1.0769
 6791TIP3    H241789   6.073   1.001   4.574 -0.0281  1.6328 -0.1592
 6792TIP3   OH241790   0.665   6.704  13.111 -0.2421 -0.2455  0.5408
 6792TIP3    H141791   0.611   6.745  13.179  0.9276 -1.2178  2.0846
 6792TIP3    H241792   0.753   6.702  13.148  0.2932 -1.3964 -0.7391
 6793TIP3   OH241793   3.153   1.934   0.524 -0.0233  0.0062  0.2678
 6793TIP3    H141794   3.139   1.992   0.599  1.9822  0.7032  0.1378
 6793TIP3    H241795   3.121   1.984   0.449  1.8797  1.0903  0.1292
 6794TIP3   OH241796   1.445   2.595   4.881 -0.1441 -0.0407 -0.2370
 6794TIP3    H141797   1.455   2.587   4.787 -2.1637  0.1430 -0.4863
 6794TIP3    H241798   1.535   2.594   4.915  0.6278  0.5392 -2.1949
 6795TIP3   OH241799   6.701   2.665   3.194 -0.0773 -0.3061  0.6658
 6795TIP3    H141800   6.728   2.703   3.277 -2.7251  1.5806  0.7489
 6795TIP3    H241801   6.620   2.619   3.214 -1.6833  1.6280 -1.1291
 6796TIP3   OH241802   2.357   6.562  13.764 -0.0750  0.2493 -0.0024
 6796TIP3    H141803   2.390   6.538  13.677 -1.1508 -2.7391  0.3401
 6796TIP3    H241804   2.262   6.565  13.754 -0.1374  1.2268  0.7731
 6797TIP3   OH241805   5.585   2.091  16.207 -0.2244  0.2903 -0.1139
 6797TIP3    H141806   5.642   2.166  16.226 -0.5393  0.4797  0.0903
 6797TIP3    H241807   5.502   2.131  16.178 -1.4374  0.0928  2.9115
 6798TIP3   OH241808   3.343   2.147   0.620  0.4438 -0.2386 -0.4489
 6798TIP3    H141809   3.287   2.135   0.697  0.8991  0.3875 -0.0076
 6798TIP3    H241810   3.420   2.094   0.638 -0.3083 -1.6737 -1.3821
 6799TIP3   OH241811   1.363   3.861  14.776  0.4193  0.0476 -0.0805
 6799TIP3    H141812   1.377   3.777  14.734  3.1645  0.0140  0.7941
 6799TIP3    H241813   1.377   3.926  14.707 -1.2833 -0.1796 -0.6548
 6800TIP3   OH241814   2.141   0.742   3.550  0.6089 -0.1205 -0.3723
 6800TIP3    H141815   2.065   0.790   3.516  0.4397  2.1127  2.9101
 6800TIP3    H241816   2.217   0.786   3.511  0.3697  1.6688  1.0713
 6801TIP3   OH241817   1.979   6.349  15.270  0.3514  1.2261 -0.2068
 6801TIP3    H141818   2.029   6.369  15.349  0.8210  1.4510 -0.5522
 6801TIP3    H241819   1.887   6.356  15.297  0.5043  0.5448  0.4991
 6802TIP3   OH241820   1.549   6.649   5.498 -0.4931 -0.1620  0.3110
 6802TIP3    H141821   1.615   6.711   5.466 -2.2870  1.8201  0.3465
 6802TIP3    H241822   1.469   6.700   5.503 -1.8158 -2.2706  1.2802
 6803TIP3   OH241823   0.159   4.317   1.248  0.7114  0.1449  0.1838
 6803TIP3    H141824   0.247   4.315   1.211  0.7469  2.2364  0.0754
 6803TIP3    H241825   0.102   4.332   1.173  0.4288  0.5668  0.4805
 6804TIP3   OH241826   3.491   3.845   2.329 -0.0708  0.0915 -0.7830
 6804TIP3    H141827   3.465   3.810   2.414  3.9118  1.1013  0.9423
 6804TIP3    H241828   3.409   3.875   2.290 -2.0786 -1.0233  2.3809
 6805TIP3   OH241829   1.195   2.184   4.042  0.2947  0.4537 -0.3035
 6805TIP3    H141830   1.105   2.216   4.030  0.5960  2.0099  1.3144
 6805TIP3    H241831   1.247   2.234   3.979  0.2610  0.6727 -0.1572
 6806TIP3   OH241832   3.644   0.103   2.448 -0.0602 -0.0430 -0.1005
 6806TIP3    H141833   3.653   0.115   2.353  1.0387  1.7317  0.2049
 6806TIP3    H241834   3.581   0.170   2.474  0.3140  0.0536  0.5481
 6807TIP3   OH241835   3.981   1.637  12.939 -0.1408 -0.5254  0.7211
 6807TIP3    H141836   3.899   1.686  12.944  0.1712 -0.0662  1.5788
 6807TIP3    H241837   4.028   1.676  12.865 -0.3187 -0.1887  0.7831
 6808TIP3   OH241838   4.044   6.407  13.222 -0.4159  0.2091 -0.2137
 6808TIP3    H141839   4.067   6.450  13.140 -0.0901 -0.6281 -0.5747
 6808TIP3    H241840   3.949   6.398  13.219 -0.5363  1.3742  0.1084
 6809TIP3   OH241841   5.188   4.121  15.396  0.8882  0.0111 -0.5069
 6809TIP3    H141842   5.155   4.120  15.306  0.9173 -1.0568 -0.5192
 6809TIP3    H241843   5.111   4.100  15.449  0.5509  2.0331 -0.1501
 6810TIP3   OH241844   3.656   6.257  15.402 -0.1478  0.5518  0.0539
 6810TIP3    H141845   3.709   6.190  15.358 -1.1863 -0.8907  0.9673
 6810TIP3    H241846   3.622   6.214  15.480 -0.3437  2.3406  0.9846
 6811TIP3   OH241847   2.803   5.485   4.749 -0.0970 -0.4095  0.0818
 6811TIP3    H141848   2.840   5.541   4.681  0.4838  0.0126  0.7325
 6811TIP3    H241849   2.734   5.539   4.789  1.1835  0.2842  1.4322
 6812TIP3   OH241850   5.687   2.668  15.990 -0.1061 -0.8697 -0.2645
 6812TIP3    H141851   5.653   2.744  15.941 -1.0938 -0.4822  0.9790
 6812TIP3    H241852   5.781   2.683  15.995 -0.1433 -0.3260 -1.0380
 6813TIP3   OH241853   4.891   4.654  11.335  0.4620  0.1246 -0.4485
 6813TIP3    H141854   4.835   4.705  11.277  0.6797 -0.0183 -0.7863
 6813TIP3    H241855   4.895   4.567  11.294  2.4204  0.6421 -1.4398
 6814TIP3   OH241856   4.539   3.465   4.616  0.1767 -0.2695 -0.8611
 6814TIP3    H141857   4.620   3.511   4.639  1.5573 -1.9467 -2.2527
 6814TIP3    H241858   4.493   3.454   4.700  1.0145  1.3449 -0.1629
 6815TIP3   OH241859   1.939   5.252  16.213  0.5755  0.4975 -0.1520
 6815TIP3    H141860   1.870   5.302  16.256 -0.7228 -0.2869 -1.2583
 6815TIP3    H241861   1.941   5.285  16.123 -0.4504 -1.5044 -0.9635
 6816TIP3   OH241862   4.377   2.010   3.834  0.1614  0.1020 -0.2133
 6816TIP3    H141863   4.446   2.007   3.767 -0.3998  1.7561 -0.8901
 6816TIP3    H241864   4.374   2.101   3.862 -2.9900  0.4690 -1.5244
 6817TIP3   OH241865   3.615   3.658   5.524 -0.3316 -0.2460 -0.1814
 6817TIP3    H141866   3.653   3.570   5.516  0.1613  0.1670 -2.5177
 6817TIP3    H241867   3.520   3.642   5.527 -0.1877 -0.9561  1.0369
 6818TIP3   OH241868   2.990   3.081  15.254 -0.1317 -0.4745  0.3780
 6818TIP3    H141869   3.021   3.067  15.343 -0.2135 -0.1021  0.4650
 6818TIP3    H241870   2.958   2.995  15.227  1.0783 -0.8906  0.2372
 6819TIP3   OH241871   4.199   3.775   6.189 -0.0781  0.7374 -0.6015
 6819TIP3    H141872   4.248   3.708   6.236 -1.5028 -0.2652 -0.5100
 6819TIP3    H241873   4.264   3.842   6.168  1.0283  0.1361  0.7986
 6820TIP3   OH241874   1.371   0.529   3.363  0.6292  0.4117 -0.3011
 6820TIP3    H141875   1.377   0.447   3.314  1.8524  0.8318 -0.8878
 6820TIP3    H241876   1.278   0.548   3.366  0.2907 -1.1846  0.1584
 6821TIP3   OH241877   2.781   1.031  16.211  0.1132  0.2299 -0.2219
 6821TIP3    H141878   2.799   1.030  16.306  1.1918  0.3606 -0.4121
 6821TIP3    H241879   2.854   1.080  16.174  0.9575 -1.8066 -1.3674
 6822TIP3   OH241880   3.655   2.396  12.712  0.0400 -0.2068 -0.7024
 6822TIP3    H141881   3.718   2.383  12.783 -0.3113  1.1927 -0.1349
 6822TIP3    H241882   3.683   2.477  12.670 -2.7510  1.7076  1.0063
 6823TIP3   OH241883   0.809   1.844  12.259 -0.6372 -0.1564  0.2367
 6823TIP3    H141884   0.897   1.812  12.278 -0.7451 -0.3840  0.3442
 6823TIP3    H241885   0.753   1.803  12.325 -1.4291 -3.0141 -2.1132
 6824TIP3   OH241886   5.152   3.947  16.955  0.0634  0.5305  0.1189
 6824TIP3    H141887   5.181   3.927  16.866 -0.5421  1.2549 -0.2414
 6824TIP3    H241888   5.234   3.963  17.003  0.3114  1.9347 -0.7404
 6825TIP3   OH241889   4.983   1.021  15.003 -0.0383 -0.0742  0.0734
 6825TIP3    H141890   5.023   1.010  15.089  0.1008 -3.3372 -0.3327
 6825TIP3    H241891   4.893   0.991  15.014 -0.1383 -0.1319 -0.8375
 6826TIP3   OH241892   6.476   2.263  12.328  0.9128  0.0484  0.5661
 6826TIP3    H141893   6.489   2.194  12.393  0.0413  0.9084  1.6407
 6826TIP3    H241894   6.505   2.343  12.371  1.4734  0.4493 -0.5287
 6827TIP3   OH241895   0.194   1.095   4.038 -0.8587 -1.0414  0.5468
 6827TIP3    H141896   0.233   1.092   4.125  0.9321 -0.4600 -0.2000
 6827TIP3    H241897   0.105   1.127   4.052 -0.1170  0.4723  2.0278
 6828TIP3   OH241898   3.200   6.640   4.036 -0.0365 -0.7083 -0.3663
 6828TIP3    H141899   3.225   6.547   4.035 -1.7915 -1.2353  1.1485
 6828TIP3    H241900   3.277   6.686   4.003  1.8628 -2.4785  1.4420
 6829TIP3   OH241901   0.998   3.774   1.230 -0.5493  0.2115  1.0050
 6829TIP3    H141902   0.970   3.823   1.307  0.9742  2.1264  0.3595
 6829TIP3    H241903   0.918   3.762   1.179 -1.3267  0.0557  2.2271
 6830TIP3   OH241904   5.833   2.333  16.445  0.1886  0.4097  0.5091
 6830TIP3    H141905   5.839   2.238  16.447  1.2520  0.4995  1.7677
 6830TIP3    H241906   5.923   2.364  16.448 -0.1424  1.4667  0.0707
 6831TIP3   OH241907   4.342   1.312  17.058 -0.7156  0.9815 -0.7040
 6831TIP3    H141908   4.420   1.258  17.070 -1.4351  0.0789 -0.0173
 6831TIP3    H241909   4.372   1.401  17.076 -0.2137  0.4418  1.2783
 6832TIP3   OH241910   1.105   4.986  15.395  0.0626  0.5371 -0.1125
 6832TIP3    H141911   1.154   5.061  15.359  0.1960 -0.1383 -1.3786
 6832TIP3    H241912   1.161   4.952  15.465  1.3127 -0.0820 -1.3900
 6833TIP3   OH241913   1.554   2.930  12.958 -0.0692 -0.3263  0.1633
 6833TIP3    H141914   1.637   2.972  12.979 -0.7615  1.9803 -1.4937
 6833TIP3    H241915   1.499   2.946  13.034 -0.0273  0.9741 -0.0703
 6834TIP3   OH241916   3.407   0.221  13.014 -0.0780  0.1619  0.4694
 6834TIP3    H141917   3.365   0.298  13.053 -0.4750  0.7324 -1.0511
 6834TIP3    H241918   3.443   0.253  12.932  0.5945 -1.0690  0.2868
 6835TIP3   OH241919   3.806   2.818  10.481 -0.3701 -0.4187  0.0663
 6835TIP3    H141920   3.797   2.851  10.570 -0.1364 -0.1125 -0.0226
 6835TIP3    H241921   3.774   2.728  10.485 -1.9081  0.1235  0.1012
 6836TIP3   OH241922   5.560   1.054  16.236  0.3801 -0.1808  0.3602
 6836TIP3    H141923   5.618   0.980  16.216  0.2201 -0.1352 -0.2616
 6836TIP3    H241924   5.514   1.072  16.154 -0.0603  0.1896  0.6863
 6837TIP3   OH241925   1.663   0.992  14.230 -0.5502  0.4936  0.3044
 6837TIP3    H141926   1.719   1.069  14.215  0.5294 -0.4062 -0.3727
 6837TIP3    H241927   1.610   0.986  14.150 -0.8747  0.7341  0.5016
 6838TIP3   OH241928   3.241   0.907   6.409  0.2301 -0.2194 -0.1394
 6838TIP3    H141929   3.281   0.989   6.440  0.0984 -0.0881 -0.3127
 6838TIP3    H241930   3.167   0.893   6.468 -0.1552  0.1500 -0.5290
 6839TIP3   OH241931   5.091   1.116   5.382  0.5355  0.0116 -0.1885
 6839TIP3    H141932   5.031   1.189   5.398 -1.5138 -1.1303 -2.3068
 6839TIP3    H241933   5.115   1.084   5.469  0.3445  2.2958  0.7293
 6840TIP3   OH241934   2.288   2.522   5.017  0.5085  0.7748  0.1901
 6840TIP3    H141935   2.299   2.486   5.105  1.2709 -1.0597 -0.6197
 6840TIP3    H241936   2.200   2.493   4.991  1.0472 -0.3692 -0.3886
 6841TIP3   OH241937   6.026   3.274  16.032 -0.1497 -0.4422 -0.0296
 6841TIP3    H141938   6.093   3.337  16.061 -2.6077  2.3631 -0.1334
 6841TIP3    H241939   6.070   3.221  15.966  2.2742  0.5789  0.6801
 6842TIP3   OH241940   6.495   0.110  15.059  0.0913 -0.1438  0.5554
 6842TIP3    H141941   6.502   0.121  15.153  0.8207  2.4119  0.2312
 6842TIP3    H241942   6.482   0.016  15.047 -2.5613 -0.1929  3.3290
 6843TIP3   OH241943   1.686   3.302  11.169 -0.0904 -0.4885 -0.3985
 6843TIP3    H141944   1.760   3.252  11.204 -0.6600  0.0163  1.5843
 6843TIP3    H241945   1.684   3.280  11.075  1.7511 -1.5198 -0.2138
 6844TIP3   OH241946   5.531   2.235   1.711 -0.6275  0.2408 -0.1777
 6844TIP3    H141947   5.463   2.227   1.644 -0.6108  0.8474 -0.2788
 6844TIP3    H241948   5.569   2.148   1.719  0.3245  0.4649 -1.9764
 6845TIP3   OH241949   6.145   6.351   2.010  0.2019  0.0244 -0.4145
 6845TIP3    H141950   6.151   6.276   2.070  0.4186  1.3294  1.2166
 6845TIP3    H241951   6.230   6.353   1.967  1.0602  0.7084  1.2497
 6846TIP3   OH241952   5.638   3.478   1.414  0.5885 -0.1365  0.1025
 6846TIP3    H141953   5.590   3.508   1.337  0.7702 -0.3225 -0.0841
 6846TIP3    H241954   5.608   3.535   1.485 -0.8441 -1.0393  0.2534
 6847TIP3   OH241955   4.782   4.084   4.887 -0.4139  0.1119  0.1083
 6847TIP3    H141956   4.858   4.050   4.839  0.1490  0.0264  1.0506
 6847TIP3    H241957   4.730   4.007   4.907 -0.2187  0.0459  0.3691
 6848TIP3   OH241958   4.281   1.617  16.257  0.4486  0.3229  0.3429
 6848TIP3    H141959   4.217   1.614  16.186  0.2963  0.6642  0.4642
 6848TIP3    H241960   4.365   1.602  16.214  0.4557  1.4283 -0.0419
 6849TIP3   OH241961   4.896   3.176  15.813  0.3502 -0.4983 -0.2489
 6849TIP3    H141962   4.869   3.098  15.765 -0.0701  0.0356 -0.8836
 6849TIP3    H241963   4.819   3.232  15.815  0.5235 -0.2672  0.5705
 6850TIP3   OH241964   2.134   5.677  13.855 -0.1632 -0.1554  0.2022
 6850TIP3    H141965   2.189   5.639  13.923 -0.2581 -0.2038  0.2536
 6850TIP3    H241966   2.071   5.608  13.834 -0.5369  0.0801  0.5207
 6851TIP3   OH241967   3.833   4.386  15.950 -0.1400  0.0213 -0.6065
 6851TIP3    H141968   3.854   4.461  16.005  1.6210 -0.2837 -0.8212
 6851TIP3    H241969   3.739   4.375  15.959  0.0967 -0.0400  2.3791
 6852TIP3   OH241970   0.214   1.794  15.420  0.2200 -0.3008  0.2543
 6852TIP3    H141971   0.158   1.835  15.354  0.2635 -0.1696  0.2987
 6852TIP3    H241972   0.242   1.866  15.476  1.4295 -0.1923 -0.4870
 6853TIP3   OH241973   1.923   0.129  11.585  0.2161 -0.4070  0.4056
 6853TIP3    H141974   1.911   0.111  11.678 -1.1497 -2.4211 -0.1224
 6853TIP3    H241975   1.892   0.219  11.574  0.4091 -0.1434  1.8928
 6854TIP3   OH241976   1.082   6.004  14.126  0.5433  0.1611 -0.1169
 6854TIP3    H141977   1.038   6.055  14.194  1.5267  2.5286 -1.2001
 6854TIP3    H241978   1.167   5.982  14.164 -0.4606 -2.1488  0.9584
 6855TIP3   OH241979   6.685   6.286   6.310 -0.5401  0.4489  0.0154
 6855TIP3    H141980   6.617   6.345   6.276 -2.0047 -0.9905  0.4065
 6855TIP3    H241981   6.767   6.328   6.284 -1.5814  1.2398 -2.1885
 6856TIP3   OH241982   4.390   6.212   3.832  0.1156  0.3744 -0.1831
 6856TIP3    H141983   4.436   6.131   3.856 -1.0520  0.2731  1.7813
 6856TIP3    H241984   4.431   6.280   3.887 -1.1908  0.5177  0.6155
 6857TIP3   OH241985   2.394   0.435   2.198  0.3391  0.6135 -0.2054
 6857TIP3    H141986   2.318   0.384   2.228 -1.0130  3.0374  0.5555
 6857TIP3    H241987   2.446   0.371   2.148 -0.6873 -1.8230  1.7077
 6858TIP3   OH241988   2.448   0.778   1.510 -0.2371 -0.1590  0.0864
 6858TIP3    H141989   2.407   0.722   1.575 -1.4464  0.9488  0.3021
 6858TIP3    H241990   2.527   0.731   1.483 -0.6221 -1.3981  1.1115
 6859TIP3   OH241991   2.144   0.270   2.253 -0.2263 -0.0522  0.6548
 6859TIP3    H141992   2.103   0.313   2.178  0.2743 -0.6155  0.0595
 6859TIP3    H241993   2.073   0.262   2.317 -1.1074 -1.1650 -0.4261
 6860TIP3   OH241994   6.658   3.497   5.604 -0.4227 -0.1744 -0.6694
 6860TIP3    H141995   6.693   3.578   5.568 -1.5247  0.1741 -0.9821
 6860TIP3    H241996   6.716   3.428   5.572 -0.4307  0.3167 -1.7377
 6861TIP3   OH241997   2.652   0.080   4.680  0.2937  0.0296  0.2133
 6861TIP3    H141998   2.648   0.069   4.585  0.2770 -1.4871  0.3905
 6861TIP3    H241999   2.745   0.090   4.699  0.5455 -2.2207  0.3059
 6862TIP3   OH242000   1.853   3.598   6.592  0.8332 -0.0220  0.1052
 6862TIP3    H142001   1.830   3.690   6.587  1.5441  0.1987  0.7790
 6862TIP3    H242002   1.946   3.595   6.567  0.7585 -0.5751 -0.1111
 6863TIP3   OH242003   5.507   4.544  15.915 -0.7199  0.2245 -0.6739
 6863TIP3    H142004   5.421   4.538  15.874  0.2973  0.3889 -2.8925
 6863TIP3    H242005   5.539   4.631  15.892  1.1542 -0.8056 -2.2118
 6864TIP3   OH242006   2.375   1.691   4.809  0.4171 -0.1210  0.1786
 6864TIP3    H142007   2.441   1.659   4.871 -0.7201  2.0185  2.5843
 6864TIP3    H242008   2.293   1.650   4.837  0.3030 -1.0688 -1.4644
 6865TIP3   OH242009   2.092   4.435   5.703  0.0754  0.1721 -0.0522
 6865TIP3    H142010   2.142   4.482   5.770 -0.6246 -0.8021  1.1833
 6865TIP3    H242011   2.038   4.374   5.753 -2.1136  0.9858 -1.3804
 6866TIP3   OH242012   3.506   2.891   4.819 -0.2992 -0.2989  0.1453
 6866TIP3    H142013   3.484   2.798   4.813  0.4031 -0.3407 -2.4847
 6866TIP3    H242014   3.574   2.896   4.886 -1.4922 -1.4468  1.4706
 6867TIP3   OH242015   3.844   5.937   2.144 -0.0486 -0.0002 -0.8114
 6867TIP3    H142016   3.758   5.941   2.101 -0.2375 -1.2843 -0.5821
 6867TIP3    H242017   3.871   6.028   2.153 -0.4589  0.3320 -2.7490
 6868TIP3   OH242018   4.658   5.151  13.436  0.1952 -0.5473  0.0245
 6868TIP3    H142019   4.635   5.235  13.475 -0.5529 -0.5844 -0.3276
 6868TIP3    H242020   4.744   5.165  13.396  0.3741 -0.1415  0.5504
 6869TIP3   OH242021   4.612   4.015  14.384  0.4336  0.2526  0.1626
 6869TIP3    H142022   4.674   4.019  14.457  0.7934  2.3877 -0.2413
 6869TIP3    H242023   4.653   3.955  14.321  0.5130 -0.9437  1.3133
 6870TIP3   OH242024   1.994   1.629   1.760 -0.0507 -0.1457  0.2363
 6870TIP3    H142025   2.059   1.605   1.826  0.3885 -1.3769 -0.6232
 6870TIP3    H242026   1.913   1.638   1.809 -0.1272 -2.9430  0.6893
 6871TIP3   OH242027   4.581   2.473  13.282  0.3850  0.3691 -0.2369
 6871TIP3    H142028   4.566   2.468  13.188 -1.0067 -1.2037  0.0463
 6871TIP3    H242029   4.565   2.565  13.304 -0.9936  0.3904 -1.2537
 6872TIP3   OH242030   3.798   5.199   6.433 -0.0512 -0.2610 -0.1614
 6872TIP3    H142031   3.888   5.183   6.404  0.4189  0.6355  0.7818
 6872TIP3    H242032   3.803   5.196   6.528 -1.2878 -1.5889 -0.1160
 6873TIP3   OH242033   1.574   2.725   0.883  0.0602 -0.0227 -0.5015
 6873TIP3    H142034   1.616   2.799   0.840 -0.4636 -0.4883 -1.8556
 6873TIP3    H242035   1.617   2.648   0.847 -0.7092 -0.4390 -0.5562
 6874TIP3   OH242036   6.627   3.787   5.611  0.2444 -0.5315 -0.0636
 6874TIP3    H142037   6.659   3.864   5.658  0.5602 -1.0864  0.6251
 6874TIP3    H242038   6.692   3.773   5.541  0.2091 -0.2033 -0.1634
 6875TIP3   OH242039   4.002   0.363   2.944  0.4062  0.4977  0.2429
 6875TIP3    H142040   3.928   0.406   2.987  0.3398  1.0486 -0.4160
 6875TIP3    H242041   3.981   0.270   2.947 -0.3474  0.6545  0.0072
 6876TIP3   OH242042   1.595   2.416   3.652 -0.4327 -0.2639 -0.7972
 6876TIP3    H142043   1.668   2.465   3.688 -1.3959 -0.4842  1.5481
 6876TIP3    H242044   1.520   2.443   3.704 -1.5699 -1.8560 -1.5685
 6877TIP3   OH242045   4.478   6.530  11.397 -0.3564  0.1667 -0.3519
 6877TIP3    H142046   4.544   6.489  11.341  0.0822 -0.0277  0.3056
 6877TIP3    H242047   4.397   6.527  11.345  0.0049 -0.1888 -0.8955
 6878TIP3   OH242048   6.452   2.589  10.940 -0.4957  0.7439 -0.3693
 6878TIP3    H142049   6.436   2.582  10.846 -0.7012  2.0961 -0.4411
 6878TIP3    H242050   6.408   2.669  10.966  2.1045  2.0224  0.3037
 6879TIP3   OH242051   1.889   2.564  10.740 -0.2434 -0.7178  0.5652
 6879TIP3    H142052   1.859   2.529  10.656 -2.1269 -0.8357  1.2461
 6879TIP3    H242053   1.896   2.658  10.725 -0.8873 -0.6965  0.3538
 6880TIP3   OH242054   1.776   0.525  13.143  0.3465  0.7186 -0.0011
 6880TIP3    H142055   1.728   0.447  13.115  0.8359  0.6802 -0.7439
 6880TIP3    H242056   1.771   0.585  13.068  0.3972  1.2040  0.3792
 6881TIP3   OH242057   1.766   4.807   2.586  0.5276  0.0453 -0.2865
 6881TIP3    H142058   1.798   4.841   2.502  0.4328  0.8050 -0.0144
 6881TIP3    H242059   1.796   4.871   2.650 -0.4511  0.0944  0.1185
 6882TIP3   OH242060   2.873   1.112   1.345 -0.4889  0.2470  0.0378
 6882TIP3    H142061   2.865   1.083   1.254 -0.2598  0.9989 -0.2307
 6882TIP3    H242062   2.890   1.032   1.395 -1.8393 -0.3423 -0.4166
 6883TIP3   OH242063   1.017   4.253   2.719 -0.4602 -0.0028 -0.3848
 6883TIP3    H142064   1.048   4.241   2.629  0.7891 -0.1300  0.0493
 6883TIP3    H242065   1.077   4.200   2.772 -0.3038  1.2115  0.6717
 6884TIP3   OH242066   3.969   6.098   1.472  0.6518 -0.4551 -0.1787
 6884TIP3    H142067   3.892   6.140   1.435 -0.2314 -0.9090  1.1052
 6884TIP3    H242068   3.977   6.016   1.424  1.8978  0.7582 -2.1234
 6885TIP3   OH242069   6.206   3.635  12.182 -0.0943 -0.2230 -0.1432
 6885TIP3    H142070   6.294   3.602  12.195  0.3764  1.1434  0.3048
 6885TIP3    H242071   6.210   3.684  12.099 -0.6175 -0.7597 -0.4912
 6886TIP3   OH242072   4.201   3.875   3.573 -0.2647  0.4311  0.2062
 6886TIP3    H142073   4.132   3.893   3.510 -0.8147 -0.2388  0.6170
 6886TIP3    H242074   4.211   3.957   3.621 -0.3919  0.6973 -0.2200
 6887TIP3   OH242075   0.545   3.980  14.702 -0.2164  0.7625  0.5328
 6887TIP3    H142076   0.544   3.887  14.679  1.4470  1.2208 -1.6525
 6887TIP3    H242077   0.624   4.014  14.659 -1.1639  3.3187  0.7066
 6888TIP3   OH242078   0.355   2.508   2.206 -0.5721 -0.0524  0.1074
 6888TIP3    H142079   0.384   2.565   2.134 -0.0477  2.1727  2.0348
 6888TIP3    H242080   0.408   2.535   2.281 -0.3689 -3.0491  1.1154
 6889TIP3   OH242081   3.271   0.500   3.198  0.3828  0.1528 -0.2582
 6889TIP3    H142082   3.205   0.541   3.142  0.8526  0.0912 -0.8692
 6889TIP3    H242083   3.229   0.492   3.284  0.4265  2.3106 -0.0058
 6890TIP3   OH242084   6.355   3.047   3.297  0.0672  0.1696 -0.1877
 6890TIP3    H142085   6.336   3.010   3.210 -2.3207 -0.6285  0.6430
 6890TIP3    H242086   6.428   3.107   3.281  1.2653 -1.7391 -2.3284
 6891TIP3   OH242087   3.860   3.979  12.691  0.9433  0.0133 -0.1095
 6891TIP3    H142088   3.827   4.043  12.627  1.7292  0.5596  0.0274
 6891TIP3    H242089   3.951   3.964  12.665  0.9378 -0.6033  0.2199
 6892TIP3   OH242090   6.000   6.161  12.439  0.2318  0.6907  1.0867
 6892TIP3    H142091   6.007   6.110  12.520 -3.7778 -1.0695  0.3962
 6892TIP3    H242092   6.051   6.112  12.375  3.3584  2.0530  2.4090
 6893TIP3   OH242093   1.165   0.474   5.732 -0.4410 -0.3415  0.2394
 6893TIP3    H142094   1.205   0.552   5.771  0.5165 -0.7027 -0.0018
 6893TIP3    H242095   1.229   0.405   5.747 -0.8342 -0.8617 -0.4544
 6894TIP3   OH242096   1.269   5.894   0.321  0.5347  0.0305  0.5258
 6894TIP3    H142097   1.276   5.883   0.227  0.9879  0.7232  0.4770
 6894TIP3    H242098   1.359   5.907   0.351  0.3811 -0.0507  1.0371
 6895TIP3   OH242099   3.861   0.930  11.076  0.1192 -0.0799 -0.4892
 6895TIP3    H142100   3.874   1.011  11.028  2.3677 -0.3889 -0.4514
 6895TIP3    H242101   3.839   0.957  11.165  1.6823  0.4973 -0.2701
 6896TIP3   OH242102   0.243   5.277   1.664 -0.2585 -0.4272  0.3668
 6896TIP3    H142103   0.169   5.255   1.720 -1.8136  0.3295 -1.3492
 6896TIP3    H242104   0.311   5.214   1.688 -2.3815 -2.8917  0.0830
 6897TIP3   OH242105   6.007   5.801  11.049 -0.3490  0.4765 -0.1193
 6897TIP3    H142106   5.926   5.759  11.021 -0.5308  0.3765  0.5324
 6897TIP3    H242107   5.979   5.888  11.079 -0.1418  0.6306 -0.3774
 6898TIP3   OH242108   0.876   1.213   5.116 -0.0160  0.0216  0.8201
 6898TIP3    H142109   0.801   1.272   5.114  0.1293  0.2640  2.3893
 6898TIP3    H242110   0.946   1.262   5.074 -0.9655 -0.5668 -1.5385
 6899TIP3   OH242111   2.150   5.706  11.234  0.7510 -0.1532  0.0361
 6899TIP3    H142112   2.059   5.732  11.243 -0.2140 -2.3235 -2.5968
 6899TIP3    H242113   2.199   5.787  11.238 -1.5462  1.3494 -1.1186
 6900TIP3   OH242114   2.007   2.294  14.719 -0.2568 -0.1100 -0.5954
 6900TIP3    H142115   1.913   2.283  14.705 -0.7457 -0.2257  2.4550
 6900TIP3    H242116   2.014   2.362  14.785  1.7973 -0.3509 -0.5226
 6901TIP3   OH242117   1.758   2.459  11.933 -0.6031 -0.0498  0.1330
 6901TIP3    H142118   1.671   2.420  11.946 -2.0689  3.4846  1.6481
 6901TIP3    H242119   1.777   2.504  12.015  2.9956 -1.2914  0.0587
 6902TIP3   OH242120   2.885   5.948  14.746  0.0274 -0.4231 -0.5976
 6902TIP3    H142121   2.849   5.875  14.696 -3.1003  0.5443  0.1576
 6902TIP3    H242122   2.924   5.907  14.823  0.3170 -1.4696 -1.2817
 6903TIP3   OH242123   3.313   3.258   0.899  0.5462 -0.0396  0.5314
 6903TIP3    H142124   3.290   3.305   0.818  0.6805  1.2918  1.2491
 6903TIP3    H242125   3.386   3.308   0.936 -0.4566  0.2166  2.2196
 6904TIP3   OH242126   0.367   6.358   0.584  0.3037  0.1431 -0.0065
 6904TIP3    H142127   0.457   6.327   0.575  0.1755  0.0635 -1.1176
 6904TIP3    H242128   0.330   6.351   0.495 -0.7631  0.2690  0.4178
 6905TIP3   OH242129   4.267   5.893  16.647 -0.8708  0.6503  0.1483
 6905TIP3    H142130   4.259   5.861  16.737 -0.2669 -1.8022 -0.6249
 6905TIP3    H242131   4.185   5.940  16.631 -0.7482  1.5997  2.1385
 6906TIP3   OH242132   1.191   4.927  13.696  0.4745 -0.5193 -0.4160
 6906TIP3    H142133   1.130   4.872  13.646 -1.2509  1.3021 -0.4021
 6906TIP3    H242134   1.259   4.867  13.725 -0.0636 -2.1815 -2.4458
 6907TIP3   OH242135   6.571   2.068   5.184  0.1064  0.0502 -0.0807
 6907TIP3    H142136   6.487   2.063   5.139  0.6879  0.1698 -1.1979
 6907TIP3    H242137   6.553   2.034   5.271 -0.8271 -1.1560 -0.7196
 6908TIP3   OH242138   4.700   1.349   3.392  0.0451 -0.0342 -0.3056
 6908TIP3    H142139   4.671   1.287   3.325  0.1241 -0.9697  0.5014
 6908TIP3    H242140   4.665   1.433   3.364 -1.6968 -0.7789 -0.4271
 6909TIP3   OH242141   6.106   6.242  14.865  0.3722 -0.1318  0.6445
 6909TIP3    H142142   6.072   6.326  14.836  0.7542 -0.3986 -0.6267
 6909TIP3    H242143   6.169   6.263  14.933 -0.5634  0.5137  1.3217
 6910TIP3   OH242144   1.534   3.117  14.595 -0.0968 -0.3906  0.3161
 6910TIP3    H142145   1.563   3.033  14.632 -0.5138 -0.4519  0.5084
 6910TIP3    H242146   1.586   3.182  14.642 -0.5806 -0.4721  0.9786
 6911TIP3   OH242147   0.514   3.039   2.851  0.3033  0.0483 -0.4646
 6911TIP3    H142148   0.494   3.022   2.943 -1.0482  1.1007 -0.5415
 6911TIP3    H242149   0.505   3.134   2.842 -0.2070 -0.1227 -1.8232
 6912TIP3   OH242150   5.284   1.719  11.304  0.3840 -0.4919 -0.0167
 6912TIP3    H142151   5.261   1.668  11.226 -0.2966 -0.5431  0.2143
 6912TIP3    H242152   5.253   1.808  11.285  1.3337 -0.2183 -0.3097
 6913TIP3   OH242153   3.466   5.106  15.118 -0.3877 -0.3412 -0.1981
 6913TIP3    H142154   3.459   5.045  15.191 -0.0984 -2.2979 -1.7607
 6913TIP3    H242155   3.539   5.073  15.066  0.0784  1.6271 -0.8228
 6914TIP3   OH242156   1.894   4.004  12.644 -0.3493 -0.3337 -0.3343
 6914TIP3    H142157   1.958   4.069  12.614 -0.5452 -0.1908 -0.4388
 6914TIP3    H242158   1.946   3.943  12.696 -0.0067 -0.5890 -0.9640
 6915TIP3   OH242159   5.509   4.394   0.631  0.2204  0.4528 -0.6063
 6915TIP3    H142160   5.532   4.444   0.709 -1.1732  0.0903  0.0546
 6915TIP3    H242161   5.557   4.312   0.641  1.0693  0.9162 -0.7884
 6916TIP3   OH242162   2.963   4.089   2.606 -0.5928 -0.3052  0.3688
 6916TIP3    H142163   2.950   4.164   2.665 -0.2648 -0.0058  0.0637
 6916TIP3    H242164   3.055   4.064   2.619 -0.4043  0.0160 -0.3041
 6917TIP3   OH242165   1.347   4.515   1.746  0.4519  0.1754  0.2406
 6917TIP3    H142166   1.407   4.483   1.813  0.4521 -2.2034 -0.8487
 6917TIP3    H242167   1.271   4.456   1.751 -0.6164  1.4829 -0.2203
 6918TIP3   OH242168   2.990   5.450   1.684  0.0512  0.7368  0.9473
 6918TIP3    H142169   3.062   5.399   1.647 -0.1227  2.4344 -1.8341
 6918TIP3    H242170   3.033   5.524   1.727  0.1319 -0.1281  2.3896
 6919TIP3   OH242171   0.505   4.063   5.361 -0.0418 -0.8155 -0.0901
 6919TIP3    H142172   0.430   4.038   5.308 -0.4220 -1.9032  0.9282
 6919TIP3    H242173   0.561   3.985   5.361  1.0226 -0.0530 -0.7368
 6920TIP3   OH242174   1.969   2.025  14.598 -0.5617 -0.0337  0.4005
 6920TIP3    H142175   1.981   2.065  14.512 -1.2173  0.2719  0.4401
 6920TIP3    H242176   1.987   2.096  14.660 -1.0029  0.0057  0.4877
 6921TIP3   OH242177   5.122   2.390  15.650 -0.3355 -0.5725  0.0570
 6921TIP3    H142178   5.148   2.480  15.628 -0.9086 -0.6765 -1.1319
 6921TIP3    H242179   5.197   2.337  15.626  0.1975 -0.3592  1.2434
 6922TIP3   OH242180   4.142   1.827  10.459 -0.2323 -0.0836  0.2966
 6922TIP3    H142181   4.217   1.854  10.512  1.7038 -0.0952 -2.3670
 6922TIP3    H242182   4.074   1.891  10.480  0.7593  0.4181  2.1256
 6923TIP3   OH242183   3.704   0.478  14.086 -0.7405 -0.1992 -0.2952
 6923TIP3    H142184   3.766   0.537  14.129 -0.5559 -2.0717  2.1450
 6923TIP3    H242185   3.618   0.515  14.108 -0.5675  0.6631 -1.0581
 6924TIP3   OH242186   3.123   1.071   1.771  0.1107 -0.1989 -0.4979
 6924TIP3    H142187   3.041   1.086   1.819  0.3548 -1.6833  0.3928
 6924TIP3    H242188   3.110   0.987   1.728  1.2496 -0.5351 -0.1892
 6925TIP3   OH242189   1.956   0.490   6.101 -0.7159 -0.2671 -0.7067
 6925TIP3    H142190   2.017   0.456   6.167  0.4077 -1.8936 -2.5244
 6925TIP3    H242191   1.930   0.412   6.051 -2.0301  0.8514 -1.7913
 6926TIP3   OH242192   4.117   4.688  16.607 -0.2924  0.3069 -0.0522
 6926TIP3    H142193   4.199   4.691  16.557 -0.3094  1.0463 -0.0553
 6926TIP3    H242194   4.060   4.629  16.557 -0.0435  0.4451 -0.5002
 6927TIP3   OH242195   0.700   0.499  10.988  0.9077  0.1574  0.0580
 6927TIP3    H142196   0.719   0.521  10.897 -0.9033  1.1180 -0.1046
 6927TIP3    H242197   0.633   0.562  11.014  1.7787  0.2264  2.2175
 6928TIP3   OH242198   4.182   0.428   4.255 -0.4718 -0.2250  0.2100
 6928TIP3    H142199   4.118   0.485   4.212 -0.9219 -0.8189  0.0889
 6928TIP3    H242200   4.223   0.483   4.321  0.6523  0.8995 -1.3683
 6929TIP3   OH242201   1.552   5.467   4.966  0.4517 -0.0461  0.0422
 6929TIP3    H142202   1.613   5.426   4.904  0.6189 -0.6427  0.5918
 6929TIP3    H242203   1.514   5.541   4.918  0.5508 -0.5280 -0.7771
 6930TIP3   OH242204   3.365   4.456  11.657 -0.0536  0.7119 -0.5027
 6930TIP3    H142205   3.461   4.458  11.655 -0.0825  2.3401 -1.4379
 6930TIP3    H242206   3.341   4.525  11.719 -0.6453  1.6878 -1.7973
 6931TIP3   OH242207   0.524   6.285   2.316  0.2035 -0.0783 -0.8409
 6931TIP3    H142208   0.519   6.195   2.284  0.6539 -0.7377  0.8647
 6931TIP3    H242209   0.583   6.329   2.256  1.2744 -1.3605 -0.7526
 6932TIP3   OH242210   0.499   1.145  11.324 -0.8895 -0.0022 -0.2872
 6932TIP3    H142211   0.449   1.201  11.266 -2.0249  2.5685  3.0069
 6932TIP3    H242212   0.583   1.190  11.335 -0.5468 -0.6468 -0.2314
 6933TIP3   OH242213   3.143   1.100  11.920 -0.3179 -0.1599 -0.0867
 6933TIP3    H142214   3.153   1.035  11.851  0.3461  0.3830 -0.5037
 6933TIP3    H242215   3.154   1.050  12.001  0.1562 -0.5797 -0.4053
 6934TIP3   OH242216   3.208   1.127   4.954  0.6800 -0.2544  0.1876
 6934TIP3    H142217   3.130   1.182   4.955  1.0441  0.2832  2.4831
 6934TIP3    H242218   3.174   1.038   4.948 -0.0354  0.0561 -0.4187
 6935TIP3   OH242219   3.504   0.415   3.106  0.1652 -0.1245  0.1952
 6935TIP3    H142220   3.426   0.438   3.157 -0.6626 -3.0209  0.2977
 6935TIP3    H242221   3.472   0.354   3.040  2.0917 -0.1151 -0.7560
 6936TIP3   OH242222   2.928   6.198  13.346 -0.2221 -0.2775 -0.0801
 6936TIP3    H142223   3.022   6.216  13.339 -0.3128  0.1122 -0.2881
 6936TIP3    H242224   2.903   6.170  13.258 -0.1993 -0.8662  0.1002
 6937TIP3   OH242225   4.622   2.063  11.637  0.4147  1.0136 -0.2917
 6937TIP3    H142226   4.637   2.147  11.594  2.4262  1.2961  0.9172
 6937TIP3    H242227   4.637   2.080  11.730 -1.5374 -0.1449  0.2650
 6938TIP3   OH242228   5.072   0.363  13.272  0.3080 -0.3528 -0.2245
 6938TIP3    H142229   5.163   0.334  13.267  0.5403  0.3786 -0.2345
 6938TIP3    H242230   5.048   0.351  13.364 -0.2357 -2.4811 -0.6099
 6939TIP3   OH242231   6.064   4.380  16.239 -0.7708 -0.4366  0.1132
 6939TIP3    H142232   6.005   4.345  16.306 -0.4426 -0.2474  0.5020
 6939TIP3    H242233   6.151   4.374  16.278 -0.6154 -0.0026 -0.1653
 6940TIP3   OH242234   1.917   3.451  12.647  0.2980 -0.1829  0.3055
 6940TIP3    H142235   1.967   3.529  12.670  2.1919 -1.4750  0.7582
 6940TIP3    H242236   1.913   3.452  12.552 -3.2656  2.5762  0.3706
 6941TIP3   OH242237   1.069   2.556   0.329  0.3504 -0.5818  0.7762
 6941TIP3    H142238   0.988   2.507   0.315  1.1109 -1.8807  0.8838
 6941TIP3    H242239   1.061   2.632   0.270 -2.0576  0.6805  2.6425
 6942TIP3   OH242240   2.205   5.369  12.468  0.5122 -0.6366  0.3344
 6942TIP3    H142241   2.201   5.386  12.374  0.9489 -0.4465  0.3495
 6942TIP3    H242242   2.114   5.381  12.498  0.2319 -1.4409 -0.1835
 6943TIP3   OH242243   3.091   3.745  12.911 -0.4229 -0.1555  0.6797
 6943TIP3    H142244   3.098   3.698  12.994  1.8773 -1.0779  0.0089
 6943TIP3    H242245   3.179   3.780  12.896 -0.6694 -0.4504 -1.6045
 6944TIP3   OH242246   3.832   5.482  15.119 -0.9039 -0.6193  0.2354
 6944TIP3    H142247   3.832   5.532  15.201  0.0569 -0.7702  0.3370
 6944TIP3    H242248   3.791   5.541  15.056 -0.9220 -0.1852  0.6435
 6945TIP3   OH242249   0.945   1.853  14.543  0.9649 -0.8626 -0.2795
 6945TIP3    H142250   0.912   1.941  14.562  0.2534 -1.2704  0.4074
 6945TIP3    H242251   0.983   1.860  14.456  0.2972 -0.0320 -0.5137
 6946TIP3   OH242252   0.256   4.235  13.169 -0.4544 -0.0062 -0.1808
 6946TIP3    H142253   0.197   4.253  13.096 -0.2017 -1.0364 -0.6589
 6946TIP3    H242254   0.271   4.140  13.165 -2.0203 -0.4149  2.4390
 6947TIP3   OH242255   4.313   3.779   5.241  0.1069  0.4623 -0.4421
 6947TIP3    H142256   4.277   3.823   5.318  0.8942 -1.6456  1.2028
 6947TIP3    H242257   4.236   3.746   5.194 -0.2857 -2.7739  2.2902
 6948TIP3   OH242258   4.923   2.562  12.000 -0.5531 -0.2435  0.9332
 6948TIP3    H142259   4.842   2.527  12.036  0.9068 -1.4981  3.1302
 6948TIP3    H242260   4.972   2.592  12.076  1.3031 -0.0760 -0.2935
 6949TIP3   OH242261   2.769   6.337  12.166  0.3072 -0.2784  0.1020
 6949TIP3    H142262   2.832   6.324  12.095  1.1595  0.4865  0.7230
 6949TIP3    H242263   2.764   6.252  12.209 -0.2234 -0.7560 -0.8682
 6950TIP3   OH242264   6.367   4.350   0.898  0.2108 -0.5168  0.0094
 6950TIP3    H142265   6.379   4.305   0.814 -0.7713 -0.9502  0.0905
 6950TIP3    H242266   6.272   4.358   0.907  0.3345  0.1784  0.7428
 6951TIP3   OH242267   1.742   2.823  16.721  0.5375 -0.3542  0.6391
 6951TIP3    H142268   1.732   2.889  16.790 -0.5172 -0.4174  0.5570
 6951TIP3    H242269   1.832   2.791  16.731  0.4390 -0.2737  1.8943
 6952TIP3   OH242270   3.094   0.860  16.328  0.0600  0.1146 -0.6615
 6952TIP3    H142271   3.105   0.944  16.284  0.9555  0.4857  0.2374
 6952TIP3    H242272   3.117   0.795  16.262 -0.3042  0.5866 -1.2600
 6953TIP3   OH242273   2.306   5.734  13.469  0.0825 -0.1216 -0.3509
 6953TIP3    H142274   2.234   5.671  13.468  0.0538 -0.2016  2.2406
 6953TIP3    H242275   2.385   5.680  13.480  0.1163  0.2205  1.2145
 6954TIP3   OH242276   0.307   5.404  11.932 -0.5328  0.3314 -0.6173
 6954TIP3    H142277   0.243   5.381  12.000 -0.4492 -0.2902 -0.7445
 6954TIP3    H242278   0.368   5.331  11.932  1.5558  1.9842  1.1390
 6955TIP3   OH242279   2.399   3.358  10.777 -0.0451  0.5659 -0.3377
 6955TIP3    H142280   2.450   3.425  10.823 -1.9252  1.0351  1.1257
 6955TIP3    H242281   2.308   3.379  10.797 -0.6611 -2.8882  0.8184
 6956TIP3   OH242282   5.016   5.434   3.715  0.1864 -0.2182 -0.2634
 6956TIP3    H142283   4.961   5.380   3.657 -1.7539 -0.5969  1.8933
 6956TIP3    H242284   4.957   5.497   3.754  1.3966 -0.1683  1.5730
 6957TIP3   OH242285   4.100   5.703  13.267 -0.2789 -0.0897 -0.1525
 6957TIP3    H142286   4.115   5.767  13.198 -1.1477 -0.2982 -0.5353
 6957TIP3    H242287   4.131   5.620  13.230  0.2210 -0.0171  0.0955
 6958TIP3   OH242288   2.284   5.633   0.377  0.1627 -0.2830 -0.7801
 6958TIP3    H142289   2.351   5.674   0.432 -0.6640  1.3819 -0.9797
 6958TIP3    H242290   2.283   5.541   0.405  0.3645  0.3382  1.3580
 6959TIP3   OH242291   6.592   1.557  11.455  0.4476  0.0053  0.4429
 6959TIP3    H142292   6.632   1.529  11.373 -1.0986  1.3368 -0.7974
 6959TIP3    H242293   6.566   1.475  11.498  0.5180 -0.6703 -0.7739
 6960TIP3   OH242294   3.748   1.189  14.676  0.2044 -0.3330  0.2120
 6960TIP3    H142295   3.734   1.105  14.721 -1.7398 -0.7665 -1.1317
 6960TIP3    H242296   3.678   1.193  14.611  0.7874  1.9636 -0.3110
 6961TIP3   OH242297   6.262   4.073  14.603  0.0754  0.5306  0.3864
 6961TIP3    H142298   6.333   4.134  14.621 -0.7298  1.6986 -0.3399
 6961TIP3    H242299   6.254   4.074  14.507 -1.0204  0.5231  0.4803
 6962TIP3   OH242300   2.140   5.831  12.354  0.9306 -0.3131 -0.2402
 6962TIP3    H142301   2.173   5.820  12.444  1.0177  0.2953 -0.1948
 6962TIP3    H242302   2.113   5.923  12.350  0.8027 -0.3758 -0.7981
 6963TIP3   OH242303   2.149   0.229   6.060  0.0342 -0.1443  0.4864
 6963TIP3    H142304   2.105   0.240   5.976 -0.0757  0.8947  0.6766
 6963TIP3    H242305   2.208   0.305   6.067  0.4218 -0.4948  1.1086
 6964TIP3   OH242306   3.058   2.408   2.802 -0.5868 -0.2744  0.0298
 6964TIP3    H142307   3.093   2.497   2.805 -0.9664  0.0102 -2.5570
 6964TIP3    H242308   2.963   2.419   2.811 -0.6361 -0.4111 -0.3059
 6965TIP3   OH242309   0.314   3.991   3.964  0.2690 -0.1494  0.1111
 6965TIP3    H142310   0.270   4.071   3.992  0.1078 -1.0668  2.6119
 6965TIP3    H242311   0.371   4.019   3.893 -0.0655  2.1181  0.6959
 6966TIP3   OH242312   6.583   5.705   1.314  0.3374  0.2717  0.0264
 6966TIP3    H142313   6.677   5.708   1.335  0.3993 -0.9445 -0.0013
 6966TIP3    H242314   6.560   5.795   1.291  0.9355  1.0794  2.4808
 6967TIP3   OH242315   5.644   2.026   1.947  0.2914  0.0364  0.4882
 6967TIP3    H142316   5.720   1.969   1.962 -1.4543 -3.5319 -3.2428
 6967TIP3    H242317   5.578   1.994   2.008  0.0197 -0.5587 -0.1080
 6968TIP3   OH242318   5.595   3.544   1.723 -0.2886  0.1940  0.0286
 6968TIP3    H142319   5.607   3.459   1.765 -0.9836  0.2850  0.4221
 6968TIP3    H242320   5.654   3.602   1.770  1.4321 -0.4070 -1.3207
 6969TIP3   OH242321   3.588   4.736   1.439 -0.5037  0.3203  0.6089
 6969TIP3    H142322   3.555   4.709   1.353 -0.4714 -0.2699  0.7749
 6969TIP3    H242323   3.537   4.813   1.461  0.0864  0.9863 -0.3217
 6970TIP3   OH242324   0.527   2.020   1.096  0.0573  0.1504 -0.3408
 6970TIP3    H142325   0.555   1.974   1.175 -1.9640 -0.5959 -0.0210
 6970TIP3    H242326   0.499   1.950   1.036 -0.0350  0.7924 -1.0559
 6971TIP3   OH242327   5.017   2.326   0.058 -0.4504 -0.2170  0.6460
 6971TIP3    H142328   4.962   2.403   0.044 -0.8624 -0.3810  1.3153
 6971TIP3    H242329   5.085   2.332  -0.009  0.8812  1.9540  2.1269
 6972TIP3   OH242330   4.617   5.093   3.708 -0.0622  0.6987  0.4245
 6972TIP3    H142331   4.574   5.027   3.654  3.7068  0.6687 -2.6928
 6972TIP3    H242332   4.600   5.176   3.663  0.5106  1.0742  0.8920
 6973TIP3   OH242333   2.088   1.456  10.911  0.1311 -0.7302 -0.2956
 6973TIP3    H142334   2.023   1.509  10.864 -0.0405  0.6863  1.4440
 6973TIP3    H242335   2.036   1.394  10.962  0.2062 -0.6878 -0.1662
 6974TIP3   OH242336   3.339   5.344   3.645  0.0843  0.8795  0.1924
 6974TIP3    H142337   3.272   5.385   3.700  0.1496 -0.1702  1.0728
 6974TIP3    H242338   3.297   5.335   3.560 -1.3006 -0.7640  1.0294
 6975TIP3   OH242339   4.565   6.472   2.319 -0.2976 -1.0466 -0.2467
 6975TIP3    H142340   4.556   6.481   2.224 -1.2490  0.4701 -0.0338
 6975TIP3    H242341   4.646   6.423   2.331  0.7545  0.2236 -1.8126
 6976TIP3   OH242342   3.623   5.254  13.918  0.7279 -0.0038  0.1217
 6976TIP3    H142343   3.680   5.196  13.969  1.4410  0.2146 -0.4228
 6976TIP3    H242344   3.657   5.248  13.829 -0.1986  0.0167 -0.2294
 6977TIP3   OH242345   1.708   5.085   6.857 -0.7286  0.5741  0.3671
 6977TIP3    H142346   1.750   5.006   6.823 -2.7278  0.1350 -1.1688
 6977TIP3    H242347   1.780   5.145   6.875  0.6713 -0.8695 -0.3638
 6978TIP3   OH242348   1.990   1.463  13.166 -0.2968 -0.5644  0.0082
 6978TIP3    H142349   2.073   1.426  13.195 -0.7064 -0.1086  1.8362
 6978TIP3    H242350   1.925   1.426  13.226 -1.0490  1.1219  0.2480
 6979TIP3   OH242351   2.303   0.672  13.935  0.4421 -0.3492  0.1592
 6979TIP3    H142352   2.303   0.576  13.934 -0.6516 -0.3948  1.6279
 6979TIP3    H242353   2.219   0.696  13.898 -0.6031 -0.0638  2.6105
 6980TIP3   OH242354   3.493   6.333  14.670  0.3778 -0.1855 -0.1607
 6980TIP3    H142355   3.519   6.349  14.761  0.1467 -0.6913 -0.0015
 6980TIP3    H242356   3.438   6.255  14.674 -0.6401  0.4928 -0.5827
 6981TIP3   OH242357   6.752   5.127  16.285  0.0668 -0.2140 -0.0815
 6981TIP3    H142358   6.837   5.084  16.285 -0.6962 -1.7657  1.0871
 6981TIP3    H242359   6.772   5.220  16.278  1.8152 -0.6226 -0.7635
 6982TIP3   OH242360   1.226   4.834  16.282 -0.4665  0.6356 -0.2104
 6982TIP3    H142361   1.296   4.893  16.307 -0.8435  0.9082  0.2177
 6982TIP3    H242362   1.233   4.760  16.343  1.6007 -1.0177 -2.3539
 6983TIP3   OH242363   2.482   5.955   0.929 -0.0584  0.0963  1.0329
 6983TIP3    H142364   2.451   5.872   0.967  0.1015 -0.4090  0.0632
 6983TIP3    H242365   2.558   5.930   0.877 -0.0935  0.8437  0.6279
 6984TIP3   OH242366   0.777   1.691   4.881  0.6158  0.0354  0.4800
 6984TIP3    H142367   0.806   1.602   4.859  0.5073 -0.3838  1.9394
 6984TIP3    H242368   0.719   1.716   4.809 -2.5860 -2.6573  1.9700
 6985TIP3   OH242369   3.287   2.100   2.277  0.3814 -0.4375 -0.3833
 6985TIP3    H142370   3.358   2.049   2.316 -0.6845 -0.6116  1.3386
 6985TIP3    H242371   3.300   2.089   2.182  2.6520 -0.4409 -0.0913
 6986TIP3   OH242372   3.809   5.006  12.648  0.2329 -0.6029 -0.9366
 6986TIP3    H142373   3.744   4.939  12.629  0.1018 -0.5634 -0.6389
 6986TIP3    H242374   3.776   5.085  12.606 -0.9838 -0.0615  0.9823
 6987TIP3   OH242375   4.304   3.994  16.534 -0.8267  0.2200 -0.4219
 6987TIP3    H142376   4.376   4.037  16.488  1.5308 -1.9952  1.0319
 6987TIP3    H242377   4.262   4.064  16.583  0.9163  1.4318 -0.5770
 6988TIP3   OH242378   2.710   3.905   3.296  0.2130 -0.5832  0.5403
 6988TIP3    H142379   2.764   3.981   3.272 -1.6524  1.3919  2.3277
 6988TIP3    H242380   2.711   3.850   3.218  0.7281  1.8082 -1.2239
 6989TIP3   OH242381   4.565   3.040  13.566  0.3448  0.0114 -0.7398
 6989TIP3    H142382   4.506   3.000  13.630 -1.3626  0.3501 -2.0975
 6989TIP3    H242383   4.645   2.988  13.572 -0.4383 -1.0815  0.3861
 6990TIP3   OH242384   1.672   3.653   6.109  0.0031  0.0960  0.4013
 6990TIP3    H142385   1.702   3.697   6.029 -0.2496  0.4347  0.4896
 6990TIP3    H242386   1.592   3.608   6.082 -0.2760  0.5002  0.5444
 6991TIP3   OH242387   3.210   3.133   5.559 -0.0252 -0.0575 -0.0531
 6991TIP3    H142388   3.282   3.190   5.584  0.4138 -0.7112  0.2059
 6991TIP3    H242389   3.193   3.154   5.467 -1.4913  2.1905  0.6980
 6992TIP3   OH242390   2.418   4.744  17.000 -0.6406 -0.1535 -0.2097
 6992TIP3    H142391   2.505   4.706  16.988 -1.0285 -1.3538  0.6657
 6992TIP3    H242392   2.391   4.716  17.087 -0.3737  3.3347  1.0464
 6993TIP3   OH242393   6.014   3.811  12.342  0.0212  0.1951 -0.2850
 6993TIP3    H142394   6.012   3.907  12.335  0.2054  0.1683 -0.7291
 6993TIP3    H242395   6.082   3.784  12.280  1.4218 -0.0907  1.3432
 6994TIP3   OH242396   5.105   5.673  15.598  0.4651  0.1507 -0.3612
 6994TIP3    H142397   5.029   5.695  15.544 -0.1966 -0.7619  0.1771
 6994TIP3    H242398   5.151   5.605  15.548  0.9304  0.7092 -0.6912
 6995TIP3   OH242399   2.538   3.116  16.617  0.3341 -0.1797  0.1002
 6995TIP3    H142400   2.530   3.210  16.601 -1.6717 -0.1915  0.8950
 6995TIP3    H242401   2.625   3.094  16.585  0.1509  1.6127 -1.7619
 6996TIP3   OH242402   5.322   4.486   4.133  0.4416 -0.0963  0.2862
 6996TIP3    H142403   5.230   4.510   4.140  0.6436  0.2456  1.9559
 6996TIP3    H242404   5.354   4.535   4.057 -0.1529  1.7615  1.2020
 6997TIP3   OH242405   5.492   0.287   5.222 -0.5210  0.5780 -0.1158
 6997TIP3    H142406   5.457   0.201   5.245 -0.4074  0.3553 -0.7538
 6997TIP3    H242407   5.502   0.332   5.305  1.3823 -0.7777  0.4155
 6998TIP3   OH242408   5.849   1.798  14.559  0.6171  0.0315 -0.1469
 6998TIP3    H142409   5.818   1.784  14.469 -0.1091 -0.9025  0.2459
 6998TIP3    H242410   5.840   1.713  14.601 -0.6450  0.8448  1.2995
 6999TIP3   OH242411   6.361   3.643  15.969 -0.1449 -0.4475  0.2022
 6999TIP3    H142412   6.287   3.672  16.023  0.7921 -0.2149  1.3957
 6999TIP3    H242413   6.321   3.594  15.897 -1.5044  0.3752  0.3807
 7000TIP3   OH242414   0.290   3.064  17.012 -0.0923 -0.0231  0.1855
 7000TIP3    H142415   0.269   3.149  16.973  0.0720 -0.6431 -1.2749
 7000TIP3    H242416   0.206   3.031  17.044  0.1113  1.4292  2.2659
 7001TIP3   OH242417   3.327   4.101   1.756 -0.1807 -0.4134  0.3444
 7001TIP3    H142418   3.420   4.089   1.735 -0.0098  0.5629  0.5042
 7001TIP3    H242419   3.281   4.069   1.679  0.2320 -2.3527  0.8932
 7002TIP3   OH242420   4.109   0.862   2.227 -0.2945 -0.0310  0.0557
 7002TIP3    H142421   4.153   0.818   2.299  0.4096  0.8392  0.1697
 7002TIP3    H242422   4.055   0.929   2.269  0.5618  0.8620 -0.2461
 7003TIP3   OH242423   5.481   4.980   2.786  0.2566  0.0632 -0.3077
 7003TIP3    H142424   5.487   4.900   2.735 -1.4129 -0.1415 -0.2095
 7003TIP3    H242425   5.453   5.047   2.724 -2.1706 -0.2689  0.3491
 7004TIP3   OH242426   5.536   2.688   2.760  0.0690  0.2006  0.0638
 7004TIP3    H142427   5.564   2.682   2.851  0.2584 -0.1683 -0.0173
 7004TIP3    H242428   5.605   2.737   2.716 -0.2131  0.7214  0.1977
 7005TIP3   OH242429   1.126   1.932   2.487 -0.1432 -0.4653 -0.7099
 7005TIP3    H142430   1.123   2.003   2.422  3.3084  1.4190  1.0033
 7005TIP3    H242431   1.098   1.973   2.569  0.4624 -1.4356 -0.0008
 7006TIP3   OH242432   6.062   6.138  11.929  0.6051 -0.3753  0.0819
 7006TIP3    H142433   6.092   6.191  12.003  0.7011 -1.3243  0.7299
 7006TIP3    H242434   6.096   6.184  11.852 -0.4478  1.2357  0.5499
 7007TIP3   OH242435   4.916   2.505   1.888  0.6580  0.0543  0.5048
 7007TIP3    H142436   4.915   2.573   1.821 -1.4297 -1.1783 -0.7609
 7007TIP3    H242437   4.832   2.460   1.878  1.7681 -2.3669  1.6540
 7008TIP3   OH242438   6.450   2.640  14.180 -0.2438  0.4973  0.1564
 7008TIP3    H142439   6.432   2.731  14.207  0.8993  0.6681  0.3456
 7008TIP3    H242440   6.363   2.599  14.178 -0.8715  1.8172 -0.7504
 7009TIP3   OH242441   1.333   0.237  11.327 -0.7366 -0.1977 -0.3112
 7009TIP3    H142442   1.245   0.200  11.330  0.0928 -2.3287 -1.5419
 7009TIP3    H242443   1.380   0.184  11.262  0.9257  2.0646 -1.0245
 7010TIP3   OH242444   6.360   1.862  12.377 -0.1146 -0.1780 -0.0565
 7010TIP3    H142445   6.306   1.916  12.435 -0.0318 -0.6379  0.4653
 7010TIP3    H242446   6.448   1.896  12.388 -0.3345  0.7886 -1.1612
 7011TIP3   OH242447   0.790   5.776  16.962  0.3250 -0.7541  0.0670
 7011TIP3    H142448   0.756   5.859  16.929  1.0291 -1.1984 -1.8502
 7011TIP3    H242449   0.717   5.736  17.009  0.1368  1.1802  1.4769
 7012TIP3   OH242450   2.881   1.671  12.146  0.5467 -0.3964  0.6728
 7012TIP3    H142451   2.805   1.691  12.200 -0.1391  0.7812 -0.6991
 7012TIP3    H242452   2.894   1.749  12.092  1.2835 -1.4904 -0.7686
 7013TIP3   OH242453   0.791   3.590  12.886  0.2900 -0.5887  0.6864
 7013TIP3    H142454   0.707   3.555  12.917 -0.7520  0.2765 -1.0902
 7013TIP3    H242455   0.778   3.685  12.884  0.9211 -0.5156 -0.6871
 7014TIP3   OH242456   4.558   2.294  11.445 -0.8310  0.2272  0.2141
 7014TIP3    H142457   4.618   2.368  11.438  1.2548 -1.4738 -0.2799
 7014TIP3    H242458   4.478   2.333  11.480  0.6519  2.4955  1.2658
 7015TIP3   OH242459   5.993   2.579   3.999  0.3057 -0.7118 -0.2795
 7015TIP3    H142460   5.900   2.590   4.019  0.6277 -0.5013  1.1956
 7015TIP3    H242461   6.019   2.662   3.958  0.0968 -0.3516  0.3160
 7016TIP3   OH242462   5.488   5.738   0.218 -0.2566  0.3230 -0.4046
 7016TIP3    H142463   5.450   5.811   0.170  0.2789  0.7591 -0.1662
 7016TIP3    H242464   5.419   5.710   0.278  0.3942  2.2331  1.2683
 7017TIP3   OH242465   2.788   6.280   1.205 -0.1864 -0.2561 -0.3931
 7017TIP3    H142466   2.812   6.192   1.177 -0.4294 -0.3888 -0.1775
 7017TIP3    H242467   2.740   6.317   1.131  1.5229  0.3695 -1.2319
 7018TIP3   OH242468   3.943   4.743  12.734 -0.0821  0.1142  0.6574
 7018TIP3    H142469   3.954   4.837  12.750 -0.4313  0.0940  1.0452
 7018TIP3    H242470   3.850   4.728  12.749 -0.1013 -0.2192  0.1896
 7019TIP3   OH242471   5.487   2.186  12.087  0.5619 -0.2807  0.2747
 7019TIP3    H142472   5.434   2.132  12.029 -0.7893  0.6974  0.5674
 7019TIP3    H242473   5.530   2.124  12.146 -0.4605 -1.0841  0.1918
 7020TIP3   OH242474   3.206   3.965   1.551  0.3650  0.6393  0.0454
 7020TIP3    H142475   3.264   3.989   1.479  0.8391  2.3521  0.9534
 7020TIP3    H242476   3.209   3.870   1.555  0.9549  0.5767 -1.6802
 7021TIP3   OH242477   3.874   0.889  13.658  0.3956  0.0702 -0.2141
 7021TIP3    H142478   3.792   0.902  13.610 -0.8166 -0.3361  1.7057
 7021TIP3    H242479   3.869   0.799  13.689  0.7362  0.6107  1.4320
 7022TIP3   OH242480   5.084   0.829   3.008  0.2070  0.4692  0.4917
 7022TIP3    H142481   5.098   0.920   2.984  0.5052  0.4997  0.7801
 7022TIP3    H242482   4.998   0.827   3.049 -0.0487  0.5197 -0.0399
 7023TIP3   OH242483   0.689   0.986   3.736 -0.7395  0.1468  0.0481
 7023TIP3    H142484   0.611   1.033   3.707  0.5336  0.8455 -2.3923
 7023TIP3    H242485   0.761   1.047   3.720  0.2004  0.1201  3.7048
 7024TIP3   OH242486   2.460   4.927   5.161 -0.2674 -1.0349  0.7207
 7024TIP3    H142487   2.555   4.933   5.151 -0.4236 -0.4609 -0.5855
 7024TIP3    H242488   2.428   5.015   5.140 -1.0579 -1.1265  1.5166
 7025TIP3   OH242489   5.100   2.372   1.172 -0.1951 -0.1558  0.2506
 7025TIP3    H142490   5.097   2.463   1.141  2.9443 -0.3498 -0.8164
 7025TIP3    H242491   5.062   2.321   1.100  0.4375  0.0704 -0.2438
 7026TIP3   OH242492   3.786   6.140  12.151  0.6370  0.5370  0.2662
 7026TIP3    H142493   3.754   6.224  12.182  0.3697  0.3657  0.4634
 7026TIP3    H242494   3.772   6.080  12.224  1.2013  0.4080  0.2723
 7027TIP3   OH242495   4.065   1.657   3.762 -0.8687  0.4941 -0.1083
 7027TIP3    H142496   4.037   1.607   3.839  0.1625 -0.2124 -0.1758
 7027TIP3    H242497   4.088   1.589   3.698  0.2558  1.0646 -0.3121
 7028TIP3   OH242498   0.742   1.746  13.122  0.0234  0.4171  0.6938
 7028TIP3    H142499   0.672   1.806  13.097  0.1738  0.4080  0.2611
 7028TIP3    H242500   0.763   1.771  13.213 -1.8419 -0.8262  1.4891
 7029TIP3   OH242501   3.824   3.341  14.359  0.0131 -0.0845 -0.2665
 7029TIP3    H142502   3.751   3.329  14.298 -0.3663  2.0861 -0.2514
 7029TIP3    H242503   3.784   3.383  14.435  1.5599  2.5661 -0.8811
 7030TIP3   OH242504   3.446   0.880  11.719 -0.0624  0.0352  0.7230
 7030TIP3    H142505   3.471   0.948  11.656  1.7075  0.1192  1.4955
 7030TIP3    H242506   3.350   0.885  11.723 -0.3685 -1.1244 -3.2213
 7031TIP3   OH242507   2.631   1.738  11.851  0.7190  0.3261 -0.1048
 7031TIP3    H142508   2.634   1.807  11.918  0.6914  0.8315 -0.6216
 7031TIP3    H242509   2.693   1.767  11.785  0.2125  0.1860 -0.6450
 7032TIP3   OH242510   4.311   1.522  11.181 -0.1089  0.0897 -0.7555
 7032TIP3    H142511   4.406   1.530  11.177 -0.0706  0.6725  0.8533
 7032TIP3    H242512   4.295   1.432  11.209 -0.0023  0.2113 -0.2969
 7033TIP3   OH242513   3.973   6.654  13.697  0.2727  0.4383 -0.6857
 7033TIP3    H142514   3.899   6.596  13.680  1.2131 -0.6932 -1.0512
 7033TIP3    H242515   4.021   6.657  13.614  0.9628  0.6692 -0.2843
 7034TIP3   OH242516   4.105   0.575  11.785  0.1576 -0.1509  0.0305
 7034TIP3    H142517   4.140   0.640  11.724 -0.3509  1.2482  1.1962
 7034TIP3    H242518   4.016   0.560  11.755 -0.4894  1.4116  1.0656
 7035TIP3   OH242519   0.116   1.210  11.177  0.5442 -0.1649  0.1829
 7035TIP3    H142520   0.023   1.191  11.193  0.4260  0.4759  0.2728
 7035TIP3    H242521   0.159   1.124  11.182 -0.5172 -0.9665 -3.1249
 7036TIP3   OH242522   1.435   2.342   3.987  0.0396 -0.2229 -0.2409
 7036TIP3    H142523   1.443   2.303   4.074 -1.0518  1.7237  0.7669
 7036TIP3    H242524   1.471   2.276   3.928 -0.5535 -2.2025  1.5292
 7037TIP3   OH242525   2.764   4.008  16.405  0.0070 -0.3373  0.3481
 7037TIP3    H142526   2.824   4.015  16.331 -0.3766 -0.4092  0.0276
 7037TIP3    H242527   2.679   4.035  16.369 -0.2438 -0.6872  0.6779
 7038TIP3   OH242528   1.206   1.565  15.136  0.2662 -0.1550 -0.8362
 7038TIP3    H142529   1.267   1.639  15.145  0.7244 -0.7269  1.0321
 7038TIP3    H242530   1.256   1.490  15.167 -0.4269 -1.1443 -2.0873
 7039TIP3   OH242531   0.560   2.821   4.922 -0.2327  0.3744  0.1015
 7039TIP3    H142532   0.629   2.852   4.863  0.4404  0.9688  1.2001
 7039TIP3    H242533   0.552   2.728   4.901  0.3915  0.4611 -0.5472
 7040TIP3   OH242534   6.138   4.585  15.777  0.4533  0.2341 -0.0441
 7040TIP3    H142535   6.111   4.505  15.732  0.4357  0.5118 -0.5321
 7040TIP3    H242536   6.130   4.564  15.870 -0.0228 -0.1730 -0.1746
 7041TIP3   OH242537   2.938   2.028  15.545  0.7451  0.0314  0.4783
 7041TIP3    H142538   2.909   2.090  15.478 -1.3026  0.1385  1.4247
 7041TIP3    H242539   2.872   1.959  15.545  1.4526 -0.6733  1.4434
 7042TIP3   OH242540   0.246   2.487  15.169 -0.5040  0.1374  0.7222
 7042TIP3    H142541   0.227   2.487  15.263  1.3055  2.0546  1.1336
 7042TIP3    H242542   0.197   2.562  15.135 -1.2104 -0.5944  0.1123
 7043TIP3   OH242543   0.761   0.506  15.982  0.6760  0.0583 -0.1039
 7043TIP3    H142544   0.839   0.516  15.929  0.6119 -2.1780 -0.6454
 7043TIP3    H242545   0.791   0.460  16.061  0.7126  3.0413  1.7150
 7044TIP3   OH242546   2.797   1.713  13.971 -0.2278 -0.5681  0.3428
 7044TIP3    H142547   2.839   1.759  13.899 -0.3052 -0.7521  0.1799
 7044TIP3    H242548   2.761   1.634  13.931 -1.4797  0.0096  0.3139
 7045TIP3   OH242549   0.962   3.580  14.677 -0.5834 -0.1309 -0.8321
 7045TIP3    H142550   0.921   3.508  14.630  0.0665 -0.6327 -0.6321
 7045TIP3    H242551   0.904   3.597  14.752 -0.6059 -0.6010 -0.7457
 7046TIP3   OH242552   2.913   1.443  14.263  0.1721  0.2814  0.0539
 7046TIP3    H142553   2.969   1.371  14.292 -1.8135 -0.7107  1.5023
 7046TIP3    H242554   2.962   1.522  14.287  1.1803 -0.5675  0.8301
 7047TIP3   OH242555   2.355   0.672   0.797  0.0462  0.2498 -0.5617
 7047TIP3    H142556   2.326   0.582   0.783 -2.1973  1.0727 -1.3302
 7047TIP3    H242557   2.304   0.702   0.872 -2.1239  2.1311 -2.7262
 7048TIP3   OH242558   4.409   4.556  12.893 -0.3759 -0.2800 -0.0831
 7048TIP3    H142559   4.325   4.584  12.859 -0.8377 -1.4401  0.0722
 7048TIP3    H242560   4.464   4.634  12.891 -0.5917 -0.1603 -2.8184
 7049TIP3   OH242561   4.770   3.697   5.617  0.4179  0.4400  0.2791
 7049TIP3    H142562   4.834   3.626   5.609  1.5685  1.5048 -0.1594
 7049TIP3    H242563   4.712   3.686   5.542  0.8806  0.2487 -0.0544
 7050TIP3   OH242564   2.977   3.600  13.602 -0.1138 -0.9750 -0.4118
 7050TIP3    H142565   2.961   3.570  13.692 -1.6100 -0.2990 -0.4408
 7050TIP3    H242566   2.904   3.562  13.551 -0.1777 -0.0148 -1.0403
 7051TIP3   OH242567   3.076   5.904  11.888 -0.4679  0.0024  0.1371
 7051TIP3    H142568   3.014   5.869  11.824  0.4884 -1.5546  0.0399
 7051TIP3    H242569   3.105   5.987  11.850  0.5853 -1.2075 -1.8054
 7052TIP3   OH242570   4.071   5.832  16.417  0.2187  0.2756  0.2216
 7052TIP3    H142571   4.045   5.856  16.506 -0.8043 -3.5006  0.9962
 7052TIP3    H242572   4.153   5.784  16.428  0.9650  1.2262 -1.0658
 7053TIP3   OH242573   0.288   5.580  12.246 -0.1322  0.3920  0.3237
 7053TIP3    H142574   0.206   5.629  12.237  0.5723  1.1659 -2.7718
 7053TIP3    H242575   0.271   5.497  12.201  0.4774  0.1704  0.5063
 7054TIP3   OH242576   2.913   6.755   2.321  0.0675 -0.0947 -0.4231
 7054TIP3    H142577   2.941   6.844   2.341 -1.7255  0.3498  0.1921
 7054TIP3    H242578   2.957   6.701   2.385  1.1533  0.3424 -0.7869
 7055TIP3   OH242579   4.449   3.002   3.344  0.0791 -0.1724  0.2494
 7055TIP3    H142580   4.497   3.077   3.309 -1.4235  1.0515  0.7519
 7055TIP3    H242581   4.498   2.976   3.423 -0.0524  1.0195  0.7273
 7056TIP3   OH242582   1.588   2.624  15.593  0.0961  0.1147 -0.1355
 7056TIP3    H142583   1.599   2.719  15.579 -1.9888  0.6831  1.7438
 7056TIP3    H242584   1.665   2.598  15.644  2.3495  0.1043 -3.4202
 7057TIP3   OH242585   6.708   1.960  16.592  0.4371  0.4416 -0.2105
 7057TIP3    H142586   6.666   2.046  16.594 -2.3049 -0.8814  1.8463
 7057TIP3    H242587   6.749   1.950  16.677 -1.9798 -1.5001  0.8186
 7058TIP3   OH242588   4.350   1.607  14.970 -0.3324 -0.0221  0.2064
 7058TIP3    H142589   4.373   1.517  14.994  0.9742  0.2188 -0.1240
 7058TIP3    H242590   4.349   1.655  15.053 -0.3491 -0.1897  0.3034
 7059TIP3   OH242591   1.194   0.418   2.594  0.2926 -0.4184  0.6073
 7059TIP3    H142592   1.154   0.504   2.607  1.4041  0.8116 -3.3090
 7059TIP3    H242593   1.257   0.409   2.665 -0.7455  1.4058  1.7992
 7060TIP3   OH242594   4.295   0.090  16.423 -0.5052  0.0210  0.5436
 7060TIP3    H142595   4.331   0.174  16.395 -0.4987 -0.1550  0.0246
 7060TIP3    H242596   4.369   0.030  16.423 -0.5265 -0.0068  0.8372
 7061TIP3   OH242597   1.441   2.563  16.353  0.5218  0.2756  0.0575
 7061TIP3    H142598   1.429   2.528  16.265  3.8385 -0.0009 -0.3349
 7061TIP3    H242599   1.472   2.653  16.340 -0.1775  0.6692  0.9833
 7062TIP3   OH242600   2.686   3.498   2.503 -0.1028  0.4998 -0.2588
 7062TIP3    H142601   2.716   3.586   2.481 -0.7329  0.6504 -0.5438
 7062TIP3    H242602   2.591   3.501   2.487 -0.0135 -0.4410 -1.0086
 7063TIP3   OH242603   5.474   1.357  11.638 -0.5721 -0.4377 -0.1068
 7063TIP3    H142604   5.458   1.374  11.731 -0.1538  1.5347 -0.3697
 7063TIP3    H242605   5.417   1.418  11.592  1.4165  0.7378 -1.1035
 7064TIP3   OH242606   4.650   1.199  14.948 -0.3307 -0.3386  0.0915
 7064TIP3    H142607   4.725   1.258  14.956 -0.4638 -0.2858  0.9402
 7064TIP3    H242608   4.684   1.123  14.900 -0.1705  0.4417 -1.0379
 7065TIP3   OH242609   4.727   6.518   3.143  0.5156  0.2563  0.3954
 7065TIP3    H142610   4.713   6.430   3.109  0.7353 -0.6809  2.6808
 7065TIP3    H242611   4.640   6.556   3.149  0.4577  0.3989 -1.0376
 7066TIP3   OH242612   2.304   1.289  15.909 -0.0519 -0.8868  0.0568
 7066TIP3    H142613   2.213   1.279  15.880 -0.4280  0.2130  0.8585
 7066TIP3    H242614   2.298   1.330  15.995  1.2580  0.5106 -0.5012
 7067TIP3   OH242615   1.545   3.852   5.871 -0.3230 -0.8794  0.1481
 7067TIP3    H142616   1.517   3.873   5.782 -1.1945  1.2610  0.8973
 7067TIP3    H242617   1.640   3.847   5.865 -0.2737  0.6452 -0.6433
 7068TIP3   OH242618   0.516   3.600   4.783 -0.2580  0.6712 -0.0473
 7068TIP3    H142619   0.435   3.591   4.833 -0.4706  0.2283 -0.4612
 7068TIP3    H242620   0.583   3.620   4.848 -0.3252 -1.0046  0.5572
 7069TIP3   OH242621   1.855   1.877   4.863 -0.3387  0.0295 -0.1482
 7069TIP3    H142622   1.890   1.816   4.798 -2.2016 -3.4825  1.9963
 7069TIP3    H242623   1.770   1.904   4.828  1.3020  3.0687 -2.0211
 7070TIP3   OH242624   3.727   5.448   5.345 -0.3499  0.0288 -0.0416
 7070TIP3    H142625   3.681   5.531   5.353 -0.5310 -0.2116  1.6860
 7070TIP3    H242626   3.807   5.461   5.396  0.4525 -0.2785 -1.2163
 7071TIP3   OH242627   1.570   3.832   4.906 -0.2406 -0.7853  0.0278
 7071TIP3    H142628   1.657   3.866   4.883 -0.8620 -0.1754 -1.4885
 7071TIP3    H242629   1.526   3.905   4.950 -0.3121 -0.8007 -0.0186
 7072TIP3   OH242630   2.868   1.805  10.546  0.7641 -0.4440  0.1435
 7072TIP3    H142631   2.956   1.837  10.566 -0.1484  1.3919  1.4243
 7072TIP3    H242632   2.810   1.873  10.580 -1.1421 -1.3240 -1.2447
 7073TIP3   OH242633   4.501   2.018  11.355  0.4796 -0.3134  0.2718
 7073TIP3    H142634   4.521   2.105  11.389  0.7408 -0.6504  0.9828
 7073TIP3    H242635   4.508   2.028  11.260 -3.8888  1.5438  0.0339
 7074TIP3   OH242636   2.046   5.269  15.528  0.0149  0.2869  0.3260
 7074TIP3    H142637   1.991   5.330  15.577  0.8383  0.5931  0.8815
 7074TIP3    H242638   2.130   5.313  15.520  0.3055 -0.3478 -0.1512
 7075TIP3   OH242639   1.971   6.573  17.126 -0.2741 -0.3242  0.0431
 7075TIP3    H142640   1.996   6.628  17.200 -0.5202  1.9356 -1.5072
 7075TIP3    H242641   1.876   6.569  17.130 -0.4131  1.3113 -1.1692
 7076TIP3   OH242642   2.848   2.254  13.453 -0.0210  0.1020 -0.5770
 7076TIP3    H142643   2.818   2.218  13.369  1.5151  1.3620 -1.6843
 7076TIP3    H242644   2.940   2.274  13.440  0.0201  1.1685  1.1347
 7077TIP3   OH242645   5.267   4.560   0.128  0.1318 -0.5318 -0.0079
 7077TIP3    H142646   5.277   4.565   0.223  0.1322 -2.2438  0.0958
 7077TIP3    H242647   5.173   4.572   0.113  0.0086 -1.0868  0.2872
 7078TIP3   OH242648   5.475   0.461   6.242  0.2665  0.3081  0.1040
 7078TIP3    H142649   5.570   0.469   6.254  0.3905  0.6042 -0.9932
 7078TIP3    H242650   5.465   0.434   6.150 -0.6979 -0.1042  0.3235
 7079TIP3   OH242651   1.793   1.337   1.974  0.1941 -0.5270 -0.1679
 7079TIP3    H142652   1.757   1.327   1.886 -0.7236 -2.1553  0.3587
 7079TIP3    H242653   1.760   1.421   2.004  2.9459  1.4895 -2.4503
 7080TIP3   OH242654   4.107   6.785  13.161  0.0836 -0.2463 -0.0466
 7080TIP3    H142655   4.080   6.874  13.181  1.9517  0.5907 -1.0801
 7080TIP3    H242656   4.125   6.746  13.246 -0.4137  0.4821  0.3944
 7081TIP3   OH242657   5.625   3.895   3.631  0.3132  0.0208  0.2435
 7081TIP3    H142658   5.654   3.974   3.676 -1.0050  0.6913 -0.0412
 7081TIP3    H242659   5.631   3.825   3.696  1.4437  0.3602  0.5069
 7082TIP3   OH242660   2.326   5.724   1.488  0.9128  0.0985  0.1455
 7082TIP3    H142661   2.349   5.705   1.397 -0.8735 -0.1887 -0.2678
 7082TIP3    H242662   2.318   5.638   1.529 -1.6290  0.0681 -0.3102
 7083TIP3   OH242663   6.753   3.213   0.945 -0.4563 -0.0980 -0.1613
 7083TIP3    H142664   6.740   3.163   1.025 -1.7553  2.3603  1.2073
 7083TIP3    H242665   6.679   3.188   0.889 -0.2623 -0.8417 -0.0889
 7084TIP3   OH242666   4.101   3.188   1.489  0.4091 -0.6223 -0.2513
 7084TIP3    H142667   4.098   3.253   1.559  0.5694 -0.3273 -0.5143
 7084TIP3    H242668   4.127   3.238   1.411 -3.3722 -0.1967 -1.3679
 7085TIP3   OH242669   4.696   0.047   3.935  0.0632  0.2064 -0.4585
 7085TIP3    H142670   4.664   0.125   3.890  2.3310  1.8476  0.6650
 7085TIP3    H242671   4.772   0.019   3.883  2.3216  1.7572  1.8981
 7086TIP3   OH242672   3.322   3.729  12.048 -0.3632  0.4461 -0.2993
 7086TIP3    H142673   3.261   3.655  12.044 -0.8980  0.8610  0.0544
 7086TIP3    H242674   3.292   3.780  12.122 -0.6940  1.6298 -1.2364
 7087TIP3   OH242675   5.301   0.507  15.163 -0.0546  0.4211 -0.1629
 7087TIP3    H142676   5.387   0.548  15.154  0.0620 -0.2646 -2.8101
 7087TIP3    H242677   5.241   0.570  15.123 -0.7301  0.6707  1.2207
 7088TIP3   OH242678   6.564   4.319   3.642  0.1808  0.5148 -0.7250
 7088TIP3    H142679   6.611   4.352   3.565 -1.6371  0.4146 -1.9234
 7088TIP3    H242680   6.472   4.334   3.621 -0.3418  0.3073  1.3812
 7089TIP3   OH242681   3.038   0.470   3.564  0.0840 -0.0673  0.1441
 7089TIP3    H142682   3.050   0.470   3.659  2.2152  1.3431 -0.1130
 7089TIP3    H242683   3.048   0.561   3.538 -0.4287 -0.4480 -1.4533
 7090TIP3   OH242684   6.244   1.925   1.802 -0.1298 -0.4660  0.0171
 7090TIP3    H142685   6.316   1.876   1.841 -0.4964  0.1373  1.4570
 7090TIP3    H242686   6.265   2.017   1.817 -0.6252 -0.2412 -0.5903
 7091TIP3   OH242687   1.130   2.253  13.771  0.3164 -0.7237 -0.3839
 7091TIP3    H142688   1.190   2.180  13.756  1.0913 -0.1676 -0.0102
 7091TIP3    H242689   1.095   2.273  13.684  0.1216 -1.5130 -0.4938
 7092TIP3   OH242690   1.904   2.286  13.765  0.0154  0.5465 -0.1506
 7092TIP3    H142691   1.870   2.271  13.677 -0.0202  1.2248 -0.2557
 7092TIP3    H242692   1.826   2.282  13.821  0.3323 -2.2010  0.1480
 7093TIP3   OH242693   1.630   6.066   6.685  0.2703 -0.2749 -0.0168
 7093TIP3    H142694   1.643   6.152   6.725 -0.2640 -1.3645  2.5861
 7093TIP3    H242695   1.691   6.065   6.611 -0.9594  2.9752 -1.1564
 7094TIP3   OH242696   3.349   2.488   2.691  0.6931  0.5291 -0.0109
 7094TIP3    H142697   3.289   2.434   2.639  0.9900  0.3611 -0.1817
 7094TIP3    H242698   3.295   2.521   2.763  0.9030 -1.4796  1.1348
 7095TIP3   OH242699   6.319   0.743  14.725  0.6608 -0.7409 -0.2262
 7095TIP3    H142700   6.380   0.816  14.723  0.1314 -0.3162 -1.1892
 7095TIP3    H242701   6.282   0.740  14.637 -1.1423 -0.6108  0.5106
 7096TIP3   OH242702   3.478   0.766   0.494  0.0128 -0.1212 -0.7287
 7096TIP3    H142703   3.411   0.790   0.558  0.7229 -2.1709  0.8632
 7096TIP3    H242704   3.431   0.715   0.428  0.3097 -3.6751  1.6649
 7097TIP3   OH242705   5.240   1.998  16.411  0.2541 -0.0523  0.2636
 7097TIP3    H142706   5.199   2.077  16.378 -0.3897 -0.6751 -0.4444
 7097TIP3    H242707   5.305   2.029  16.474 -0.2895  1.0122  0.3121
 7098TIP3   OH242708   5.342   4.253   0.937  0.0506  0.0220 -0.5405
 7098TIP3    H142709   5.427   4.211   0.951  0.6682  1.4265  0.0801
 7098TIP3    H242710   5.311   4.275   1.025 -1.5370 -1.5590 -0.6759
 7099TIP3   OH242711   1.445   4.439  16.913 -0.0335  0.2980 -0.1705
 7099TIP3    H142712   1.403   4.512  16.867  1.0255  1.1600  0.2138
 7099TIP3    H242713   1.470   4.474  16.998 -0.2893 -0.7651  0.3588
 7100TIP3   OH242714   0.465   1.136   2.637 -0.8373 -0.4573  0.1545
 7100TIP3    H142715   0.450   1.228   2.656 -0.3362 -0.2292 -0.5207
 7100TIP3    H242716   0.458   1.092   2.721  1.8466  0.5762  0.9703
 7101TIP3   OH242717   4.842   2.569   2.754 -0.4453  0.4333  0.2590
 7101TIP3    H142718   4.809   2.607   2.672  1.0459  1.2578  0.0059
 7101TIP3    H242719   4.937   2.565   2.741 -0.0093  2.1754  2.6052
 7102TIP3   OH242720   3.303   1.823  16.532 -0.4887 -0.2458  0.0451
 7102TIP3    H142721   3.312   1.777  16.448 -0.9404  1.4945 -0.9992
 7102TIP3    H242722   3.387   1.809  16.576  0.5202  0.4563 -1.5785
 7103TIP3   OH242723   4.987   1.218  10.846 -0.2638 -0.0276  0.3578
 7103TIP3    H142724   4.918   1.181  10.790  1.8733 -0.8594 -1.7743
 7103TIP3    H242725   4.996   1.309  10.815  0.1304 -0.1507  0.1082
 7104TIP3   OH242726   3.076   1.419  12.683 -0.2354 -0.3092  0.1958
 7104TIP3    H142727   3.048   1.396  12.595  0.0576 -0.9341  0.2601
 7104TIP3    H242728   3.079   1.515  12.684 -3.2788 -0.1860  0.4972
 7105TIP3   OH242729   5.719   6.724   5.133  0.1754 -0.2116  0.8755
 7105TIP3    H142730   5.783   6.759   5.072 -1.7687  1.2437 -0.3829
 7105TIP3    H242731   5.666   6.799   5.159 -3.4064 -1.9506 -1.0213
 7106TIP3   OH242732   2.326   5.335  15.550  0.1673 -0.3314 -0.1346
 7106TIP3    H142733   2.401   5.389  15.575  0.3247 -0.5715 -0.0817
 7106TIP3    H242734   2.335   5.323  15.456 -1.0736  1.5523 -0.5217
 7107TIP3   OH242735   4.456   3.961   3.392 -0.1728 -0.5941 -0.1844
 7107TIP3    H142736   4.421   3.957   3.481  0.8788  0.4280  0.2945
 7107TIP3    H242737   4.502   3.879   3.380  1.0744 -0.0461  0.8189
 7108TIP3   OH242738   3.878   2.560  16.258 -0.2578  0.1531 -0.3690
 7108TIP3    H142739   3.789   2.594  16.259 -0.7109 -1.0327  2.6156
 7108TIP3    H242740   3.883   2.501  16.333  2.4517 -1.3440 -1.6266
 7109TIP3   OH242741   4.460   6.481  13.691  0.5518  0.0113 -0.2343
 7109TIP3    H142742   4.473   6.402  13.744  0.5621  0.0059 -0.2454
 7109TIP3    H242743   4.441   6.447  13.603  1.4641  0.0330 -0.4425
 7110TIP3   OH242744   5.885   1.923   0.600 -0.1313 -0.0174  0.0711
 7110TIP3    H142745   5.789   1.914   0.603 -0.1495  0.4282  0.8674
 7110TIP3    H242746   5.917   1.857   0.662  0.0115  0.9079  0.9875
 7111TIP3   OH242747   5.243   6.401   4.446  0.1340  0.4969 -0.0869
 7111TIP3    H142748   5.246   6.329   4.510 -0.5958  1.5486  1.1458
 7111TIP3    H242749   5.335   6.415   4.423  0.5426  0.8922  1.6451
 7112TIP3   OH242750   5.544   3.323   3.561  0.0232  0.3037  0.5423
 7112TIP3    H142751   5.569   3.401   3.512  0.2858 -0.4195 -0.4892
 7112TIP3    H242752   5.594   3.252   3.520 -2.0033 -0.7976 -0.0804
 7113TIP3   OH242753   6.572   5.084   1.765 -0.0077 -0.5769 -0.5967
 7113TIP3    H142754   6.659   5.111   1.795 -0.2495 -0.9579  0.4793
 7113TIP3    H242755   6.582   4.991   1.745 -0.5489 -1.0307  1.1003
 7114TIP3   OH242756   4.416   3.860  12.000 -0.1549  0.3033  0.0180
 7114TIP3    H142757   4.353   3.829  11.935  0.1114  1.2439 -0.6927
 7114TIP3    H242758   4.451   3.941  11.964  0.0091  0.8376  1.3241
 7115TIP3   OH242759   4.023   3.416   1.601 -0.0002  0.1318 -0.2346
 7115TIP3    H142760   3.996   3.503   1.572 -0.6435 -0.0462 -0.1874
 7115TIP3    H242761   3.999   3.413   1.694  1.4221  0.4546  0.1573
 7116TIP3   OH242762   3.424   6.353   4.909  0.0322 -0.0615 -0.4262
 7116TIP3    H142763   3.409   6.445   4.888  1.4679  0.2486 -0.1575
 7116TIP3    H242764   3.490   6.325   4.845 -0.9206 -1.0937 -0.9569
 7117TIP3   OH242765   2.843   4.841  13.153  0.7870 -0.1534 -0.2403
 7117TIP3    H142766   2.757   4.844  13.110  1.6598  0.5831 -1.9922
 7117TIP3    H242767   2.823   4.840  13.246 -1.1034  1.5635 -0.5845
 7118TIP3   OH242768   2.156   4.720  11.992 -0.1221 -0.1570  0.3388
 7118TIP3    H142769   2.081   4.778  11.977 -0.5883 -0.8104  0.1240
 7118TIP3    H242770   2.170   4.723  12.087 -0.2163  0.2265  0.3393
 7119TIP3   OH242771   1.676   2.732  14.930  0.0828 -0.3379 -0.4029
 7119TIP3    H142772   1.715   2.819  14.918 -0.2350 -0.2790 -1.0837
 7119TIP3    H242773   1.652   2.729  15.022 -0.2615  0.4568 -0.4579
 7120TIP3   OH242774   6.073   2.028  11.504 -0.6799  1.1684  0.2325
 7120TIP3    H142775   6.151   2.072  11.471 -0.7406  0.7205 -0.5248
 7120TIP3    H242776   6.106   1.955  11.556 -0.5948  0.5174 -0.7280
 7121TIP3   OH242777   3.530   0.711  13.409  0.2542  0.7131  0.1081
 7121TIP3    H142778   3.436   0.698  13.420  0.4015  0.7149  1.4292
 7121TIP3    H242779   3.553   0.661  13.331 -0.9084  1.0148 -0.4260
 7122TIP3   OH242780   3.485   1.774  16.034  0.1365  0.1387  0.3336
 7122TIP3    H142781   3.429   1.710  15.990  2.8435 -0.8161 -1.9093
 7122TIP3    H242782   3.522   1.827  15.963  2.9543 -0.0376  1.5878
 7123TIP3   OH242783   2.071   1.697   4.437  0.7350  0.4562  0.2018
 7123TIP3    H142784   2.123   1.770   4.404  1.3263  0.6514  1.5083
 7123TIP3    H242785   2.137   1.634   4.469  0.2445 -0.7300 -1.0691
 7124TIP3   OH242786   2.662   1.879   4.095 -0.3817 -0.1415  0.1556
 7124TIP3    H142787   2.686   1.887   4.187  0.0336  0.9777 -0.0470
 7124TIP3    H242788   2.641   1.968   4.067 -1.3597 -0.5911 -0.6001
 7125TIP3   OH242789   2.641   6.449  16.836 -0.7755  0.3941  0.1909
 7125TIP3    H142790   2.558   6.485  16.866  0.7975  1.5118  3.4192
 7125TIP3    H242791   2.690   6.524  16.802  0.2555  0.3808  1.5851
 7126TIP3   OH242792   0.102   5.578  11.368  0.1848  0.1624 -0.8327
 7126TIP3    H142793   0.154   5.656  11.386  1.1339 -0.4644 -0.8194
 7126TIP3    H242794   0.011   5.605  11.386  0.6900  0.7168  0.9954
 7127TIP3   OH242795   1.659   6.075   1.142  0.3234  0.2657 -0.0239
 7127TIP3    H142796   1.738   6.034   1.176  0.1014 -0.6114 -0.5631
 7127TIP3    H242797   1.678   6.169   1.145  0.8549  0.1323  1.1461
 7128TIP3   OH242798   1.736   0.091   5.130  0.0164 -0.1142  0.0781
 7128TIP3    H142799   1.711   0.026   5.064  0.6831  0.3265 -0.6218
 7128TIP3    H242800   1.710   0.175   5.091  1.7080  0.2678 -0.2402
 7129TIP3   OH242801   0.436   5.985  14.036  0.0217 -0.1668  0.2678
 7129TIP3    H142802   0.405   5.909  13.988 -4.2968  1.1729  0.7012
 7129TIP3    H242803   0.477   5.949  14.115  0.2537 -2.0519 -0.6721
 7130TIP3   OH242804   4.862   4.226   5.214 -0.0352 -0.1556 -0.5764
 7130TIP3    H142805   4.826   4.221   5.125 -0.0508  1.0350 -0.6478
 7130TIP3    H242806   4.875   4.320   5.229 -1.0161 -0.2637  1.0789
 7131TIP3   OH242807   5.548   3.202  14.764  0.2818  0.2399  0.5454
 7131TIP3    H142808   5.557   3.294  14.739 -0.1500 -0.2372 -1.4298
 7131TIP3    H242809   5.595   3.154  14.697  0.4513 -1.0034  1.5358
 7132TIP3   OH242810   6.316   0.435  12.060  0.2056 -0.3607 -0.6478
 7132TIP3    H142811   6.290   0.361  12.005  2.2445 -0.7220 -1.1548
 7132TIP3    H242812   6.410   0.423  12.074  0.1263  0.9175  1.1315
 7133TIP3   OH242813   1.904   0.333   1.126 -0.2231 -0.0437  0.1860
 7133TIP3    H142814   1.912   0.254   1.074  0.4589 -0.7119  1.2838
 7133TIP3    H242815   1.883   0.302   1.214 -3.1131  1.1356 -0.0263
 7134TIP3   OH242816   3.464   2.979  10.475 -0.2023  0.5302  0.0106
 7134TIP3    H142817   3.457   3.048  10.541  1.1283  1.1237 -0.4430
 7134TIP3    H242818   3.529   2.919  10.510 -1.7726 -0.8199  0.6668
 7135TIP3   OH242819   3.245   0.306  16.593  0.1373  0.3659 -0.2485
 7135TIP3    H142820   3.325   0.314  16.541 -0.7765  0.6603 -1.6283
 7135TIP3    H242821   3.175   0.303  16.529 -0.8564 -1.6546  0.8986
 7136TIP3   OH242822   4.133   3.924  15.947  0.5685  0.8311 -0.0898
 7136TIP3    H142823   4.157   4.004  15.901 -0.4858 -0.2857 -2.6316
 7136TIP3    H242824   4.217   3.879  15.960  0.8863  1.2032 -0.8128
 7137TIP3   OH242825   1.698   1.942   1.562 -0.8898 -0.2415 -0.2598
 7137TIP3    H142826   1.643   1.999   1.616 -0.0198 -1.0598  1.5228
 7137TIP3    H242827   1.720   1.869   1.619  0.2976 -0.9905 -1.6486
 7138TIP3   OH242828   1.761   0.578   4.848 -0.4190 -0.0374 -0.0613
 7138TIP3    H142829   1.741   0.668   4.872 -0.7907 -0.1825  0.1871
 7138TIP3    H242830   1.855   0.569   4.865 -0.1055  0.6932 -1.3826
 7139TIP3   OH242831   0.905   2.849   6.655  0.3913 -0.0638 -0.1961
 7139TIP3    H142832   0.938   2.907   6.724  1.2465  0.0567 -0.6989
 7139TIP3    H242833   0.846   2.904   6.603 -0.9773 -0.3967  0.9678
 7140TIP3   OH242834   2.114   5.006  11.602  0.1108  0.3274 -0.2934
 7140TIP3    H142835   2.207   4.983  11.603 -0.0083 -0.1122  0.4307
 7140TIP3    H242836   2.106   5.069  11.529  1.4165  2.2804  1.1931
 7141TIP3   OH242837   3.804   5.780   1.790 -1.0116  0.1995 -0.0106
 7141TIP3    H142838   3.713   5.797   1.813 -0.4413  1.2557  1.6218
 7141TIP3    H242839   3.843   5.867   1.782 -0.3267 -0.2317 -1.4878
 7142TIP3   OH242840   1.337   6.076   1.875  0.7417  0.6999 -0.0472
 7142TIP3    H142841   1.431   6.091   1.887  1.0232  0.3829 -1.8046
 7142TIP3    H242842   1.304   6.062   1.964  2.5554 -0.3435  0.4902
 7143TIP3   OH242843   6.091   3.935   2.697 -0.5268  0.0969 -0.3228
 7143TIP3    H142844   6.107   3.847   2.730 -2.1924 -0.1538 -0.1379
 7143TIP3    H242845   6.029   3.973   2.758 -1.7872  0.4892 -1.8062
 7144TIP3   OH242846   0.029   5.498  13.971 -0.4879 -0.1151  0.0776
 7144TIP3    H142847  -0.012   5.493  13.884  1.2446  1.7932 -0.8867
 7144TIP3    H242848   0.084   5.420  13.975 -0.5966 -0.2286 -0.5272
 7145TIP3   OH242849   0.269   2.541   4.303  0.0911 -0.2975 -0.0753
 7145TIP3    H142850   0.211   2.542   4.227 -0.4003  0.7160  0.3131
 7145TIP3    H242851   0.353   2.574   4.270 -0.1355  0.1868 -0.1687
 7146TIP3   OH242852   5.776   4.332  13.933 -0.0016 -0.3695 -0.1440
 7146TIP3    H142853   5.760   4.350  14.025  0.6661 -1.2847  0.1626
 7146TIP3    H242854   5.780   4.419  13.891  0.8288  0.0970  0.8853
 7147TIP3   OH242855   2.764   2.846  13.194 -0.2674  0.2878  0.7343
 7147TIP3    H142856   2.846   2.874  13.234  0.5102 -0.1865 -0.5039
 7147TIP3    H242857   2.763   2.888  13.108 -1.2370  0.1435  0.6714
 7148TIP3   OH242858   2.680   1.786  17.121  0.0663 -0.4167  0.4452
 7148TIP3    H142859   2.680   1.769  17.026  1.7026 -0.7619  0.4922
 7148TIP3    H242860   2.748   1.853  17.134  0.4640 -1.0042  1.4699
 7149TIP3   OH242861   0.285   5.600  13.372  0.0549  0.0530 -0.2247
 7149TIP3    H142862   0.304   5.671  13.311 -1.2287 -0.1383 -0.8697
 7149TIP3    H242863   0.264   5.644  13.455 -0.2490  0.4036 -0.4879
 7150TIP3   OH242864   5.014   3.861   4.785  0.3034  0.1237  0.7646
 7150TIP3    H142865   5.095   3.834   4.829  1.8762  0.8063 -1.5888
 7150TIP3    H242866   5.044   3.915   4.711 -2.3246  0.5612 -0.0354
 7151TIP3   OH242867   5.721   0.342   0.703 -0.3203  0.0120 -0.5490
 7151TIP3    H142868   5.725   0.263   0.649 -1.1122  0.2220 -0.9201
 7151TIP3    H242869   5.643   0.388   0.673 -0.2342  0.6087  0.1233
 7152TIP3   OH242870   2.520   5.837  16.298  0.4968 -0.4526 -0.3348
 7152TIP3    H142871   2.543   5.916  16.250 -3.0408  0.6335 -0.3544
 7152TIP3    H242872   2.483   5.869  16.380 -1.4916 -2.0165 -0.5762
 7153TIP3   OH242873   5.483   0.747   4.168  0.2238 -0.5699 -0.1823
 7153TIP3    H142874   5.395   0.784   4.174  1.0284  1.5238 -0.6277
 7153TIP3    H242875   5.482   0.696   4.087  0.0358  1.2354 -1.3491
 7154TIP3   OH242876   5.366   0.862   1.542  0.0621 -0.5068  0.4566
 7154TIP3    H142877   5.326   0.837   1.626 -2.0643  0.5479 -0.2028
 7154TIP3    H242878   5.346   0.788   1.484  0.0095 -0.4564  0.4108
 7155TIP3   OH242879   6.091   4.356  12.880 -0.5513 -1.1114  0.3901
 7155TIP3    H142880   6.019   4.413  12.852  1.4192  0.7173 -1.0674
 7155TIP3    H242881   6.138   4.408  12.945  2.1926 -0.3794 -2.0976
 7156TIP3   OH242882   4.775   2.767  13.120 -0.2684 -0.6256 -0.1344
 7156TIP3    H142883   4.826   2.709  13.063 -1.2351 -0.2648 -1.3734
 7156TIP3    H242884   4.697   2.789  13.070 -1.0545 -0.1526  1.2615
 7157TIP3   OH242885   3.938   3.696   1.163  0.0236 -0.6913 -0.5242
 7157TIP3    H142886   3.937   3.619   1.219  1.3954 -0.3874 -0.0646
 7157TIP3    H242887   3.849   3.731   1.169 -0.3229 -1.6499  0.0719
 7158TIP3   OH242888   4.558   4.602  13.646  0.4961 -0.3757  0.3936
 7158TIP3    H142889   4.565   4.696  13.660  1.2860 -0.1945 -1.1198
 7158TIP3    H242890   4.648   4.569  13.656 -0.1300 -1.3891  3.5140
 7159TIP3   OH242891   1.265   0.729   3.731  0.1270 -0.2513  0.4167
 7159TIP3    H142892   1.325   0.788   3.777 -0.9586  0.7266  0.5986
 7159TIP3    H242893   1.178   0.764   3.750 -0.3636  0.0190 -2.2027
 7160TIP3   OH242894   2.890   3.922   1.613 -0.0375  0.0724  0.2279
 7160TIP3    H142895   2.821   3.858   1.597  0.4342 -0.7562  1.4965
 7160TIP3    H242896   2.934   3.931   1.528 -0.9805 -0.2175 -0.3051
 7161TIP3   OH242897   2.582   5.078  16.518  0.1151  0.1167 -0.2090
 7161TIP3    H142898   2.673   5.106  16.516 -0.4162  1.9876  0.4402
 7161TIP3    H242899   2.550   5.093  16.429 -0.7793  3.8840  0.6499
 7162TIP3   OH242900   5.158   0.030  12.348 -0.2475  0.1070 -0.2659
 7162TIP3    H142901   5.227  -0.034  12.365 -1.8311 -1.3419  0.8531
 7162TIP3    H242902   5.196   0.114  12.373  1.0254 -0.6916  0.5344
 7163TIP3   OH242903   2.097   2.137   1.329 -0.0794 -0.2790 -0.1346
 7163TIP3    H142904   2.007   2.112   1.310  0.0686 -0.8810 -0.0490
 7163TIP3    H242905   2.092   2.230   1.353 -0.5686 -0.1130 -0.8832
 7164TIP3   OH242906   4.884   6.674  13.229 -0.7063 -0.3768 -0.0762
 7164TIP3    H142907   4.943   6.734  13.183 -1.4888  0.0735 -0.5098
 7164TIP3    H242908   4.929   6.654  13.310 -0.7864  1.4869  0.4641
 7165TIP3   OH242909   2.855   6.722  11.911  0.2737 -0.2418  0.1588
 7165TIP3    H142910   2.794   6.707  11.983  0.8493  1.2927  0.9955
 7165TIP3    H242911   2.866   6.817  11.908  1.3229 -0.3848 -1.0683
 7166TIP3   OH242912   5.266   2.121   4.150 -0.0840 -0.2594  0.9184
 7166TIP3    H142913   5.190   2.064   4.135 -0.3338  0.4389 -0.5544
 7166TIP3    H242914   5.242   2.173   4.226 -0.4585 -1.1015  1.3886
 7167TIP3   OH242915   6.533   4.824  11.241  0.3662  0.3518  0.1031
 7167TIP3    H142916   6.450   4.799  11.202  0.0540  0.4604  0.6837
 7167TIP3    H242917   6.565   4.745  11.284 -0.4887  0.8533  1.7076
 7168TIP3   OH242918   0.103   3.452  14.529  0.2453  0.0927 -1.0645
 7168TIP3    H142919   0.088   3.536  14.485 -1.1366 -0.0799 -0.9527
 7168TIP3    H242920   0.099   3.473  14.622 -0.6476 -0.1831 -1.0359
 7169TIP3   OH242921   5.298   6.432   1.058 -0.9833  0.1885 -0.1328
 7169TIP3    H142922   5.363   6.372   1.022 -1.7163 -0.4684 -0.3810
 7169TIP3    H242923   5.283   6.401   1.147 -2.2146 -0.7137 -0.6434
 7170TIP3   OH242924   5.612   3.351   5.675  0.0231 -0.7510  0.1110
 7170TIP3    H142925   5.604   3.431   5.728 -3.3744 -1.1414  0.2917
 7170TIP3    H242926   5.693   3.363   5.626 -0.5569  2.9400 -0.0867
 7171TIP3   OH242927   1.813   4.497   3.722  0.0702  0.2080 -0.7591
 7171TIP3    H142928   1.733   4.446   3.738  0.1051  0.1252 -0.8467
 7171TIP3    H242929   1.859   4.497   3.805  1.4986 -2.3666 -1.4946
 7172TIP3   OH242930   5.856   0.926   1.999 -0.5210 -0.6951 -0.3607
 7172TIP3    H142931   5.786   0.906   1.938 -0.7225  0.1936 -0.4258
 7172TIP3    H242932   5.871   1.021   1.990  0.6554 -0.8614 -0.3300
 7173TIP3   OH242933   0.011   4.368   2.253 -0.3007 -0.0751 -0.0539
 7173TIP3    H142934  -0.010   4.322   2.172 -0.9216 -0.7298  0.4777
 7173TIP3    H242935   0.086   4.424   2.230 -0.2911 -0.4708 -1.0002
 7174TIP3   OH242936   6.470   3.928  11.499 -0.1368 -0.0984  0.7501
 7174TIP3    H142937   6.401   3.980  11.458 -0.2233 -0.3193  0.6145
 7174TIP3    H242938   6.426   3.881  11.570 -0.4493 -1.3783 -0.2550
 7175TIP3   OH242939   0.890   5.313  12.600 -0.5707  0.0015  0.5576
 7175TIP3    H142940   0.817   5.369  12.625 -0.7972 -0.3434  0.6637
 7175TIP3    H242941   0.874   5.292  12.508  0.8783  2.2392 -0.2757
 7176TIP3   OH242942   6.699   3.977  15.778 -0.1900 -0.1027 -0.1441
 7176TIP3    H142943   6.654   3.997  15.860 -0.8254 -0.0106 -0.5047
 7176TIP3    H242944   6.792   3.984  15.799 -0.3612  0.9919  0.3023
 7177TIP3   OH242945   0.214   4.278   1.689 -0.2567  0.3040  0.5326
 7177TIP3    H142946   0.136   4.303   1.639 -0.0710 -0.8615 -0.3740
 7177TIP3    H242947   0.285   4.327   1.649 -0.2630  0.0897  0.2533
 7178TIP3   OH242948   1.250   6.190  15.359 -0.3266 -0.2445 -0.2204
 7178TIP3    H142949   1.225   6.275  15.396  0.0396 -0.7389  1.1819
 7178TIP3    H242950   1.202   6.185  15.276 -0.7883  1.0779 -0.0484
 7179TIP3   OH242951   1.771   2.364   4.883 -0.3133 -0.2573 -0.1628
 7179TIP3    H142952   1.781   2.272   4.908 -0.3292 -1.0105 -2.8007
 7179TIP3    H242953   1.755   2.362   4.789  1.9510  2.6028 -0.6721
 7180TIP3   OH242954   1.352   1.590   3.299 -0.2668 -0.0448  0.1298
 7180TIP3    H142955   1.351   1.503   3.338 -1.0000 -0.5390 -0.9326
 7180TIP3    H242956   1.398   1.578   3.215  0.2167  0.7258  0.2832
 7181TIP3   OH242957   6.466   3.175  12.979  0.0485  0.2044  0.0753
 7181TIP3    H142958   6.475   3.254  12.927 -1.6026  1.2935  1.3866
 7181TIP3    H242959   6.384   3.136  12.950  0.8376 -1.0268 -0.5444
 7182TIP3   OH242960   2.302   4.031   5.073  0.3327  1.0430 -0.5391
 7182TIP3    H142961   2.276   4.028   4.981  1.4791  0.5355 -0.8602
 7182TIP3    H242962   2.392   4.065   5.072  0.5308  0.5824  0.3461
 7183TIP3   OH242963   4.416   4.131   2.087  0.1901  0.5068 -0.2738
 7183TIP3    H142964   4.502   4.125   2.129  0.3097  2.0812 -0.2660
 7183TIP3    H242965   4.397   4.042   2.058  1.2183 -0.1211  0.9339
 7184TIP3   OH242966   3.206   0.387  15.540 -0.2549 -0.5825  0.0829
 7184TIP3    H142967   3.296   0.404  15.566 -1.1132  0.7847  2.2487
 7184TIP3    H242968   3.205   0.404  15.445  1.4250  0.8294  0.2999
 7185TIP3   OH242969   0.974   2.818  11.751  0.2700 -0.2043  0.0026
 7185TIP3    H142970   1.023   2.880  11.697 -0.1155 -0.8471 -1.1083
 7185TIP3    H242971   0.925   2.873  11.812  0.8833  0.5212 -0.1486
 7186TIP3   OH242972   2.438   1.645  12.635 -0.0711 -0.1974  0.4814
 7186TIP3    H142973   2.516   1.669  12.684  0.6284 -0.4294 -0.4862
 7186TIP3    H242974   2.394   1.728  12.617  1.2541  0.1925 -1.0821
 7187TIP3   OH242975   6.585   5.833   6.096 -0.1102 -0.1285  1.0640
 7187TIP3    H142976   6.664   5.869   6.137  0.2103 -0.3451  0.6410
 7187TIP3    H242977   6.550   5.773   6.161  0.5615 -0.6993  0.9061
 7188TIP3   OH242978   2.656   6.226   4.182  0.4844 -0.1607  0.0004
 7188TIP3    H142979   2.638   6.139   4.219  0.5590 -1.0552 -2.0011
 7188TIP3    H242980   2.724   6.262   4.239  0.1807 -1.2409  1.0852
 7189TIP3   OH242981   1.339   4.993   4.034  0.3515 -0.0404  0.3802
 7189TIP3    H142982   1.301   4.905   4.022 -0.7202  0.5944 -1.1554
 7189TIP3    H242983   1.422   4.990   3.986 -0.5557  0.3103 -1.2744
 7190TIP3   OH242984   6.048   2.213   0.365 -0.3743  0.0991  0.1590
 7190TIP3    H142985   6.138   2.234   0.342  0.0385 -0.9848  0.7547
 7190TIP3    H242986   5.996   2.242   0.289  0.6952 -1.1906 -1.0756
 7191TIP3   OH242987   5.565   1.477  10.677  0.6365 -0.7077 -0.6605
 7191TIP3    H142988   5.496   1.510  10.620  0.0056  1.0797  1.0983
 7191TIP3    H242989   5.646   1.509  10.638  0.2308  0.2499 -0.7231
 7192TIP3   OH242990   3.661   3.538  13.107 -0.3771 -0.7745 -0.2529
 7192TIP3    H142991   3.726   3.566  13.042 -1.9497  0.5081 -1.3183
 7192TIP3    H242992   3.647   3.445  13.089  1.1769 -1.0703  0.0161
 7193TIP3   OH242993   1.623   1.558   0.765 -0.5968  0.3313  0.1613
 7193TIP3    H142994   1.549   1.573   0.823 -0.8502  1.3009 -0.4108
 7193TIP3    H242995   1.675   1.638   0.771  0.0376 -0.0686  0.0257
 7194TIP3   OH242996   5.017   2.135  15.947 -0.2537  0.0572  0.1337
 7194TIP3    H142997   5.089   2.076  15.922 -0.8053 -0.0866 -1.1625
 7194TIP3    H242998   4.981   2.165  15.863  0.5657  2.9066  0.7513
 7195TIP3   OH242999   4.622   1.957   0.274  0.5059  0.4708 -0.5413
 7195TIP3    H143000   4.651   1.978   0.363 -0.3553  1.0198 -0.3914
 7195TIP3    H243001   4.530   1.934   0.283  0.5975 -0.1831 -1.1894
 7196TIP3   OH243002   5.497   3.558  12.989  0.2264  0.2072  0.6950
 7196TIP3    H143003   5.518   3.650  12.999 -0.7621  0.4654  0.4944
 7196TIP3    H243004   5.533   3.534  12.904 -0.4495  0.6878  0.2694
 7197TIP3   OH243005   3.190   4.341   1.765 -0.3967  0.0017 -0.0577
 7197TIP3    H143006   3.133   4.321   1.691 -2.0529 -0.4707  1.3104
 7197TIP3    H243007   3.246   4.264   1.774 -0.5005 -0.1311 -0.5293
 7198TIP3   OH243008   1.160   0.389  14.836  0.9074 -0.3903  0.3175
 7198TIP3    H143009   1.082   0.348  14.873  3.4074 -1.1918  5.1708
 7198TIP3    H243010   1.131   0.477  14.811 -1.1922 -0.0599  3.6343
 7199TIP3   OH243011   5.385   4.437   5.299  0.3413 -0.0540 -0.1465
 7199TIP3    H143012   5.473   4.420   5.265  0.0456  0.6640 -1.3283
 7199TIP3    H243013   5.335   4.359   5.274  1.2847 -1.7389  3.0088
 7200TIP3   OH243014   1.562   4.309   2.511 -0.8135 -0.4381 -0.2559
 7200TIP3    H143015   1.532   4.240   2.570  0.9826 -0.2368  0.9511
 7200TIP3    H243016   1.563   4.388   2.564  0.3520 -0.1530 -0.6680
 7201TIP3   OH243017   1.054   4.025   3.306  0.2862 -0.6375  0.5278
 7201TIP3    H143018   1.092   3.971   3.236 -1.0093 -2.6064  1.3147
 7201TIP3    H243019   1.110   4.009   3.382  1.3577  1.0634  0.1153
 7202TIP3   OH243020   2.596   5.317   4.096  0.7211 -0.4386 -0.1183
 7202TIP3    H143021   2.551   5.238   4.128 -0.1996 -0.3711 -1.2507
 7202TIP3    H243022   2.616   5.366   4.175  1.0774 -1.6915  0.5892
 7203TIP3   OH243023   2.899   5.066  15.966 -0.1974  0.0744  0.1388
 7203TIP3    H143024   2.966   5.123  16.005 -1.2666  0.7368  1.0223
 7203TIP3    H243025   2.858   5.119  15.898 -0.8350  0.1631  0.5982
 7204TIP3   OH243026   6.162   2.318   2.804  0.1641 -0.1212  0.2561
 7204TIP3    H143027   6.156   2.222   2.804 -2.4709  0.0218 -1.4352
 7204TIP3    H243028   6.108   2.345   2.878  3.2642  0.0087  2.5947
 7205TIP3   OH243029   4.020   3.175  15.342 -0.0751  0.2479  0.4387
 7205TIP3    H143030   4.112   3.156  15.323 -0.4654 -1.0371 -0.1950
 7205TIP3    H243031   4.016   3.175  15.438  0.3621 -0.8815  0.4704
 7206TIP3   OH243032   5.788   3.460   0.190 -0.2078  0.1957  0.5673
 7206TIP3    H143033   5.701   3.427   0.213  0.1657 -0.6384  0.8094
 7206TIP3    H243034   5.843   3.440   0.266  0.4035 -0.1097  0.0539
 7207TIP3   OH243035   1.520   0.180   0.825  0.2870  0.3658  0.1864
 7207TIP3    H143036   1.498   0.273   0.835  1.2171  0.3916  2.1510
 7207TIP3    H243037   1.558   0.155   0.909  1.1717 -1.4932 -0.7397
 7208TIP3   OH243038   1.378   3.984  12.693 -0.3593  0.1354 -0.4181
 7208TIP3    H143039   1.284   3.996  12.690 -0.6531 -1.8058  0.7206
 7208TIP3    H243040   1.394   3.926  12.767  2.0088  2.8079  1.2664
 7209TIP3   OH243041   4.257   5.343   2.473 -0.1814  0.3387 -0.7654
 7209TIP3    H143042   4.314   5.270   2.497  0.0621  0.8384  0.1896
 7209TIP3    H243043   4.191   5.304   2.416  0.1861 -0.5494 -0.5871
 7210TIP3   OH243044   1.421   2.304  16.224 -0.1351 -0.3392  0.2307
 7210TIP3    H143045   1.512   2.300  16.254 -0.1688 -1.6927  0.2163
 7210TIP3    H243046   1.427   2.302  16.128 -0.1606  0.1234  0.2199
 7211TIP3   OH243047   4.005   0.777  12.464 -0.3016  0.0648 -0.3399
 7211TIP3    H143048   4.086   0.821  12.492 -0.9828  0.4860  1.0297
 7211TIP3    H243049   3.935   0.836  12.493 -1.1712 -1.2201  0.2211
 7212TIP3   OH243050   2.632   2.506   2.065 -0.1428  0.1361 -0.3891
 7212TIP3    H143051   2.657   2.555   1.987  1.7467  2.1423  1.4350
 7212TIP3    H243052   2.709   2.454   2.087 -1.0743 -1.3501 -0.4876
 7213TIP3   OH243053   5.028   3.204  14.923  0.0110  0.4789  0.2313
 7213TIP3    H143054   4.992   3.181  15.009 -1.7904 -0.1019 -0.6561
 7213TIP3    H243055   5.061   3.121  14.888  0.1710  0.6000  0.0921
 7214TIP3   OH243056   0.553   3.752   3.594  0.5300 -0.1063 -0.3942
 7214TIP3    H143057   0.640   3.774   3.627  0.4619  1.2288 -1.0996
 7214TIP3    H243058   0.562   3.752   3.499 -0.6142  1.6184 -0.5108
 7215TIP3   OH243059   3.663   0.514   2.856 -0.9128 -0.5937 -0.4942
 7215TIP3    H143060   3.689   0.600   2.821  0.1551 -1.3522 -1.5995
 7215TIP3    H243061   3.574   0.528   2.888 -0.3528  1.2272  0.4055
 7216TIP3   OH243062   2.974   4.437  14.232 -0.5199  0.6377  0.2463
 7216TIP3    H143063   2.928   4.433  14.315 -0.7403  0.6546  0.1271
 7216TIP3    H243064   2.905   4.453  14.167 -0.2299  1.6426  0.1781
 7217TIP3   OH243065   0.821   0.932  14.628  0.2551  0.1869  0.2054
 7217TIP3    H143066   0.727   0.945  14.618  0.3808  0.5534 -0.5652
 7217TIP3    H243067   0.833   0.903  14.718 -0.5566  0.5057  0.4129
 7218TIP3   OH243068   0.077   4.405   1.499  0.4147  0.5066  0.5063
 7218TIP3    H143069   0.080   4.416   1.404 -0.2729 -0.8098  0.3194
 7218TIP3    H243070   0.052   4.491   1.533 -0.2699  0.7377 -0.5637
 7219TIP3   OH243071   2.004   0.260   5.822  0.2871 -0.7671  0.6520
 7219TIP3    H143072   2.064   0.276   5.750  1.2122 -0.5297  1.4611
 7219TIP3    H243073   1.979   0.168   5.813  1.9154 -1.2787  1.1487
 7220TIP3   OH243074   1.566   5.027  14.444 -0.2060 -0.1276 -0.4438
 7220TIP3    H143075   1.504   4.957  14.464 -1.0650  0.9324  0.6968
 7220TIP3    H243076   1.636   5.016  14.509  1.0439 -1.5798 -1.9963
 7221TIP3   OH243077   2.658   3.776  16.269  0.0726  0.1926 -0.5889
 7221TIP3    H143078   2.703   3.858  16.286 -0.2291  0.1048  0.7009
 7221TIP3    H243079   2.580   3.801  16.219 -0.2791  0.7494  0.2376
 7222TIP3   OH243080   4.426   6.418   2.084  0.1490  0.0182 -0.4461
 7222TIP3    H143081   4.414   6.326   2.108 -1.1438  0.5867  1.1699
 7222TIP3    H243082   4.385   6.425   1.998 -0.8742 -0.6521 -0.0316
 7223TIP3   OH243083   6.139   2.956   5.500  0.0768  0.1386  0.5337
 7223TIP3    H143084   6.178   3.033   5.458  1.7039 -1.5594 -1.1953
 7223TIP3    H243085   6.214   2.902   5.523 -1.1446 -1.9747 -0.3754
 7224TIP3   OH243086   2.041   2.003  16.746  0.2444 -0.5926  0.1464
 7224TIP3    H143087   1.981   2.078  16.746 -1.0388 -1.6021  1.6695
 7224TIP3    H243088   2.068   1.993  16.837 -1.8652 -3.7360  0.4959
 7225TIP3   OH243089   2.761   4.212   1.243 -0.2098  0.3205 -0.3911
 7225TIP3    H143090   2.700   4.234   1.313  0.0815 -0.2503  0.0484
 7225TIP3    H243091   2.753   4.117   1.232  0.8796  0.1797 -0.0559
 7226TIP3   OH243092   4.359   5.641  10.640  0.0785  0.1032 -0.5105
 7226TIP3    H143093   4.400   5.725  10.619 -1.2063  0.5643 -1.2287
 7226TIP3    H243094   4.266   5.662  10.654 -0.0557 -1.0301  0.3510
 7227TIP3   OH243095   3.409   0.106  14.226 -0.2575 -0.0023  0.1927
 7227TIP3    H143096   3.503   0.113  14.210 -0.4472 -0.0139 -0.9783
 7227TIP3    H243097   3.369   0.126  14.141 -1.2308 -1.9506  0.1567
 7228TIP3   OH243098   0.646   0.086  14.595 -0.3053  0.0048  0.8222
 7228TIP3    H143099   0.654   0.181  14.587  0.7378 -0.1250  0.1767
 7228TIP3    H243100   0.591   0.072  14.672  1.2719  1.0866  2.1636
 7229TIP3   OH243101   4.659   3.202  14.518 -0.0208 -0.3128 -0.7755
 7229TIP3    H143102   4.695   3.277  14.472  0.0460 -0.9344 -1.7415
 7229TIP3    H243103   4.564   3.208  14.504 -0.1814  0.5447  0.5943
 7230TIP3   OH243104   1.603   3.354   1.217 -0.3849  0.1769 -0.4146
 7230TIP3    H143105   1.641   3.273   1.181  0.6683  1.6424 -2.6690
 7230TIP3    H243106   1.678   3.407   1.241 -1.0568  1.3708 -0.9349
 7231TIP3   OH243107   5.820   2.129   2.317  0.1130  0.0872  0.6487
 7231TIP3    H143108   5.860   2.043   2.308  0.1761  0.2909 -1.1950
 7231TIP3    H243109   5.731   2.118   2.284 -0.1985  0.4822  1.3658
 7232TIP3   OH243110   2.420   5.296  15.279 -0.1536  0.3480  0.1063
 7232TIP3    H143111   2.452   5.211  15.311 -0.8637  0.2007  0.4420
 7232TIP3    H243112   2.429   5.290  15.184  0.5692  0.2119  0.1797
 7233TIP3   OH243113   3.266   4.433  16.185  1.0429 -0.2243  0.3535
 7233TIP3    H143114   3.318   4.394  16.114 -2.2942 -0.7891 -1.8867
 7233TIP3    H243115   3.216   4.360  16.221 -3.0723  1.3187 -1.9379
 7234TIP3   OH243116   0.804   2.797  13.890  0.5781  0.5165 -0.6058
 7234TIP3    H143117   0.801   2.819  13.984 -0.5430  0.8576 -0.7119
 7234TIP3    H243118   0.740   2.856  13.850 -0.2412 -0.8479 -1.3365
 7235TIP3   OH243119   4.534   2.701   4.049  0.6338  0.2042  0.1508
 7235TIP3    H143120   4.622   2.665   4.047  1.2474  1.7492 -1.2295
 7235TIP3    H243121   4.531   2.753   4.129  0.9781  0.1835  0.1775
 7236TIP3   OH243122   5.954   2.822  13.962 -0.0143  0.0616  0.2011
 7236TIP3    H143123   5.931   2.853  14.050 -2.5490  1.6096 -0.9602
 7236TIP3    H243124   5.931   2.729  13.963 -1.2013  0.3487  0.8015
 7237TIP3   OH243125   0.613   5.530  11.237 -0.1524  0.1629  0.0079
 7237TIP3    H143126   0.663   5.464  11.284  0.2622  1.4278  1.3870
 7237TIP3    H243127   0.557   5.480  11.177  0.4527 -1.3988  0.7190
 7238TIP3   OH243128   5.459   3.496   2.001  0.4663 -0.0108 -0.3225
 7238TIP3    H143129   5.379   3.461   1.962 -0.0199  0.4362  0.2583
 7238TIP3    H243130   5.475   3.577   1.953  1.4017 -0.8448 -1.4380
 7239TIP3   OH243131   1.675   6.282  17.033  0.6634  0.1799  0.0041
 7239TIP3    H143132   1.596   6.279  16.979  2.5338 -0.1991 -2.8059
 7239TIP3    H243133   1.665   6.361  17.087 -1.7115  0.0125 -0.1602
 7240TIP3   OH243134   4.374   2.489   4.849  0.4954 -0.4477  0.1124
 7240TIP3    H143135   4.350   2.567   4.899  0.4134  0.0448 -0.7028
 7240TIP3    H243136   4.325   2.418   4.891  0.9644 -0.1600  1.1820
 7241TIP3   OH243137   5.115   3.367   4.656  0.1312  0.1719 -0.4651
 7241TIP3    H143138   5.104   3.461   4.644 -0.3332  0.4406  1.8763
 7241TIP3    H243139   5.126   3.355   4.750 -0.1363 -2.1542 -0.6851
 7242TIP3   OH243140   5.643   4.476   5.224  0.2377 -0.0514  0.7080
 7242TIP3    H143141   5.633   4.550   5.164  0.4371 -2.2975 -2.2325
 7242TIP3    H243142   5.719   4.499   5.278  3.9824 -0.4326 -3.9675
 7243TIP3   OH243143   1.146   0.871  16.081  0.6660  0.1404 -0.7751
 7243TIP3    H143144   1.171   0.890  16.171 -1.3026  0.4448 -0.2600
 7243TIP3    H243145   1.064   0.822  16.088  1.7326 -1.9443 -2.3430
 7244TIP3   OH243146   5.332   4.938   4.298 -0.0679 -0.1482 -0.5795
 7244TIP3    H143147   5.353   4.966   4.387  1.5503  1.9466 -1.5801
 7244TIP3    H243148   5.402   4.876   4.276  0.0149 -0.0201 -0.6807
 7245TIP3   OH243149   1.074   1.138   2.004 -0.0748 -0.7427  0.3805
 7245TIP3    H143150   1.045   1.061   1.954 -2.5327  0.5249 -0.2140
 7245TIP3    H243151   1.017   1.138   2.082  1.5169 -0.8392  1.5608
 7246TIP3   OH243152   3.942   4.924   1.815  0.1578 -0.3232 -0.5599
 7246TIP3    H143153   4.006   4.886   1.755  0.8183 -1.3179  0.7434
 7246TIP3    H243154   3.870   4.860   1.815  0.2575 -0.4340 -0.1249
 7247TIP3   OH243155   5.474   5.647  13.132  0.3306  0.5380  0.0074
 7247TIP3    H143156   5.385   5.619  13.110  0.5935  0.1442 -0.5527
 7247TIP3    H243157   5.469   5.671  13.225 -0.2065 -0.1188  0.1529
 7248TIP3   OH243158   1.857   3.405   2.513 -0.4610  0.5898  0.5955
 7248TIP3    H143159   1.952   3.399   2.521 -0.5107  0.1849  0.9005
 7248TIP3    H243160   1.827   3.432   2.600 -0.6278  0.6850  0.5078
 7249TIP3   OH243161   0.715   3.939  11.846  0.2858  0.1861  0.1686
 7249TIP3    H143162   0.730   4.016  11.900  0.0211  0.5429 -0.2655
 7249TIP3    H243163   0.662   3.881  11.902  0.3443  0.3830  0.4307
 7250TIP3   OH243164   6.038   1.754   1.836  0.2201  0.4032  0.3787
 7250TIP3    H143165   6.105   1.686   1.834  0.5575  0.7341 -1.5576
 7250TIP3    H243166   6.082   1.830   1.796 -1.5321  0.3673 -1.7174
 7251TIP3   OH243167   2.420   2.490   6.496  0.2266  0.2036 -0.3108
 7251TIP3    H143168   2.486   2.526   6.554 -0.8379  2.6961 -0.6143
 7251TIP3    H243169   2.342   2.480   6.550  0.0327 -0.1148 -0.6415
 7252TIP3   OH243170   5.903   4.585  12.014 -0.1908  0.3276  0.2264
 7252TIP3    H143171   5.995   4.566  11.995 -0.7352 -1.4885 -0.6699
 7252TIP3    H243172   5.868   4.619  11.932 -0.6066 -0.0801  0.2334
 7253TIP3   OH243173   4.945   1.344  12.562 -0.1346 -0.0926  0.1019
 7253TIP3    H143174   4.991   1.421  12.597 -0.2799  0.6319 -1.2722
 7253TIP3    H243175   4.866   1.380  12.522 -1.6948 -1.2889  2.0483
 7254TIP3   OH243176   1.065   2.767  15.289 -0.3405  0.1647  0.3953
 7254TIP3    H143177   1.021   2.708  15.350 -0.1819  1.0462  1.3848
 7254TIP3    H243178   0.995   2.798  15.231 -0.4188 -0.9913 -0.1424
 7255TIP3   OH243179   0.855   1.211  13.482  0.7617 -0.1170  0.3923
 7255TIP3    H143180   0.892   1.295  13.508  1.5316 -1.1061  2.6059
 7255TIP3    H243181   0.929   1.151  13.483 -0.2978 -1.4479  1.7605
 7256TIP3   OH243182   5.886   5.927  14.214  0.0871  0.2176  0.4223
 7256TIP3    H143183   5.856   5.843  14.248 -2.6239  0.2246 -1.7901
 7256TIP3    H243184   5.853   5.991  14.277  0.1183 -0.1786  0.8501
 7257TIP3   OH243185   3.474   1.316  15.884 -0.1337  0.0302 -0.0056
 7257TIP3    H143186   3.410   1.387  15.875 -0.2767 -0.3268 -1.9392
 7257TIP3    H243187   3.443   1.267  15.960 -1.0602  0.9951  0.2653
 7258TIP3   OH243188   2.179   4.221   5.239 -0.7597 -0.2736  0.2291
 7258TIP3    H143189   2.144   4.309   5.239 -0.4419 -0.1335 -0.8575
 7258TIP3    H243190   2.179   4.195   5.146  1.2407 -0.5486  0.2678
 7259TIP3   OH243191   6.662   6.591   1.656  0.4803  0.1022 -0.1569
 7259TIP3    H143192   6.637   6.551   1.739  0.5353  1.5483  0.5713
 7259TIP3    H243193   6.691   6.518   1.602  0.3736 -0.8623  1.0746
 7260TIP3   OH243194   4.828   2.766   0.435  0.1461  0.2733  0.0676
 7260TIP3    H143195   4.873   2.687   0.465 -0.1737  0.3402  0.7257
 7260TIP3    H243196   4.736   2.741   0.432  0.1554  0.3286 -0.6679
 7261TIP3   OH243197   6.210   0.662  15.758  0.0155  0.0087  0.5802
 7261TIP3    H143198   6.158   0.709  15.824  2.0860  1.1309  1.4584
 7261TIP3    H243199   6.278   0.617  15.809 -1.0884 -2.9074 -0.3737
 7262TIP3   OH243200   5.464   3.132   5.753  0.0396 -0.1057 -0.2895
 7262TIP3    H143201   5.409   3.200   5.792  0.1789  0.9658 -1.8999
 7262TIP3    H243202   5.545   3.178   5.730  0.3590 -0.9501 -0.8663
 7263TIP3   OH243203   5.605   2.274  15.775  0.2025 -0.1505  0.2857
 7263TIP3    H143204   5.632   2.195  15.822  0.5249  0.6280  1.4233
 7263TIP3    H243205   5.669   2.340  15.801 -1.2319  1.0110  0.9042
 7264TIP3   OH243206   2.475   0.146  16.373 -0.6029  0.3679  0.3158
 7264TIP3    H143207   2.510   0.230  16.403  0.0101 -0.1931  1.2167
 7264TIP3    H243208   2.553   0.092  16.357 -0.9812  0.1053 -0.6534
 7265TIP3   OH243209   0.162   4.971  13.023 -0.1936 -0.3964  0.5800
 7265TIP3    H143210   0.137   4.980  13.114  0.0442  2.2309  0.4061
 7265TIP3    H243211   0.084   4.933  12.981 -1.2516  0.8386  1.3890
 7266TIP3   OH243212   3.188   2.782   3.733  0.8455 -0.4472  0.3950
 7266TIP3    H143213   3.215   2.721   3.664  1.6655 -0.1975  0.4913
 7266TIP3    H243214   3.229   2.865   3.708 -1.3228  0.4204 -0.4547
 7267TIP3   OH243215   4.518   3.574   1.448  0.1272 -0.5054  0.1010
 7267TIP3    H143216   4.499   3.484   1.423  2.1650 -1.5142  2.0380
 7267TIP3    H243217   4.604   3.592   1.412  2.4344 -1.4769  4.7557
 7268TIP3   OH243218   2.431   0.952  12.220  0.1333  0.1977 -0.2614
 7268TIP3    H143219   2.337   0.960  12.203 -0.2568  0.1871  1.8545
 7268TIP3    H243220   2.455   1.034  12.264  0.6341 -0.8277  1.3774
 7269TIP3   OH243221   4.686   3.229  12.354  0.0580  0.7706  0.1106
 7269TIP3    H143222   4.633   3.306  12.335 -1.4554  0.0748  1.4374
 7269TIP3    H243223   4.710   3.238  12.446  0.3777 -0.0419  0.1131
 7270TIP3   OH243224   4.086   2.317   2.026 -0.0541  0.5870  0.3622
 7270TIP3    H143225   4.174   2.330   2.062 -0.0814 -1.2901  1.1333
 7270TIP3    H243226   4.058   2.405   2.000  0.8197  1.7050  2.9801
 7271TIP3   OH243227   6.575   5.861   2.867  0.1599  0.4659 -0.0418
 7271TIP3    H143228   6.658   5.909   2.871  0.9930 -0.7916 -1.3595
 7271TIP3    H243229   6.511   5.918   2.909  1.7741  1.3148  1.3133
 7272TIP3   OH243230   3.273   5.883   3.704 -0.2575  0.0717  0.4992
 7272TIP3    H143231   3.294   5.893   3.797 -2.8159  0.8174  1.0307
 7272TIP3    H243232   3.297   5.967   3.665  0.5958 -0.1578  0.5246
 7273TIP3   OH243233   0.009   4.681   5.516 -0.1774 -0.6708  0.1789
 7273TIP3    H143234   0.030   4.694   5.608  1.7678 -0.7234 -0.2393
 7273TIP3    H243235   0.083   4.719   5.469 -1.7794  0.5617 -1.4124
 7274TIP3   OH243236   4.213   0.949  12.716 -0.0111  0.3042  0.6292
 7274TIP3    H143237   4.267   0.960  12.638  0.9471 -0.6018  1.1554
 7274TIP3    H243238   4.136   1.003  12.699  1.1178  1.7420 -0.0656
 7275TIP3   OH243239   0.087   4.412  14.526 -0.1578  0.5631 -0.0030
 7275TIP3    H143240   0.097   4.466  14.448 -2.5237  0.1145 -0.6576
 7275TIP3    H243241   0.140   4.456  14.593  1.6604  1.1074 -1.7550
 7276TIP3   OH243242   1.396   2.367  15.635  0.2919 -0.1849  0.1321
 7276TIP3    H143243   1.416   2.299  15.570  0.3813  2.3534 -2.6117
 7276TIP3    H243244   1.463   2.434  15.622 -1.4664  1.7617  0.7720
 7277TIP3   OH243245   5.495   5.984  16.141 -0.3560  0.5787  0.0099
 7277TIP3    H143246   5.551   6.047  16.096  1.4295 -0.9626 -0.0248
 7277TIP3    H243247   5.557   5.928  16.189 -2.0164  0.1085  1.6580
 7278TIP3   OH243248   4.258   4.424  15.018 -0.0516  0.6257 -0.3939
 7278TIP3    H143249   4.330   4.363  15.034  1.0360  2.3451  1.5947
 7278TIP3    H243250   4.180   4.369  15.017  1.1719 -1.1347 -1.4452
 7279TIP3   OH243251   5.106   5.119  15.232 -0.3817 -0.4560  0.6037
 7279TIP3    H143252   5.079   5.195  15.181  0.7573 -0.7332 -0.4396
 7279TIP3    H243253   5.108   5.047  15.168 -0.9151 -1.2402  1.4633
 7280TIP3   OH243254   5.985   3.221   0.200 -0.4563 -0.3556  0.2897
 7280TIP3    H143255   5.944   3.167   0.268 -2.1610 -2.7613 -2.5087
 7280TIP3    H243256   5.935   3.303   0.201 -1.5101 -0.9945  0.8655
 7281TIP3   OH243257   5.247   4.403   3.092  0.0613 -0.3343 -0.4450
 7281TIP3    H143258   5.304   4.456   3.149  0.6457 -2.8159  1.3610
 7281TIP3    H243259   5.160   4.440   3.104  0.6420  0.9476 -0.1098
 7282TIP3   OH243260   0.281   5.585  15.215 -0.1969  0.3207 -0.6914
 7282TIP3    H143261   0.270   5.655  15.279  0.6471  1.6105 -1.9337
 7282TIP3    H243262   0.369   5.598  15.180  0.4979 -2.2002  0.0402
 7283TIP3   OH243263   4.019   5.703   4.941 -0.4195  0.0219  0.0478
 7283TIP3    H143264   3.926   5.698   4.921 -0.3654  0.1402 -0.2415
 7283TIP3    H243265   4.035   5.632   5.003 -0.8564  0.4884  0.7057
 7284TIP3   OH243266   4.444   3.176   5.251  0.2675  0.4376 -0.2552
 7284TIP3    H143267   4.481   3.252   5.296  1.5928 -0.4477  0.1409
 7284TIP3    H243268   4.432   3.110   5.319  2.3681 -0.9416 -1.1838
 7285TIP3   OH243269   4.819   5.003   4.483 -0.5985  0.3443  0.0653
 7285TIP3    H143270   4.821   4.917   4.442 -4.0619  0.7665 -1.1852
 7285TIP3    H243271   4.810   4.986   4.576  1.3223 -0.5995  0.1085
 7286TIP3   OH243272   2.644   4.621   5.287  0.2946  0.4769  0.5077
 7286TIP3    H143273   2.605   4.708   5.277 -0.0344  0.5037  1.9954
 7286TIP3    H243274   2.570   4.561   5.284  0.4473  0.3001  0.2845
 7287TIP3   OH243275   5.560   1.775  12.351  0.4529 -0.2195  0.1645
 7287TIP3    H143276   5.499   1.728  12.407  2.3570 -0.7733  1.8185
 7287TIP3    H243277   5.645   1.767  12.395  1.5946  1.1537 -1.7002
 7288TIP3   OH243278   6.237   0.645   1.590  0.2369 -0.0147  0.1695
 7288TIP3    H143279   6.225   0.631   1.684 -0.8611 -1.2035 -0.1228
 7288TIP3    H243280   6.332   0.649   1.578  0.3882 -0.1287  1.3010
 7289TIP3   OH243281   2.145   1.973  11.946 -0.4520  0.1839 -0.7742
 7289TIP3    H143282   2.055   1.952  11.970  0.6965 -2.8924  1.2048
 7289TIP3    H243283   2.142   1.990  11.852 -3.3898  2.1167 -0.3818
 7290TIP3   OH243284   2.061   3.691   5.151 -0.6037 -0.1397 -0.6011
 7290TIP3    H143285   2.060   3.612   5.096 -0.1845  0.4650 -1.4906
 7290TIP3    H243286   2.055   3.658   5.240  3.5278 -1.4114 -0.7110
 7291TIP3   OH243287   2.536   5.836  14.064  0.1894 -0.0407 -0.5571
 7291TIP3    H143288   2.614   5.790  14.033  1.7339  1.3187  1.1828
 7291TIP3    H243289   2.533   5.916  14.011  1.1563  0.8792  0.7566
 7292TIP3   OH243290   3.124   0.558  12.650 -0.3621 -0.1708 -0.2049
 7292TIP3    H143291   3.144   0.473  12.688 -0.3980  0.8656  2.2477
 7292TIP3    H243292   3.045   0.544  12.599 -0.3133 -1.6261  0.0940
 7293TIP3   OH243293   2.659   6.776  14.056  0.2876  0.5287  0.5862
 7293TIP3    H143294   2.718   6.806  14.126  0.4081  2.1576 -0.1962
 7293TIP3    H243295   2.572   6.807  14.083  0.3339  1.1610  0.0139
 7294TIP3   OH243296   0.462   4.325   1.228  0.1634 -0.1093  0.0270
 7294TIP3    H143297   0.539   4.377   1.207 -0.3785  0.5035 -0.4824
 7294TIP3    H243298   0.476   4.242   1.183  0.7954 -0.2235  0.4240
 7295TIP3   OH243299   0.543   5.601  12.210 -0.2087 -0.4859 -0.2964
 7295TIP3    H143300   0.453   5.587  12.240  0.3801 -0.8051  1.3575
 7295TIP3    H243301   0.591   5.627  12.289  0.9456  0.6527 -1.3441
 7296TIP3   OH243302   1.342   3.446  14.954 -1.1622  0.3483  0.5932
 7296TIP3    H143303   1.293   3.524  14.928  0.0905  0.6190 -1.0555
 7296TIP3    H243304   1.335   3.387  14.880  1.4340  0.6224  0.0861
 7297TIP3   OH243305   1.547   5.344  13.797  0.0604 -0.5593 -0.1064
 7297TIP3    H143306   1.474   5.291  13.765 -0.9716 -0.0276  1.3090
 7297TIP3    H243307   1.505   5.422  13.834  1.3417 -0.3116  0.8370
 7298TIP3   OH243308   5.776   0.770  10.122 -0.1919 -0.0809  0.2496
 7298TIP3    H143309   5.854   0.762  10.177 -0.9242 -0.5873  1.2331
 7298TIP3    H243310   5.714   0.821  10.176 -0.4513  0.5425 -0.6246
 7299TIP3   OH243311   1.370   6.014   6.739 -0.7062  0.2169 -0.5624
 7299TIP3    H143312   1.332   6.073   6.673 -0.8915  0.1529 -0.5109
 7299TIP3    H243313   1.464   6.026   6.729 -0.7499  0.9432 -0.1770
 7300TIP3   OH243314   6.516   5.226   6.358 -0.5597  0.1185  0.3233
 7300TIP3    H143315   6.510   5.318   6.383  0.0719  0.0470  0.7376
 7300TIP3    H243316   6.430   5.206   6.319 -0.5770  0.9737 -0.0887
 7301TIP3   OH243317   4.252   5.931  15.365 -0.0429  0.2569  0.0586
 7301TIP3    H143318   4.202   6.012  15.351  0.2728  0.6612  1.1969
 7301TIP3    H243319   4.186   5.867  15.392 -0.1214  0.5006  0.4665
 7302TIP3   OH243320   3.491   6.509  16.603 -0.4322 -0.2557  0.1351
 7302TIP3    H143321   3.560   6.558  16.647 -0.8896  2.0869 -1.6274
 7302TIP3    H243322   3.521   6.418  16.605  0.2511 -0.0187  3.8524
 7303TIP3   OH243323   3.787   4.557  13.032  0.0293 -0.4717 -0.3364
 7303TIP3    H143324   3.693   4.566  13.049  0.1341 -0.8087  0.4790
 7303TIP3    H243325   3.829   4.604  13.104  0.4793 -0.1029 -0.8433
 7304TIP3   OH243326   2.106   2.236   5.203  0.6693 -0.2786 -0.2529
 7304TIP3    H143327   2.135   2.206   5.117  1.5819  0.7375 -0.3129
 7304TIP3    H243328   2.014   2.258   5.192  1.1325  1.1598 -1.3219
 7305TIP3   OH243329   4.042   1.614   3.030  0.0640 -0.0910  0.5322
 7305TIP3    H143330   4.135   1.605   3.051 -0.4902 -1.6081  2.4986
 7305TIP3    H243331   4.000   1.630   3.115 -1.9489 -3.7613  0.3174
 7306TIP3   OH243332   2.863   2.786   2.870 -0.0695 -0.4805  0.3364
 7306TIP3    H143333   2.816   2.744   2.942  0.5065  0.3451  1.2060
 7306TIP3    H243334   2.881   2.874   2.901 -1.6657  0.5824 -1.6746
 7307TIP3   OH243335   1.103   0.525   1.658  0.3614 -0.5943 -0.0830
 7307TIP3    H143336   1.032   0.464   1.636  0.1603 -0.9865  1.6285
 7307TIP3    H243337   1.085   0.553   1.748  2.0480 -0.2401  0.1637
 7308TIP3   OH243338   2.005   5.925   5.049 -0.6278 -0.1668 -0.3545
 7308TIP3    H143339   1.944   5.880   5.108 -0.1847  0.4758  0.6026
 7308TIP3    H243340   2.021   6.010   5.092  0.8842 -0.3088 -0.6373
 7309TIP3   OH243341   4.193   0.805  11.280 -0.3463 -0.1304 -0.0542
 7309TIP3    H143342   4.247   0.796  11.202 -0.6397 -0.6532 -0.1956
 7309TIP3    H243343   4.227   0.739  11.341  1.1662  1.5730  1.0007
 7310TIP3   OH243344   5.660   3.320  13.041  0.5542  0.2768  0.6020
 7310TIP3    H143345   5.715   3.374  13.098 -0.2235  0.5886  1.0716
 7310TIP3    H243346   5.570   3.342  13.067  0.2122 -0.3999  0.0106
 7311TIP3   OH243347   3.169   0.776   0.206  0.8426 -0.4389  0.3043
 7311TIP3    H143348   3.226   0.739   0.274  0.9596  0.7616  0.8784
 7311TIP3    H243349   3.186   0.723   0.128  2.3761 -0.4035  0.6067
 7312TIP3   OH243350   0.093   6.390   2.445  0.3249 -0.3687  0.5974
 7312TIP3    H143351   0.130   6.437   2.370 -1.8034 -0.1909 -0.4030
 7312TIP3    H243352   0.104   6.450   2.519 -3.4387  2.3922 -0.8766
 7313TIP3   OH243353   2.305   3.492  16.163 -0.4496 -0.0770 -0.3731
 7313TIP3    H143354   2.270   3.538  16.240 -1.1745 -0.0116 -0.7455
 7313TIP3    H243355   2.400   3.497  16.174 -0.5444  0.1708  0.3813
 7314TIP3   OH243356   5.887   5.618  16.639 -0.8954  0.1115  0.6584
 7314TIP3    H143357   5.952   5.630  16.709  0.7033  0.3697 -0.8486
 7314TIP3    H243358   5.881   5.523  16.629 -1.1073  0.0735  1.1104
 7315TIP3   OH243359   0.169   1.248  10.603  0.2222 -0.3329  0.4311
 7315TIP3    H143360   0.178   1.189  10.528 -0.8934  0.4045 -0.2950
 7315TIP3    H243361   0.090   1.217  10.648  0.0236  0.1792  0.4339
 7316TIP3   OH243362   6.754   2.873  10.923 -0.2990  0.7586 -0.4636
 7316TIP3    H143363   6.672   2.922  10.933 -0.6001  0.3890 -1.1276
 7316TIP3    H243364   6.726   2.785  10.898  0.3478  0.9449 -1.8448
 7317TIP3   OH243365   3.163   3.952   6.303 -0.6341 -0.0261  0.0323
 7317TIP3    H143366   3.150   3.896   6.380 -0.7563  0.0965  0.1016
 7317TIP3    H243367   3.235   4.009   6.326 -0.5759 -0.0870  0.0008
 7318TIP3   OH243368   2.334   1.861   2.968 -0.2767  0.2031  0.2479
 7318TIP3    H143369   2.361   1.887   2.880  0.4360  1.1983  0.7529
 7318TIP3    H243370   2.415   1.840   3.013 -0.4751  1.5516  1.2470
 7319TIP3   OH243371   5.592   2.137  11.640  0.7973  0.1266 -0.2714
 7319TIP3    H143372   5.635   2.199  11.699  0.1769 -0.5221  0.8938
 7319TIP3    H243373   5.663   2.095  11.593  1.3526  0.1500  0.5318
 7320TIP3   OH243374   3.132   2.937  10.875  0.2451  0.5459 -0.2380
 7320TIP3    H143375   3.105   2.925  10.966 -1.0533 -1.8934 -0.8884
 7320TIP3    H243376   3.050   2.949  10.827  0.9062  1.6190 -1.1078
 7321TIP3   OH243377   0.483   6.095   4.220 -0.0651  0.2182 -0.1735
 7321TIP3    H143378   0.430   6.017   4.236 -0.3707  0.1914 -1.2857
 7321TIP3    H243379   0.571   6.070   4.247 -0.0128 -0.7791 -1.2262
 7322TIP3   OH243380   2.250   5.272   0.464 -0.4319  0.2758  0.1403
 7322TIP3    H143381   2.334   5.300   0.500 -0.7213  0.8756  0.3495
 7322TIP3    H243382   2.243   5.316   0.380 -0.8572  0.7813  0.4400
 7323TIP3   OH243383   2.362   5.786  16.080 -0.1360 -0.3703  0.0417
 7323TIP3    H143384   2.321   5.872  16.092 -0.1536 -0.3892  0.1132
 7323TIP3    H243385   2.423   5.778  16.153  0.6037  0.0149 -0.5215
 7324TIP3   OH243386   0.801   3.274  13.899  0.2232  0.3507  0.4328
 7324TIP3    H143387   0.835   3.281  13.988  0.2864  2.2461  0.2793
 7324TIP3    H243388   0.751   3.355  13.886 -0.3399 -0.2130 -1.0271
 7325TIP3   OH243389   0.796   5.854  15.165  0.5461 -0.1553 -0.4036
 7325TIP3    H143390   0.778   5.853  15.071  1.6658  1.0488 -0.6490
 7325TIP3    H243391   0.798   5.947  15.188  3.6100 -0.3137  0.1402
 7326TIP3   OH243392   5.540   4.518   3.636  0.1975  0.0997 -0.3523
 7326TIP3    H143393   5.455   4.561   3.628 -0.2861 -1.0804 -1.7114
 7326TIP3    H243394   5.601   4.575   3.589 -0.4597 -0.7264 -2.2384
 7327TIP3   OH243395   2.943   4.972   5.722  0.0094 -0.4062 -0.4196
 7327TIP3    H143396   2.952   5.060   5.684 -1.6632 -0.4430 -0.9446
 7327TIP3    H243397   3.027   4.930   5.705  0.2190  0.4959 -1.7540
 7328TIP3   OH243398   4.207   1.226   3.626  0.2341  0.3124  0.1574
 7328TIP3    H143399   4.138   1.178   3.581 -0.4286  2.2013 -0.8992
 7328TIP3    H243400   4.205   1.192   3.716 -1.7608  0.0151  0.0263
 7329TIP3   OH243401   5.676   1.408  12.241  0.7856  0.4509 -0.4320
 7329TIP3    H143402   5.695   1.326  12.286 -1.1107  1.2272  1.9043
 7329TIP3    H243403   5.754   1.425  12.188  1.3584 -2.6498 -0.7174
 7330TIP3   OH243404   3.926   6.502   5.212  0.0864  0.1756 -0.3577
 7330TIP3    H143405   3.989   6.505   5.284  0.2421  0.6588 -0.5135
 7330TIP3    H243406   3.876   6.583   5.220  0.8537  0.7719 -1.4603
 7331TIP3   OH243407   2.856   0.539  12.540 -0.1788  0.5416  0.3489
 7331TIP3    H143408   2.808   0.521  12.459 -1.3944  0.9670  0.9623
 7331TIP3    H243409   2.824   0.474  12.603  0.0817  0.8007  0.7551
 7332TIP3   OH243410   4.775   4.424  10.451  0.0808 -0.4117 -0.3437
 7332TIP3    H143411   4.766   4.330  10.436 -0.4260 -0.3246 -0.5640
 7332TIP3    H243412   4.689   4.453  10.480 -0.2852  0.3326 -2.1196
 7333TIP3   OH243413   4.938   4.762  12.214  0.3765 -0.4151 -0.0399
 7333TIP3    H143414   4.927   4.856  12.229  0.9831 -0.8260  3.4404
 7333TIP3    H243415   4.848   4.728  12.210  0.1022  0.5333 -3.4054
 7334TIP3   OH243416   0.269   4.519  15.542  0.0418 -0.4414 -0.0950
 7334TIP3    H143417   0.278   4.597  15.488 -0.1498  0.4408  1.1355
 7334TIP3    H243418   0.186   4.479  15.514  1.2679 -1.4762 -2.3328
 7335TIP3   OH243419   1.800   1.573   3.041  0.1719 -0.4737  0.6216
 7335TIP3    H143420   1.868   1.512   3.014  2.1215  1.2943  1.4228
 7335TIP3    H243421   1.845   1.637   3.097 -1.4749  2.6022 -1.4049
 7336TIP3   OH243422   2.697   3.921   4.881  0.1567  0.3081 -0.4453
 7336TIP3    H143423   2.733   3.833   4.879  1.2225  0.7467 -0.8762
 7336TIP3    H243424   2.608   3.911   4.848  0.5138 -0.4917 -1.1937
 7337TIP3   OH243425   6.504   0.442  15.708  0.9199  0.0300 -0.1177
 7337TIP3    H143426   6.557   0.487  15.774  0.7450 -0.3037  0.2523
 7337TIP3    H243427   6.520   0.349  15.724 -1.4417 -0.1546  1.3933
 7338TIP3   OH243428   3.194   3.916   6.726 -0.1789 -0.2694  0.0720
 7338TIP3    H143429   3.205   3.871   6.642  0.1179  0.4027 -0.2548
 7338TIP3    H243430   3.132   3.986   6.707 -2.1854 -1.7354  1.0315
 7339TIP3   OH243431   4.998   2.063   6.049  0.1499 -0.1440 -0.5677
 7339TIP3    H143432   5.076   2.008   6.056  0.2042 -0.2177 -1.7127
 7339TIP3    H243433   4.930   2.005   6.016 -0.4259 -0.1017  0.5141
 7340TIP3   OH243434   3.249   1.472   0.528  0.2942  0.9138  0.2374
 7340TIP3    H143435   3.163   1.508   0.549 -1.5608 -3.4828  0.5807
 7340TIP3    H243436   3.246   1.454   0.434  0.3092 -0.5862  0.5222
 7341TIP3   OH243437   2.220   0.777  11.655  0.1831  0.2148 -0.0200
 7341TIP3    H143438   2.183   0.848  11.708  1.2565  0.6448  0.1702
 7341TIP3    H243439   2.212   0.808  11.565 -1.9312 -0.6520 -0.1502
 7342TIP3   OH243440   4.282   0.220  16.970  0.7998 -0.2672  0.6237
 7342TIP3    H143441   4.214   0.192  16.909 -0.9112  2.9821  0.9086
 7342TIP3    H243442   4.348   0.262  16.915  2.1410 -2.5790  0.4443
 7343TIP3   OH243443   1.783   4.802  16.619 -0.1853  0.1284 -0.2726
 7343TIP3    H143444   1.865   4.832  16.658 -0.1194 -0.8167  0.3424
 7343TIP3    H243445   1.774   4.711  16.649 -0.5765 -0.3393 -1.7519
 7344TIP3   OH243446   6.254   3.855  16.850 -0.0635 -0.4271 -0.8752
 7344TIP3    H143447   6.263   3.808  16.933  0.7027  1.5112  0.2001
 7344TIP3    H243448   6.161   3.875  16.844 -0.1385 -0.6549 -0.5096
 7345TIP3   OH243449   4.346   6.635   4.541 -0.7140 -0.1301 -0.1483
 7345TIP3    H143450   4.315   6.630   4.451  0.7473 -0.9171 -0.6354
 7345TIP3    H243451   4.295   6.705   4.581  0.4005  1.9885 -2.3418
 7346TIP3   OH243452   4.141   0.279   4.583  0.3110  0.2216 -0.2307
 7346TIP3    H143453   4.201   0.354   4.592  0.0275  0.2379  1.7940
 7346TIP3    H243454   4.193   0.213   4.537  0.8332  1.3559 -1.3227
 7347TIP3   OH243455   6.347   1.775  10.275  0.0092 -0.6694 -0.1548
 7347TIP3    H143456   6.410   1.746  10.340 -0.3267 -0.5467  0.2251
 7347TIP3    H243457   6.351   1.870  10.276 -0.2166 -0.6594 -0.0965
 7348TIP3   OH243458   1.064   1.850  15.165  0.4417  0.0583 -0.0301
 7348TIP3    H143459   1.015   1.772  15.192  1.2169 -0.8160 -1.0849
 7348TIP3    H243460   0.999   1.920  15.163 -0.5305 -0.8329 -0.3032
 7349TIP3   OH243461   1.529   3.075  16.736  0.0892  0.3465  0.7683
 7349TIP3    H143462   1.495   3.015  16.801 -1.5622  0.7304  0.2742
 7349TIP3    H243463   1.524   3.028  16.653 -0.9060  1.0450  0.4289
 7350TIP3   OH243464   4.580   2.222   0.181  0.1554 -0.3024 -0.3723
 7350TIP3    H143465   4.518   2.265   0.241 -0.3806 -1.0272 -0.4079
 7350TIP3    H243466   4.561   2.129   0.190 -0.0046 -0.4106 -1.7485
 7351TIP3   OH243467   1.087   1.446  14.234  0.7216 -0.1716 -0.4961
 7351TIP3    H143468   1.092   1.499  14.314  0.9032 -0.9634  0.0236
 7351TIP3    H243469   1.129   1.363  14.258  0.2806 -0.6126 -1.2457
 7352TIP3   OH243470   0.081   0.440   0.133  0.1782 -0.3087  0.0261
 7352TIP3    H143471   0.129   0.522   0.149 -1.4630  0.1041  3.0995
 7352TIP3    H243472   0.146   0.371   0.147  0.7801  0.3543  0.5414
 7353TIP3   OH243473   2.750   3.592   4.396 -0.1971  0.0529 -0.1478
 7353TIP3    H143474   2.804   3.533   4.343 -1.2600 -0.8207 -0.2894
 7353TIP3    H243475   2.687   3.628   4.335 -0.2864  0.4399  0.1713
 7354TIP3   OH243476   1.318   5.587  11.702 -0.1362  0.1453  0.4194
 7354TIP3    H143477   1.324   5.639  11.623 -2.3046  1.3508  1.0179
 7354TIP3    H243478   1.286   5.501  11.673  1.4890 -0.2225 -0.3059
 7355TIP3   OH243479   1.928   2.791  15.092 -0.1586 -0.4281  0.3862
 7355TIP3    H143480   1.905   2.863  15.032 -1.8261  1.5648  3.3144
 7355TIP3    H243481   1.844   2.756  15.121  0.6514 -2.0034  0.8881
 7356TIP3   OH243482   0.844   3.320  16.782  0.1369  0.5998  0.4063
 7356TIP3    H143483   0.937   3.338  16.794  0.1482  0.6405  0.2607
 7356TIP3    H243484   0.835   3.300  16.688  0.2938 -1.1857  0.7589
 7357TIP3   OH243485   6.570   3.283  12.358  0.2101 -0.6735  0.2962
 7357TIP3    H143486   6.488   3.331  12.362  0.8493  0.5720 -1.0031
 7357TIP3    H243487   6.562   3.215  12.424 -0.9466  0.8626  1.7616
 7358TIP3   OH243488   6.351   2.826   5.596  0.5490  0.3691  0.0086
 7358TIP3    H143489   6.394   2.774   5.528 -0.1392 -0.7743  0.4532
 7358TIP3    H243490   6.423   2.857   5.651  1.1670  1.7330 -1.5166
 7359TIP3   OH243491   2.003   6.052   2.542 -0.0079 -0.8484  0.0875
 7359TIP3    H143492   2.009   6.058   2.447 -1.2180  1.3078  0.1191
 7359TIP3    H243493   2.086   6.088   2.574  0.2487 -1.2465 -0.1134
 7360TIP3   OH243494   5.637   6.498   5.006 -0.2773 -1.0754  0.3229
 7360TIP3    H143495   5.655   6.565   5.072 -2.7980 -1.2343  1.2542
 7360TIP3    H243496   5.571   6.538   4.948 -1.5905 -2.6051  0.7116
 7361TIP3   OH243497   0.555   5.771   4.799 -0.1266 -0.1170  0.6749
 7361TIP3    H143498   0.605   5.691   4.811 -0.7159 -0.5376  0.3696
 7361TIP3    H243499   0.494   5.751   4.727 -2.1169 -0.3009  2.3534
 7362TIP3   OH243500   6.607   5.585  13.029  0.0062  0.5488 -0.5508
 7362TIP3    H143501   6.647   5.573  12.943  0.7039 -2.4376  0.1212
 7362TIP3    H243502   6.681   5.580  13.090 -0.7522  0.4498  0.3658
 7363TIP3   OH243503   1.221   5.485  14.487 -0.1316 -0.2674  0.1459
 7363TIP3    H143504   1.220   5.393  14.513 -0.5411 -0.4788 -0.5832
 7363TIP3    H243505   1.227   5.534  14.569  0.3291 -0.9529  0.5202
 7364TIP3   OH243506   0.108   0.495  15.147 -0.8735 -0.2398  0.1366
 7364TIP3    H143507   0.200   0.503  15.173 -0.8101  1.4121 -0.5538
 7364TIP3    H243508   0.068   0.443  15.217 -0.0731  1.6902  2.0728
 7365TIP3   OH243509   6.487   3.677  12.223  0.2568  0.6933  0.6994
 7365TIP3    H143510   6.449   3.663  12.310  0.0604  2.0485  0.8410
 7365TIP3    H243511   6.580   3.690  12.239  0.7789 -2.2334  0.3879
 7366TIP3   OH243512   0.184   4.926   3.007  0.0843 -0.6927  0.3626
 7366TIP3    H143513   0.273   4.957   3.018 -0.1958 -0.0163  0.7488
 7366TIP3    H243514   0.155   4.965   2.924 -0.3128  0.1927  0.9139
 7367TIP3   OH243515   0.862   0.922   0.040  0.0570  0.7722 -0.2213
 7367TIP3    H143516   0.875   0.924   0.134  1.6242 -0.4840 -0.3897
 7367TIP3    H243517   0.780   0.970   0.026 -0.5387  0.3917  1.8207
 7368TIP3   OH243518   1.851   5.646   3.940 -0.4895  0.7450 -0.7230
 7368TIP3    H143519   1.838   5.677   3.850  0.6242  0.4210 -1.0000
 7368TIP3    H243520   1.942   5.616   3.942 -1.3044 -1.8060 -0.2485
 7369TIP3   OH243521   5.524   6.193  13.195  0.4146 -0.1737 -0.2039
 7369TIP3    H143522   5.560   6.171  13.281 -0.9070  2.3588  1.0667
 7369TIP3    H243523   5.588   6.159  13.133  2.5916  0.0203  1.8627
 7370TIP3   OH243524   1.927   2.583   2.420  0.1879 -0.3881  0.2047
 7370TIP3    H143525   1.864   2.570   2.350  0.6145  2.2770 -0.7330
 7370TIP3    H243526   2.012   2.578   2.378  0.4586  0.8029  0.5624
 7371TIP3   OH243527   5.198   4.923   6.110 -0.0811  0.2839 -0.0314
 7371TIP3    H143528   5.117   4.896   6.068  0.3765  0.4067 -1.0093
 7371TIP3    H243529   5.267   4.895   6.050  0.5558  0.8545  0.4244
 7372TIP3   OH243530   5.873   4.784  14.668  0.4801  0.6560  0.2778
 7372TIP3    H143531   5.917   4.841  14.731  0.4532  1.2896 -0.2746
 7372TIP3    H243532   5.908   4.811  14.583  0.4372 -0.1260  0.0115
 7373TIP3   OH243533   3.664   1.254  16.592  0.5245 -0.8657 -0.5224
 7373TIP3    H143534   3.693   1.337  16.555  0.6381 -0.5814  0.1968
 7373TIP3    H243535   3.745   1.206  16.610  0.4503 -1.2425 -1.1874
 7374TIP3   OH243536   4.867   3.746  15.742  0.0005 -0.4251  0.6576
 7374TIP3    H143537   4.951   3.713  15.776  0.1519  0.4452  1.1764
 7374TIP3    H243538   4.834   3.802  15.813  0.4707  1.6985 -0.7562
 7375TIP3   OH243539   1.652   6.686   4.467  0.1794 -0.2211  0.1418
 7375TIP3    H143540   1.694   6.735   4.538  0.2979 -0.4389  0.2234
 7375TIP3    H243541   1.712   6.613   4.450 -0.5440 -0.9803  0.7989
 7376TIP3   OH243542   6.383   5.223  11.204 -0.1365  0.3559 -0.1859
 7376TIP3    H143543   6.420   5.256  11.122  1.8249  1.0303  0.9561
 7376TIP3    H243544   6.332   5.146  11.178  1.9627 -0.5245 -1.8162
 7377TIP3   OH243545   0.045   4.332   3.050 -0.6321 -0.1638 -0.4503
 7377TIP3    H143546   0.104   4.356   3.121 -1.3530  0.1774  0.0454
 7377TIP3    H243547  -0.037   4.310   3.094 -0.0096 -3.5975 -0.8753
 7378TIP3   OH243548   1.082   2.965   4.822  0.1969 -0.4418 -0.2149
 7378TIP3    H143549   1.006   2.946   4.766  0.2598 -0.1971 -0.3819
 7378TIP3    H243550   1.044   2.996   4.904  0.0464 -2.5901  0.5627
 7379TIP3   OH243551   1.367   5.020  11.516 -0.5274 -0.5228  0.5888
 7379TIP3    H143552   1.380   5.060  11.430 -1.8669 -1.2055  0.0564
 7379TIP3    H243553   1.373   4.926  11.500  2.2846 -0.5906  1.7828
 7380TIP3   OH243554   5.589   2.473   4.229 -0.0119  0.4673  0.4676
 7380TIP3    H143555   5.567   2.382   4.209  0.3199  0.4239  0.2906
 7380TIP3    H243556   5.577   2.481   4.324  1.3815 -0.1614  0.6993
 7381TIP3   OH243557   5.469   2.967   4.231 -0.8771 -0.0030  0.1535
 7381TIP3    H143558   5.558   2.979   4.198 -0.3405 -1.3597  1.0527
 7381TIP3    H243559   5.469   3.010   4.317 -1.4886  1.1730 -0.4245
 7382TIP3   OH243560   0.866   4.681  15.086  0.4073  0.1777 -0.5233
 7382TIP3    H143561   0.951   4.722  15.105 -0.7542  1.8482  1.1127
 7382TIP3    H243562   0.876   4.591  15.118  1.2184  0.6485  0.5836
 7383TIP3   OH243563   0.809   2.635  10.451 -0.2783  0.1494 -0.0547
 7383TIP3    H143564   0.782   2.624  10.542 -0.4842  0.5568 -0.0642
 7383TIP3    H243565   0.841   2.725  10.447 -0.6247  0.2568 -0.4738
 7384TIP3   OH243566   1.549   3.940   2.416  0.4211  0.0372 -0.2001
 7384TIP3    H143567   1.597   3.952   2.498  0.1331 -0.2189  0.0078
 7384TIP3    H243568   1.523   3.848   2.416 -1.5294  0.5681  0.5008
 7385TIP3   OH243569   1.723   4.761   4.586 -0.1803 -0.4539  0.2232
 7385TIP3    H143570   1.737   4.674   4.623 -1.0889 -0.2697  1.0269
 7385TIP3    H243571   1.793   4.814   4.624 -0.3169 -0.5705  0.6381
 7386TIP3   OH243572   4.489   3.241  12.920  0.0546  0.3877 -0.0062
 7386TIP3    H143573   4.544   3.257  12.996  0.5457  1.3494 -0.5505
 7386TIP3    H243574   4.402   3.272  12.945 -0.4619 -1.8891  1.1470
 7387TIP3   OH243575   1.036   2.394   3.660  0.1090  0.0301 -0.1457
 7387TIP3    H143576   1.070   2.405   3.749  2.4302  0.8539 -1.0813
 7387TIP3    H243577   1.051   2.302   3.639  0.8531  0.1553 -0.1750
 7388TIP3   OH243578   0.248   3.022  16.741 -0.2197  0.2269 -0.2604
 7388TIP3    H143579   0.242   2.984  16.828 -1.7727 -0.0699 -0.4695
 7388TIP3    H243580   0.268   3.114  16.756  0.3342 -0.0004  0.3816
 7389TIP3   OH243581   5.752   5.143   2.312  0.2310  0.3651  0.2517
 7389TIP3    H143582   5.699   5.191   2.248 -0.0475 -1.6602 -1.0575
 7389TIP3    H243583   5.744   5.195   2.393 -1.1045  1.8179 -0.7765
 7390TIP3   OH243584   5.810   0.088   4.013 -0.9303  0.5030  0.0363
 7390TIP3    H143585   5.869   0.074   3.939 -0.9249  1.4040 -0.1417
 7390TIP3    H243586   5.836   0.022   4.077 -1.5802 -0.9324 -1.1457
 7391TIP3   OH243587   2.275   5.963   1.177 -0.2410 -0.2653 -0.1064
 7391TIP3    H143588   2.213   5.968   1.104  0.5582  0.2127 -0.7561
 7391TIP3    H243589   2.270   5.872   1.207  0.0272 -0.6693 -1.2779
 7392TIP3   OH243590   4.342   6.500  16.868 -0.1158  0.2863 -0.1174
 7392TIP3    H143591   4.436   6.485  16.876 -0.3250 -0.9862  0.0981
 7392TIP3    H243592   4.303   6.447  16.938 -1.0362  0.1634 -0.7134
 7393TIP3   OH243593   1.466   4.417   4.772  0.0719  0.1298 -0.6594
 7393TIP3    H143594   1.386   4.454   4.737 -1.6974 -0.0324  2.9569
 7393TIP3    H243595   1.501   4.485   4.830  0.5528 -1.1499  0.5898
 7394TIP3   OH243596   6.108   0.336   1.108  0.7378  0.9114  0.6340
 7394TIP3    H143597   6.028   0.377   1.139  0.7113  2.4050 -1.3437
 7394TIP3    H243598   6.108   0.350   1.013  2.9256  0.2254  0.4980
 7395TIP3   OH243599   4.688   4.528   4.969  0.5266 -0.5816 -0.0124
 7395TIP3    H143600   4.695   4.577   5.051 -0.7403  0.1521 -0.3118
 7395TIP3    H243601   4.708   4.593   4.901 -0.4684 -0.6448 -0.3742
 7396TIP3   OH243602   4.843   0.466   4.655  0.3893  0.0140 -0.5065
 7396TIP3    H143603   4.776   0.469   4.587  0.9835  0.2221 -1.0861
 7396TIP3    H243604   4.866   0.373   4.660  0.7764  0.0810 -1.0143
 7397TIP3   OH243605   6.364   4.390  11.932 -0.8493  0.4254  0.1938
 7397TIP3    H143606   6.394   4.434  11.852 -0.5972 -0.1784 -0.0487
 7397TIP3    H243607   6.356   4.460  11.996  1.3444  0.5694  0.3340
 7398TIP3   OH243608   3.054   6.477   4.722  0.4192 -0.2006 -0.2316
 7398TIP3    H143609   3.102   6.409   4.770 -0.6513 -0.5257  0.3913
 7398TIP3    H243610   2.989   6.509   4.785 -0.6847 -0.2858 -1.3192
 7399TIP3   OH243611   6.594   2.474   4.950 -0.0812  0.0872 -0.2211
 7399TIP3    H143612   6.591   2.379   4.958 -0.3276  0.0427 -0.8026
 7399TIP3    H243613   6.629   2.504   5.033  2.6870 -0.6832 -1.0562
 7400TIP3   OH243614   5.070   1.979   1.504  0.8586 -0.6865  0.2563
 7400TIP3    H143615   5.049   2.065   1.466  3.3602  0.0187  0.3688
 7400TIP3    H243616   5.039   1.985   1.594 -1.3053 -0.8503 -0.4491
 7401TIP3   OH243617   5.175   4.875  10.607 -0.0178  0.3751 -0.1165
 7401TIP3    H143618   5.134   4.957  10.580 -0.0507 -0.4555 -2.6942
 7401TIP3    H243619   5.256   4.902  10.650 -0.8371  1.8157  0.5721
 7402TIP3   OH243620   6.599   3.318  11.346  0.1793  0.0646  0.3274
 7402TIP3    H143621   6.583   3.237  11.394  0.1274  0.6536  1.2969
 7402TIP3    H243622   6.519   3.332  11.295  0.9483 -1.5646 -1.4200
 7403TIP3   OH243623   4.767   4.656   2.213  0.6603 -0.1290  0.3320
 7403TIP3    H143624   4.693   4.601   2.239  1.6275 -1.6497 -0.0654
 7403TIP3    H243625   4.759   4.734   2.268  0.3958 -1.5490  2.3913
 7404TIP3   OH243626   3.937   0.583  13.931  0.5862 -0.1219  0.6857
 7404TIP3    H143627   3.954   0.662  13.982 -0.2700  0.1934  0.5011
 7404TIP3    H243628   3.887   0.614  13.856  0.2350 -0.8416  0.6233
 7405TIP3   OH243629   5.400   4.271  16.619 -0.6067 -0.2665  0.1128
 7405TIP3    H143630   5.488   4.244  16.594  0.0105  0.6145  1.2801
 7405TIP3    H243631   5.413   4.329  16.695 -2.0688  1.0464 -0.6050
 7406TIP3   OH243632   5.658   4.366   3.838  0.1592  0.3316  0.2100
 7406TIP3    H143633   5.636   4.408   3.755  1.6713  0.5880 -0.0745
 7406TIP3    H243634   5.654   4.437   3.902 -0.7986  0.1756  0.3340
 7407TIP3   OH243635   3.153   6.609   3.406  0.9567  0.0657 -0.2227
 7407TIP3    H143636   3.169   6.583   3.316  3.1540 -0.9282  0.4463
 7407TIP3    H243637   3.141   6.527   3.454 -0.5515  0.5959  0.3446
 7408TIP3   OH243638   1.325   0.737  13.868 -0.0286 -0.2197 -0.2822
 7408TIP3    H143639   1.291   0.806  13.926  2.5990  0.5127  0.4508
 7408TIP3    H243640   1.301   0.655  13.911 -0.2506  0.2853  0.5642
 7409TIP3   OH243641   1.949   4.854  14.345  0.2494 -0.2466 -0.2080
 7409TIP3    H143642   1.899   4.912  14.404  1.3817  0.5878 -0.0475
 7409TIP3    H243643   1.884   4.791  14.313 -1.0739  1.2459 -0.5565
 7410TIP3   OH243644   4.536   2.743   3.243 -0.2400  0.7674  0.3635
 7410TIP3    H143645   4.618   2.793   3.247  0.1037  0.1232  1.7124
 7410TIP3    H243646   4.541   2.696   3.160 -0.4326  2.7150 -0.7828
 7411TIP3   OH243647   3.954   0.159   0.392 -0.5210 -0.7852  0.2470
 7411TIP3    H143648   3.871   0.191   0.356 -0.2026 -1.2944 -0.9341
 7411TIP3    H243649   4.017   0.229   0.373 -0.6078 -0.5311  0.8791
 7412TIP3   OH243650   3.395   6.620  10.849  0.0279 -0.0047  0.7760
 7412TIP3    H143651   3.335   6.569  10.903  2.8733 -1.7235  2.4266
 7412TIP3    H243652   3.366   6.604  10.759 -2.9901  0.5898  1.5757
 7413TIP3   OH243653   6.031   1.015  14.361 -0.3196  0.0604  0.4272
 7413TIP3    H143654   5.954   0.960  14.346  0.0981 -0.4243  0.0833
 7413TIP3    H243655   6.074   1.021  14.276 -0.3186  0.8502  0.4827
 7414TIP3   OH243656   2.527   6.038   1.763  0.1911  0.1235  0.2375
 7414TIP3    H143657   2.525   5.942   1.769 -0.1388  0.1216  0.0978
 7414TIP3    H243658   2.468   6.059   1.691 -0.6061  0.4966  0.9981
 7415TIP3   OH243659   3.307   6.780   5.434 -0.1186 -0.4876  0.3281
 7415TIP3    H143660   3.319   6.771   5.529 -0.2417 -1.7195  0.2353
 7415TIP3    H243661   3.234   6.841   5.425 -0.5139 -0.8525  1.0346
 7416TIP3   OH243662   2.822   1.572   2.785 -0.1677 -0.4302 -0.5324
 7416TIP3    H143663   2.757   1.555   2.853  0.2695 -1.9321 -0.4661
 7416TIP3    H243664   2.771   1.605   2.711 -0.5380  2.1628  0.8171
 7417TIP3   OH243665   4.091   4.322  13.919  0.2534  0.4932 -0.0992
 7417TIP3    H143666   4.122   4.386  13.855  0.0546  1.2724  0.5717
 7417TIP3    H243667   4.143   4.340  13.998  1.1557 -1.0552 -0.3064
 7418TIP3   OH243668   5.832   5.259  14.473  0.0539  0.0388 -0.6118
 7418TIP3    H143669   5.873   5.300  14.397  0.1857  1.4983  0.2326
 7418TIP3    H243670   5.797   5.176  14.439  1.6020 -0.1234 -1.8617
 7419TIP3   OH243671   4.918   2.711   5.809  0.5072 -0.2570 -0.0523
 7419TIP3    H143672   4.877   2.725   5.894 -0.9074  0.3365 -0.8224
 7419TIP3    H243673   4.890   2.786   5.756  2.3849  0.0326 -0.6718
 7420TIP3   OH243674   4.584   1.457   1.378  0.7759 -0.4142  0.5068
 7420TIP3    H143675   4.497   1.471   1.416 -0.1895 -2.2059 -0.9279
 7420TIP3    H243676   4.636   1.421   1.450 -1.1827 -4.2887  0.1476
 7421TIP3   OH243677   5.219   4.465   1.888 -0.0836  0.3117 -0.2834
 7421TIP3    H143678   5.270   4.507   1.957  1.7568  0.0138 -1.4268
 7421TIP3    H243679   5.209   4.533   1.821  2.1302 -0.7516 -1.7394
 7422TIP3   OH243680   5.249   6.124  12.446  0.1058 -0.0359 -0.0453
 7422TIP3    H143681   5.275   6.069  12.520  0.1427 -0.4614 -0.3766
 7422TIP3    H243682   5.319   6.113  12.382  0.5930  1.1478  0.2760
 7423TIP3   OH243683   6.220   5.537  15.867 -0.2479 -0.0197 -0.3668
 7423TIP3    H143684   6.274   5.583  15.804  1.4863 -2.0858 -0.4432
 7423TIP3    H243685   6.257   5.560  15.952  0.2920 -0.8453 -0.3750
 7424TIP3   OH243686   0.592   4.547   3.041  0.0889 -0.2574  0.0146
 7424TIP3    H143687   0.664   4.547   3.104  0.2186  0.2007 -0.1308
 7424TIP3    H243688   0.633   4.525   2.957 -0.1401 -1.2156  0.1499
 7425TIP3   OH243689   0.255   0.413  14.461  0.5751  0.9483  0.5148
 7425TIP3    H143690   0.280   0.423  14.369 -0.5704 -0.8796 -0.0205
 7425TIP3    H243691   0.163   0.440  14.463 -0.0096 -1.0320  0.7147
 7426TIP3   OH243692   3.863   6.324  16.472  0.2853  0.0965  0.7293
 7426TIP3    H143693   3.822   6.271  16.539 -0.8107 -1.0285 -0.7916
 7426TIP3    H243694   3.844   6.415  16.497 -2.0668 -0.3717  0.7191
 7427TIP3   OH243695   3.249   5.455  11.564  0.4597 -0.3674 -0.0270
 7427TIP3    H143696   3.325   5.504  11.533 -0.0229  0.7944  0.6212
 7427TIP3    H243697   3.257   5.456  11.660  0.0919 -0.9884  0.0168
 7428TIP3   OH243698   0.894   3.412   3.005  0.0488  0.2532 -0.1381
 7428TIP3    H143699   0.809   3.439   3.039 -0.3931  1.1543 -1.8533
 7428TIP3    H243700   0.881   3.405   2.910  1.4761 -1.1667 -0.2599
 7429TIP3   OH243701   3.271   4.980   6.173  0.1675 -0.1360  0.9913
 7429TIP3    H143702   3.187   5.024   6.185 -0.5785 -0.4888 -2.3466
 7429TIP3    H243703   3.274   4.915   6.243 -1.6225  0.9261  2.0956
 7430TIP3   OH243704   3.433   2.202  11.690  0.7408 -0.0697 -0.5792
 7430TIP3    H143705   3.525   2.226  11.680  0.8163 -0.0368  0.2253
 7430TIP3    H243706   3.435   2.106  11.698  0.8644  0.0658  1.2221
 7431TIP3   OH243707   6.690   1.325   2.807 -0.6260 -0.6238  0.2058
 7431TIP3    H143708   6.723   1.415   2.810 -0.9509 -0.5166  0.7315
 7431TIP3    H243709   6.688   1.298   2.899 -2.2700 -0.5291  0.2101
 7432TIP3   OH243710   0.450   2.092  15.816 -0.5180  0.0536 -0.4651
 7432TIP3    H143711   0.481   2.009  15.781 -0.4906 -0.3210  0.4232
 7432TIP3    H243712   0.495   2.159  15.764 -1.4313 -0.4784 -1.9667
 7433TIP3   OH243713   1.576   4.589   0.373  0.0018 -0.5162  0.2134
 7433TIP3    H143714   1.591   4.543   0.456 -1.8185 -1.0529  0.2719
 7433TIP3    H243715   1.523   4.527   0.322 -0.1215  0.4101 -0.7835
 7434TIP3   OH243716   3.826   5.322  14.274  1.0087  0.0818 -0.5191
 7434TIP3    H143717   3.840   5.266  14.350 -1.5568 -0.0317 -0.1038
 7434TIP3    H243718   3.756   5.382  14.300  1.7734  1.6394 -1.9478
 7435TIP3   OH243719   3.921   4.022   5.300  0.4607  0.3832 -1.3855
 7435TIP3    H143720   3.895   4.065   5.382  1.8444  1.6453 -1.5864
 7435TIP3    H243721   3.873   3.940   5.300 -0.2608  0.7793  0.2642
 7436TIP3   OH243722   0.997   0.173  16.674  0.3762  0.6131  0.2783
 7436TIP3    H143723   1.002   0.232  16.599 -0.6687  0.7673  0.3211
 7436TIP3    H243724   0.997   0.230  16.751  3.8387  0.3820  0.5581
 7437TIP3   OH243725   2.925   6.499   4.143  0.2749  0.1195  0.5883
 7437TIP3    H143726   2.882   6.472   4.062  0.3314  1.4509  0.1148
 7437TIP3    H243727   2.884   6.445   4.211 -0.6443 -0.1100 -0.1424
 7438TIP3   OH243728   2.086   1.944  12.343  0.8868 -0.1473 -0.1516
 7438TIP3    H143729   2.130   1.967  12.425  1.9063  0.2949 -0.8157
 7438TIP3    H243730   2.157   1.920  12.284  0.1887  0.0423 -1.0718
 7439TIP3   OH243731   1.230   1.075   5.266  0.1126  0.2915  0.2943
 7439TIP3    H143732   1.265   1.151   5.221  1.2677 -0.4397 -0.0458
 7439TIP3    H243733   1.178   1.112   5.338  0.5763  1.3973  0.0709
 7440TIP3   OH243734   0.445   3.543  16.132 -0.4269 -0.1615 -0.0187
 7440TIP3    H143735   0.450   3.617  16.071 -0.4439 -1.0390 -1.1149
 7440TIP3    H243736   0.532   3.537  16.170 -0.2143 -0.0175 -0.4728
 7441TIP3   OH243737   2.579   0.746  13.912  0.6986  0.6774  0.0020
 7441TIP3    H143738   2.640   0.673  13.916 -0.2906 -0.1635 -0.1673
 7441TIP3    H243739   2.494   0.706  13.890  0.4196  2.0118 -1.4638
 7442TIP3   OH243740   5.681   0.863   0.914 -0.2325  0.5643  0.3946
 7442TIP3    H143741   5.679   0.785   0.859  1.7016  0.9553 -0.2519
 7442TIP3    H243742   5.764   0.857   0.961 -1.1077  1.0751  2.0745
 7443TIP3   OH243743   0.276   3.002  16.187 -0.3067 -0.0578  0.1352
 7443TIP3    H143744   0.291   3.007  16.093 -0.3600 -0.5850  0.0954
 7443TIP3    H243745   0.192   2.956  16.196 -0.8300  0.9391  0.4153
 7444TIP3   OH243746   3.591   0.335   0.436 -0.2801 -0.2214  0.6472
 7444TIP3    H143747   3.642   0.278   0.378 -0.2291 -0.6461  1.1057
 7444TIP3    H243748   3.572   0.412   0.383  0.1675 -0.4047  0.2163
 7445TIP3   OH243749   3.905   5.842   1.286 -0.2370  0.1551  0.0511
 7445TIP3    H143750   3.816   5.873   1.304 -0.4149 -0.7516  0.7907
 7445TIP3    H243751   3.936   5.897   1.214 -1.2329  0.7737  0.0892
 7446TIP3   OH243752   1.249   2.669  11.089 -0.2964 -0.5800  0.0913
 7446TIP3    H143753   1.235   2.735  11.021  0.7723  1.5599  1.8793
 7446TIP3    H243754   1.162   2.634  11.107 -0.7030 -0.5381 -1.7391
 7447TIP3   OH243755   5.120   2.043   5.249  0.2516  0.2711  0.1292
 7447TIP3    H143756   5.098   1.970   5.192  0.2622 -0.2185  0.7410
 7447TIP3    H243757   5.199   2.014   5.295  0.1249  0.5723  0.5414
 7448TIP3   OH243758   1.020   5.161  14.478  0.3923  0.0945 -0.1910
 7448TIP3    H143759   1.109   5.180  14.448 -0.2634  2.0829 -0.9295
 7448TIP3    H243760   0.977   5.122  14.402  0.2411  0.3950 -0.2623
 7449TIP3   OH243761   2.653   0.025   2.020 -0.0882  0.8760 -0.1804
 7449TIP3    H143762   2.650  -0.063   1.982 -2.2537  1.4941 -1.4961
 7449TIP3    H243763   2.591   0.023   2.093 -1.0073  1.6328 -0.9313
 7450TIP3   OH243764   6.177   5.176   0.391  0.0043  0.1413  0.2315
 7450TIP3    H143765   6.227   5.137   0.319  1.5934  0.0589  1.3589
 7450TIP3    H243766   6.172   5.269   0.368  1.0090  0.2188  0.2840
 7451TIP3   OH243767   5.172   0.235  14.133  0.0981  0.2074 -0.5338
 7451TIP3    H143768   5.150   0.152  14.175  3.1714  0.0236  0.8845
 7451TIP3    H243769   5.227   0.279  14.197  0.1191  2.5042 -2.0826
 7452TIP3   OH243770   0.219   4.122   3.670  0.8307 -0.0292 -0.3115
 7452TIP3    H143771   0.237   4.084   3.584 -0.2652  1.4725 -1.2377
 7452TIP3    H243772   0.183   4.209   3.651  0.5101  0.3049  1.6662
 7453TIP3   OH243773   3.283   6.629  16.761  0.2212 -0.3388 -0.5476
 7453TIP3    H143774   3.338   6.595  16.690  0.5328 -1.3052  0.1519
 7453TIP3    H243775   3.196   6.636  16.721  0.5867  0.0010 -1.2938
 7454TIP3   OH243776   0.914   4.813  13.974 -0.4071 -0.0696 -0.2206
 7454TIP3    H143777   0.949   4.832  14.061 -0.6749 -0.8106  0.0478
 7454TIP3    H243778   0.923   4.896  13.926 -0.3773  0.3752  0.5475
 7455TIP3   OH243779   3.262   6.064   5.101  0.9648  0.2420  0.3643
 7455TIP3    H143780   3.350   6.083   5.067  1.0477  2.1959  1.5996
 7455TIP3    H243781   3.245   5.974   5.074  3.2699 -0.0945 -0.0676
 7456TIP3   OH243782   4.856   1.254   5.363  0.1912 -0.2535 -0.4979
 7456TIP3    H143783   4.778   1.308   5.357  0.2371 -0.2706 -1.2581
 7456TIP3    H243784   4.824   1.164   5.351  0.4762 -0.1661 -1.9377
 7457TIP3   OH243785   3.614   3.750   6.593 -0.1868 -0.3467  0.3194
 7457TIP3    H143786   3.688   3.691   6.608  1.2585  1.3716  0.1034
 7457TIP3    H243787   3.610   3.804   6.672  0.2901  1.1321 -0.6427
 7458TIP3   OH243788   6.499   6.681  16.081 -0.2373 -0.7994  0.2611
 7458TIP3    H143789   6.575   6.736  16.096 -0.7267 -0.4880  1.6846
 7458TIP3    H243790   6.433   6.740  16.044 -1.2535 -0.0351  3.1230
 7459TIP3   OH243791   0.882   0.288  16.896  0.3797 -0.2421 -0.6454
 7459TIP3    H143792   0.794   0.297  16.860  0.8769  0.6580 -1.6868
 7459TIP3    H243793   0.881   0.341  16.976 -0.2726 -0.9526 -0.1759
 7460TIP3   OH243794   6.037   1.638  14.755 -0.3275  0.5498 -0.9827
 7460TIP3    H143795   5.972   1.600  14.695  0.3587  0.2768 -1.5592
 7460TIP3    H243796   6.121   1.608  14.721  0.1642  1.7596 -0.8675
 7461TIP3   OH243797   0.902   2.574  16.657 -0.4954 -0.5467 -0.0555
 7461TIP3    H143798   0.903   2.657  16.610 -2.2662 -0.2047  0.5001
 7461TIP3    H243799   0.967   2.520  16.611 -0.3766  0.6320 -1.3059
 7462TIP3   OH243800   0.820   1.341   6.131  0.2235 -0.6159  0.9348
 7462TIP3    H143801   0.910   1.349   6.161 -0.1966  0.2181  2.0676
 7462TIP3    H243802   0.821   1.371   6.040  1.1059 -0.7554  0.8976
 7463TIP3   OH243803   3.706   6.531   1.698  0.6002 -0.4818  0.8806
 7463TIP3    H143804   3.785   6.480   1.716  2.7598  1.5711 -2.1441
 7463TIP3    H243805   3.669   6.491   1.620 -1.4358 -1.4689  2.3272
 7464TIP3   OH243806   4.999   1.523  12.201 -0.0496  0.4709 -0.0978
 7464TIP3    H143807   4.984   1.572  12.120  1.5736  1.2170  0.0229
 7464TIP3    H243808   5.042   1.586  12.259  0.0116 -0.4500  0.8777
 7465TIP3   OH243809   5.828   0.339  15.772  0.3924  0.1893  0.2409
 7465TIP3    H143810   5.756   0.401  15.767  0.6053  0.5176  1.0507
 7465TIP3    H243811   5.889   0.367  15.704  0.8043  1.3073  1.0359
 7466TIP3   OH243812   6.644   1.578   1.536  0.1752 -0.5753 -0.0629
 7466TIP3    H143813   6.701   1.556   1.462  1.6658  0.2104  0.8176
 7466TIP3    H243814   6.561   1.602   1.496  0.0300 -3.0221 -1.2988
 7467TIP3   OH243815   5.105   1.133   1.710  0.1266  0.1464 -0.5265
 7467TIP3    H143816   5.079   1.077   1.637 -0.9189  1.5774 -1.2610
 7467TIP3    H243817   5.194   1.161   1.689 -0.5996  1.5013 -1.8507
 7468TIP3   OH243818   4.800   1.508  11.594  0.3252  0.2435  0.0316
 7468TIP3    H143819   4.867   1.502  11.526  0.8447 -0.6120  0.6264
 7468TIP3    H243820   4.720   1.532  11.546  0.0551 -3.0065 -1.3033
 7469TIP3   OH243821   1.218   2.662   5.957 -0.0279 -0.9844  0.0884
 7469TIP3    H143822   1.123   2.672   5.948  0.0852 -0.7392 -0.8104
 7469TIP3    H243823   1.229   2.620   6.042 -0.8347  1.0925  1.2845
 7470TIP3   OH243824   1.103   5.392   3.321  0.4969 -0.1303  1.0822
 7470TIP3    H143825   1.036   5.367   3.257  0.4788  2.8837 -0.1643
 7470TIP3    H243826   1.186   5.375   3.277  0.4841  1.6802  0.2872
 7471TIP3   OH243827   3.894   0.688   1.152  0.3761 -0.1617  0.1968
 7471TIP3    H143828   3.813   0.738   1.147 -0.2991 -1.3692 -1.6605
 7471TIP3    H243829   3.949   0.723   1.081  0.9470 -0.2470  0.5942
 7472TIP3   OH243830   4.503   6.702  16.411 -0.1098  0.1636 -0.2791
 7472TIP3    H143831   4.464   6.670  16.329  2.9436 -0.5823 -1.5271
 7472TIP3    H243832   4.528   6.623  16.458  1.0384  0.6205 -0.1025
 7473TIP3   OH243833   1.714   5.075  15.185  0.7410 -0.0613 -0.0262
 7473TIP3    H143834   1.778   5.003  15.187  0.6074 -0.1538  1.4022
 7473TIP3    H243835   1.754   5.141  15.128  0.1740 -1.8975 -2.6553
 7474TIP3   OH243836   3.781   1.595   0.385  0.0369 -0.6625 -0.0265
 7474TIP3    H143837   3.770   1.530   0.453  0.8143 -0.9619 -0.1847
 7474TIP3    H243838   3.703   1.587   0.330 -0.9430  0.0791  1.2342
 7475TIP3   OH243839   3.823   5.360   6.704 -0.3556 -0.4125  0.2600
 7475TIP3    H143840   3.795   5.333   6.792  1.3271  1.2089  1.3255
 7475TIP3    H243841   3.917   5.342   6.702 -0.3995 -0.5832 -1.2848
 7476TIP3   OH243842   2.710   4.511  12.123  0.4435 -0.0061 -0.1561
 7476TIP3    H143843   2.796   4.485  12.155  1.4093 -0.6230 -3.0919
 7476TIP3    H243844   2.649   4.451  12.167  1.5699 -0.1862  1.2119
 7477TIP3   OH243845   2.333   1.291   4.611  0.4782  0.2766  0.6368
 7477TIP3    H143846   2.239   1.279   4.619  0.6739 -0.5267  1.8400
 7477TIP3    H243847   2.362   1.218   4.556  0.6645 -0.7191  2.0034
 7478TIP3   OH243848   2.406   3.170   1.012  0.7963 -0.3344 -0.0586
 7478TIP3    H143849   2.377   3.229   0.942  0.2121 -0.7614 -0.1855
 7478TIP3    H243850   2.499   3.189   1.022  0.7865  0.0548 -0.6438
 7479TIP3   OH243851   0.255   1.941   2.745 -0.1916 -0.0616  0.0999
 7479TIP3    H143852   0.256   1.846   2.752  1.0532 -0.0905 -0.2320
 7479TIP3    H243853   0.241   1.958   2.652 -0.1013  0.0623  0.1080
 7480TIP3   OH243854   3.548   0.933   2.627  0.3255 -0.0066  0.1833
 7480TIP3    H143855   3.489   0.891   2.565 -0.1013  1.4742 -0.4419
 7480TIP3    H243856   3.584   1.008   2.580  0.1306  1.0430  1.6507
 7481TIP3   OH243857   1.719   3.130   1.096  0.5248 -0.1526  0.1009
 7481TIP3    H143858   1.797   3.150   1.148  1.5724  1.3388 -1.9893
 7481TIP3    H243859   1.714   3.034   1.096  0.4664 -0.1895  2.9438
 7482TIP3   OH243860   4.450   2.391   1.657 -0.5005 -0.0379  0.4502
 7482TIP3    H143861   4.452   2.347   1.572 -0.5610  1.2105 -0.2025
 7482TIP3    H243862   4.361   2.376   1.689 -1.3163  1.7683 -0.9238
 7483TIP3   OH243863   2.405   3.326   0.303 -0.1995 -0.1998 -0.2188
 7483TIP3    H143864   2.387   3.234   0.323 -0.2751  0.0505  0.8914
 7483TIP3    H243865   2.463   3.355   0.373 -2.3652  1.3570  0.9856
 7484TIP3   OH243866   5.351   2.233   1.920  0.3943  0.0055 -0.1848
 7484TIP3    H143867   5.427   2.212   1.865 -1.1287  0.7280 -2.6930
 7484TIP3    H243868   5.385   2.293   1.986  2.2647 -0.7034 -0.4754
 7485TIP3   OH243869   3.465   3.011  11.135 -0.2761 -0.2512 -0.1823
 7485TIP3    H143870   3.417   2.976  11.210 -0.0914  0.7669  0.4195
 7485TIP3    H243871   3.514   2.935  11.100 -1.1180 -0.9398  0.1227
 7486TIP3   OH243872   3.838   1.161  13.697 -0.2047  0.8115  0.0610
 7486TIP3    H143873   3.837   1.083  13.752  1.0111  2.0224  1.8463
 7486TIP3    H243874   3.886   1.134  13.619 -0.1684 -0.3421  0.4696
 7487TIP3   OH243875   1.266   6.154  15.920 -0.1885  0.2998 -0.1077
 7487TIP3    H143876   1.174   6.131  15.915 -0.3061  0.9033 -0.8175
 7487TIP3    H243877   1.308   6.079  15.964 -1.1842  0.5281  1.2531
 7488TIP3   OH243878   1.030   2.829   1.129 -0.3210 -0.0426  0.2099
 7488TIP3    H143879   0.936   2.845   1.137 -0.4549 -1.1154  0.8874
 7488TIP3    H243880   1.071   2.911   1.155 -1.0698  0.4602 -0.1779
 7489TIP3   OH243881   2.876   1.862   5.378 -0.3232 -0.3965 -0.3534
 7489TIP3    H143882   2.922   1.778   5.373  0.0672 -0.1473 -1.0432
 7489TIP3    H243883   2.936   1.925   5.338 -1.4502 -0.1524 -1.7067
 7490TIP3   OH243884   5.352   2.388   3.089 -0.0731  0.5269 -0.1277
 7490TIP3    H143885   5.272   2.424   3.051  0.5626  0.4872 -1.5244
 7490TIP3    H243886   5.366   2.438   3.170 -0.6861  1.5447 -0.6528
 7491TIP3   OH243887   0.227   6.061  11.914 -0.4509 -0.1992 -0.3356
 7491TIP3    H143888   0.256   6.138  11.962  1.5692 -1.6575  0.8620
 7491TIP3    H243889   0.155   6.025  11.967 -0.8221  0.3659 -0.4505
 7492TIP3   OH243890   5.032   2.066  13.304  0.2392  0.0532 -0.4965
 7492TIP3    H143891   5.020   2.154  13.270 -1.2369 -0.0946 -0.3866
 7492TIP3    H243892   5.111   2.071  13.358 -0.5868  1.6019  0.5737
 7493TIP3   OH243893   0.813   2.103  12.322  0.4482 -0.2506  0.0899
 7493TIP3    H143894   0.829   2.012  12.297  1.9859  0.1232 -0.3478
 7493TIP3    H243895   0.828   2.153  12.242 -0.2160  0.4172  0.3730
 7494TIP3   OH243896   3.005   5.967   2.216 -0.4248  0.1393  0.1243
 7494TIP3    H143897   3.088   6.000   2.251 -0.7037  0.3095  0.6245
 7494TIP3    H243898   3.031   5.907   2.146  0.2058 -1.3820  1.6273
 7495TIP3   OH243899   5.987   4.085  11.068 -0.6526  0.0121 -0.1002
 7495TIP3    H143900   5.906   4.043  11.099 -0.9493  0.1465 -0.6829
 7495TIP3    H243901   5.963   4.123  10.983 -0.2413  0.9015  0.1773
 7496TIP3   OH243902   4.522   2.773  13.297 -0.0348 -1.1429 -0.1653
 7496TIP3    H143903   4.438   2.728  13.299 -0.8884  0.3267 -2.1628
 7496TIP3    H243904   4.534   2.800  13.206  2.6073 -1.3265  0.0787
 7497TIP3   OH243905   2.048   5.308  14.076  0.0955 -0.2184 -0.6690
 7497TIP3    H143906   1.957   5.338  14.085 -0.1420 -1.0708 -0.1860
 7497TIP3    H243907   2.101   5.383  14.104 -0.4706  0.0943 -0.4272
 7498TIP3   OH243908   3.516   3.856  12.830 -0.7219 -0.1840 -0.3495
 7498TIP3    H143909   3.596   3.825  12.790  0.8203  1.4765  1.3484
 7498TIP3    H243910   3.503   3.799  12.906  0.5189  1.4160  1.0938
 7499TIP3   OH243911   5.902   6.697  16.184 -0.4496  1.3290 -0.0422
 7499TIP3    H143912   5.819   6.650  16.195 -0.6607  0.8612 -3.2410
 7499TIP3    H243913   5.969   6.631  16.205 -0.8248  0.5978 -1.0865
 7500TIP3   OH243914   0.093   5.480   5.792 -0.2532 -0.1606  0.2682
 7500TIP3    H143915   0.089   5.386   5.777 -0.1085 -0.0133 -0.7632
 7500TIP3    H243916   0.172   5.493   5.845 -0.6673 -0.6940  1.0053
 7501TIP3   OH243917   4.326   6.566   0.836  0.1409  0.2365 -0.1224
 7501TIP3    H143918   4.361   6.654   0.852 -0.6623  0.6783 -0.7735
 7501TIP3    H243919   4.375   6.510   0.897 -0.3389  1.3393  1.3115
 7502TIP3   OH243920   5.961   0.575   0.511  0.0251 -0.0028 -0.4750
 7502TIP3    H143921   6.040   0.532   0.479 -0.3295 -0.3242 -0.9284
 7502TIP3    H243922   5.974   0.582   0.606  0.6192 -0.0014 -0.5543
 7503TIP3   OH243923   5.027   1.939  10.413  0.2971 -0.1283  0.3557
 7503TIP3    H143924   5.064   1.851  10.420 -0.2586 -0.3404  0.6576
 7503TIP3    H243925   4.957   1.941  10.479  0.1745  0.4706  0.2098
 7504TIP3   OH243926   4.923   5.046   1.044  0.0111 -0.0727  0.1875
 7504TIP3    H143927   4.915   5.111   0.974  2.0568  1.0406  0.9457
 7504TIP3    H243928   5.007   5.004   1.029 -0.2437 -0.9282  1.0689
 7505TIP3   OH243929   1.952   0.244  12.837  0.4240 -0.0475 -0.2770
 7505TIP3    H143930   1.978   0.210  12.923  0.7949 -0.3822 -0.5220
 7505TIP3    H243931   2.002   0.192  12.774 -0.0964 -0.0252 -0.7103
 7506TIP3   OH243932   3.880   4.315  13.490 -0.4512 -0.1228 -0.5609
 7506TIP3    H143933   3.801   4.291  13.442 -0.9894  0.9788 -0.2445
 7506TIP3    H243934   3.848   4.357  13.570  0.4329 -1.2464  0.4161
 7507TIP3   OH243935   0.577   1.302   0.141  0.2910 -0.2204 -0.5475
 7507TIP3    H143936   0.544   1.327   0.227 -1.7047  0.2234 -1.4039
 7507TIP3    H243937   0.657   1.354   0.129  1.5000 -1.5012  1.6831
 7508TIP3   OH243938   5.898   1.498  12.104  0.5805  0.2168 -0.0005
 7508TIP3    H143939   5.963   1.438  12.068  0.1871 -1.2249  1.6557
 7508TIP3    H243940   5.920   1.583  12.066  1.4700 -0.8604 -1.9419
 7509TIP3   OH243941   4.803   5.624   3.712  0.1908 -0.3019  0.2050
 7509TIP3    H143942   4.811   5.574   3.632  0.6408 -2.5189  1.6002
 7509TIP3    H243943   4.709   5.635   3.725  0.0827 -1.1475  0.1195
 7510TIP3   OH243944   6.541   3.479  14.674 -0.5806 -0.2525 -0.1428
 7510TIP3    H143945   6.465   3.443  14.721 -0.9672  0.2577 -0.3661
 7510TIP3    H243946   6.503   3.526  14.600 -0.1917  1.7907  0.9062
 7511TIP3   OH243947   4.193   1.209   0.534 -0.1251  0.2840  0.3057
 7511TIP3    H143948   4.186   1.115   0.520 -0.2255  0.0896  1.5490
 7511TIP3    H243949   4.282   1.231   0.507 -0.2818 -0.0685 -0.5084
 7512TIP3   OH243950   5.756   5.831  14.552 -0.4503  0.2951 -0.3787
 7512TIP3    H143951   5.729   5.900  14.492 -0.5385  0.4407 -0.1740
 7512TIP3    H243952   5.778   5.756  14.496  1.5936  1.1324 -0.7079
 7513TIP3   OH243953   3.076   2.045   0.294 -0.1279 -0.2770  0.0919
 7513TIP3    H143954   3.139   2.073   0.228 -0.5053  0.7061  0.1370
 7513TIP3    H243955   3.064   1.951   0.278  1.4058 -0.4957  0.1377
 7514TIP3   OH243956   1.854   5.697   2.284  0.0896 -0.1099  0.4988
 7514TIP3    H143957   1.799   5.718   2.359  0.0000  0.0600  0.3847
 7514TIP3    H243958   1.808   5.625   2.240 -1.7129  2.1335 -1.4169
 7515TIP3   OH243959   5.053   0.020  16.904  0.0021 -0.0100 -0.3275
 7515TIP3    H143960   5.001  -0.057  16.880  0.1497  0.1980 -1.3516
 7515TIP3    H243961   5.034   0.034  16.997 -0.6145 -0.8236 -0.3222
 7516TIP3   OH243962   5.161   3.735  15.113  0.5496 -0.3821  0.1801
 7516TIP3    H143963   5.251   3.708  15.134  0.1931 -0.4875  1.6112
 7516TIP3    H243964   5.156   3.825  15.143  0.2077 -0.3326 -0.0274
 7517TIP3   OH243965   5.060   3.693   1.377 -0.4231  0.2653  0.0635
 7517TIP3    H143966   5.092   3.607   1.405  1.1224  0.3100 -1.4445
 7517TIP3    H243967   5.053   3.743   1.458  0.8449 -0.5943  0.7251
 7518TIP3   OH243968   4.728   4.256  13.428  0.2699 -0.0481  0.8348
 7518TIP3    H143969   4.780   4.176  13.415  1.8192  1.0858 -0.1545
 7518TIP3    H243970   4.676   4.264  13.348 -0.7029 -0.6322  1.3947
 7519TIP3   OH243971   5.817   0.706  16.680  1.1305 -0.1768  0.2293
 7519TIP3    H143972   5.873   0.628  16.679  1.1109 -0.1755 -0.9984
 7519TIP3    H243973   5.732   0.675  16.651  0.7421  0.0133  1.1622
 7520TIP3   OH243974   5.288   4.945  16.139 -0.4502  0.7017  0.7158
 7520TIP3    H143975   5.266   4.966  16.049  0.2597 -0.0794  0.3583
 7520TIP3    H243976   5.216   4.888  16.168 -1.2530  1.8374  1.0100
 7521TIP3   OH243977   4.955   2.498  12.663 -0.2576  0.0304  0.4611
 7521TIP3    H143978   4.866   2.482  12.629 -0.4058  0.5755  0.5926
 7521TIP3    H243979   4.999   2.413  12.655 -0.4704  0.0108 -0.5629
 7522TIP3   OH243980   0.648   3.643   6.038  0.4419  0.3528 -0.0831
 7522TIP3    H143981   0.567   3.615   6.081  0.4254  2.7271  1.4708
 7522TIP3    H243982   0.690   3.703   6.100  3.0996 -0.3277 -1.1253
 7523TIP3   OH243983   0.473   1.292  16.301 -0.3145  0.2079 -0.0706
 7523TIP3    H143984   0.450   1.313  16.210 -2.8253 -1.1198  0.2382
 7523TIP3    H243985   0.568   1.277  16.298 -0.3340  0.3091 -2.4355
 7524TIP3   OH243986   4.730   4.612  14.137 -0.5081 -0.4502  0.8546
 7524TIP3    H143987   4.770   4.541  14.087 -2.8820 -2.0784  1.1884
 7524TIP3    H243988   4.757   4.692  14.092 -0.1616 -1.7233 -1.2453
 7525TIP3   OH243989   2.715   6.761  12.152  0.4672 -0.2376 -0.1149
 7525TIP3    H143990   2.786   6.824  12.162 -0.3474  0.7086 -0.0919
 7525TIP3    H243991   2.730   6.697  12.221 -0.6621  1.9136  2.2295
 7526TIP3   OH243992   4.557   3.552   5.725  0.1563  0.3494  0.6097
 7526TIP3    H143993   4.492   3.592   5.782 -0.3710  1.1213 -0.5098
 7526TIP3    H243994   4.610   3.625   5.693  0.0392  0.0152 -0.3850
 7527TIP3   OH243995   2.665   4.398  13.447 -0.1166  0.5264 -0.0208
 7527TIP3    H143996   2.651   4.463  13.379 -1.2604  0.3151  0.0036
 7527TIP3    H243997   2.580   4.390  13.491 -0.3995 -2.0380 -0.9646
 7528TIP3   OH243998   6.303   0.169  11.894 -0.7316 -0.0474  0.8525
 7528TIP3    H143999   6.364   0.112  11.848 -1.1426  0.4450 -0.3029
 7528TIP3    H244000   6.219   0.124  11.888 -1.0343  0.6176  0.0372
 7529TIP3   OH244001   4.973   4.271   3.404  0.2073 -0.1045  0.2496
 7529TIP3    H144002   5.006   4.284   3.493 -0.4785 -0.9123  0.6284
 7529TIP3    H244003   4.972   4.176   3.393 -4.2367 -0.2640  1.1341
 7530TIP3   OH244004   1.197   0.891   6.297 -0.0456 -0.2434 -0.3499
 7530TIP3    H144005   1.104   0.886   6.275 -0.1269  1.8148 -0.5474
 7530TIP3    H244006   1.228   0.970   6.254  1.5307 -0.2812  0.6667
 7531TIP3   OH244007   5.168   4.334   5.674 -0.0520 -0.2505 -0.0874
 7531TIP3    H144008   5.208   4.281   5.743 -1.4751  0.2181  1.1185
 7531TIP3    H244009   5.199   4.423   5.692  1.6247 -0.5069 -1.5829
 7532TIP3   OH244010   6.749   6.713  14.701  0.4826  0.6431  0.3125
 7532TIP3    H144011   6.837   6.698  14.734  0.0087 -1.0607  0.8480
 7532TIP3    H244012   6.727   6.801  14.732  2.0502  1.1598  0.0057
 7533TIP3   OH244013   0.445   4.148   5.970 -0.0680  0.6666 -0.8497
 7533TIP3    H144014   0.467   4.142   6.063 -0.5940  3.2425 -0.5345
 7533TIP3    H244015   0.518   4.194   5.930  0.9880 -1.9690 -2.0719
 7534TIP3   OH244016   5.065   4.159  13.615  0.3996  0.0862  0.0179
 7534TIP3    H144017   5.016   4.089  13.660 -0.2330 -0.2947 -1.2375
 7534TIP3    H244018   5.133   4.184  13.677 -0.0266 -0.9154  0.9142
 7535TIP3   OH244019   4.269   0.944   0.335 -0.2096  0.5996  0.3602
 7535TIP3    H144020   4.314   1.028   0.327  1.7627 -0.5453 -0.9370
 7535TIP3    H244021   4.203   0.945   0.265  2.0508 -0.2604 -1.8346
 7536TIP3   OH244022   4.219   1.193   4.499  0.6481 -0.0243  0.0212
 7536TIP3    H144023   4.278   1.245   4.445 -2.1955  2.4174 -0.8702
 7536TIP3    H244024   4.171   1.137   4.437  1.1955 -1.1963  0.6236
 7537TIP3   OH244025   0.823   4.357   3.903  0.0179  0.7912  0.3457
 7537TIP3    H144026   0.767   4.346   3.826 -0.9515 -1.3534  1.3068
 7537TIP3    H244027   0.794   4.440   3.941 -1.7236  0.3172  0.1323
 7538TIP3   OH244028   4.125   2.792  14.516 -0.1948  0.2482  0.0475
 7538TIP3    H144029   4.122   2.774  14.422 -0.1313 -1.1918  0.3106
 7538TIP3    H244030   4.171   2.876  14.523  0.5152 -0.0270 -1.1479
 7539TIP3   OH244031   2.705   2.925   4.932  0.3014  0.2620  0.2139
 7539TIP3    H144032   2.707   2.830   4.947  2.2485  0.3941  1.0253
 7539TIP3    H244033   2.637   2.956   4.992  0.6381 -0.4732  1.0063
 7540TIP3   OH244034   6.388   6.009  14.191 -0.1317  0.1101  0.1510
 7540TIP3    H144035   6.303   5.966  14.202  0.0511 -0.6367 -1.2413
 7540TIP3    H244036   6.439   5.981  14.266 -1.3991  1.2821  1.4903
 7541TIP3   OH244037   5.813   4.871  16.726  0.0239 -0.3863  0.1349
 7541TIP3    H144038   5.771   4.945  16.682 -0.3647  1.5697  3.5537
 7541TIP3    H244039   5.907   4.890  16.721 -0.0799  0.4676  1.1012
 7542TIP3   OH244040   6.373   6.328   3.635  0.0986 -0.2342 -0.1916
 7542TIP3    H144041   6.452   6.273   3.635  0.7626  0.7116 -1.9062
 7542TIP3    H244042   6.306   6.272   3.597 -0.2801 -1.3090  1.9661
 7543TIP3   OH244043   2.604   6.212  16.518 -0.0761 -0.3688 -0.4390
 7543TIP3    H144044   2.534   6.182  16.461 -1.1347  1.6112 -0.2330
 7543TIP3    H244045   2.677   6.233  16.459  0.4739 -2.7013 -0.6230
 7544TIP3   OH244046   6.415   4.564  12.386  0.2780  0.5295 -0.0147
 7544TIP3    H144047   6.356   4.569  12.462  2.8104  1.3250  1.9705
 7544TIP3    H244048   6.361   4.594  12.312 -2.4910 -1.0907  1.2825
 7545TIP3   OH244049   4.490   3.182  11.966  0.1302 -0.0078 -0.2130
 7545TIP3    H144050   4.584   3.187  11.983  0.2848 -0.3512 -0.9751
 7545TIP3    H244051   4.473   3.089  11.953 -0.0726  0.2015 -1.4636
 7546TIP3   OH244052   4.862   0.338  10.625  0.0364 -0.4580  0.2761
 7546TIP3    H144053   4.847   0.274  10.555 -0.7897  0.2622 -0.2127
 7546TIP3    H244054   4.819   0.301  10.701 -0.6384 -0.3790 -0.0660
 7547TIP3   OH244055   1.731   1.191  16.189 -0.2000 -0.0561  0.5580
 7547TIP3    H144056   1.747   1.260  16.254  0.7083  0.3484 -0.0797
 7547TIP3    H244057   1.818   1.160  16.165 -0.6083 -1.3699  0.7702
 7548TIP3   OH244058   5.285   3.710  14.296 -0.0533  0.1799  0.2908
 7548TIP3    H144059   5.238   3.722  14.378 -0.1564 -0.2087  0.2867
 7548TIP3    H244060   5.377   3.723  14.319 -0.1169  0.4814  0.3843
 7549TIP3   OH244061   2.544   0.212  14.756 -0.2811 -0.4298 -0.3570
 7549TIP3    H144062   2.572   0.128  14.792  2.4060  0.4880 -0.1624
 7549TIP3    H244063   2.566   0.275  14.825 -1.4845  0.5457 -0.8500
 7550TIP3   OH244064   2.096   3.875   4.774  0.0736  0.5017 -0.6221
 7550TIP3    H144065   2.107   3.834   4.688 -0.6911 -1.0826  0.0111
 7550TIP3    H244066   2.084   3.801   4.834  2.0945  1.5031  1.0834
 7551TIP3   OH244067   5.770   6.071  14.427 -0.5459 -0.0825  0.2561
 7551TIP3    H144068   5.697   6.127  14.454 -0.1333  1.5697 -1.9102
 7551TIP3    H244069   5.847   6.112  14.465 -0.2015  1.0878 -1.6282
 7552TIP3   OH244070   6.546   6.385   2.120 -0.3559  0.2758  0.3588
 7552TIP3    H144071   6.496   6.413   2.197 -1.4893 -0.5664 -0.0506
 7552TIP3    H244072   6.564   6.293   2.136 -0.9827 -0.0118 -0.5817
 7553TIP3   OH244073   2.804   6.130   5.027 -0.2464  0.3461 -0.5246
 7553TIP3    H144074   2.803   6.126   4.932  0.4157  0.5843 -0.5492
 7553TIP3    H244075   2.793   6.223   5.047 -0.8126  0.2430 -0.3593
 7554TIP3   OH244076   2.349   0.101  15.891 -0.0089  0.1750 -0.1776
 7554TIP3    H144077   2.324   0.114  15.799  1.0484  1.0009 -0.3684
 7554TIP3    H244078   2.384   0.012  15.894 -1.4749 -0.4067 -0.2421
 7555TIP3   OH244079   2.069   4.617  14.558 -0.5574  0.1800  0.7161
 7555TIP3    H144080   2.004   4.550  14.538 -0.4371  0.3997 -0.4698
 7555TIP3    H244081   2.042   4.693  14.506 -1.0329  1.2679  2.5022
 7556TIP3   OH244082   6.244   0.705  11.989  0.3721  0.5120  0.5492
 7556TIP3    H144083   6.252   0.612  12.008 -1.3587  0.5748  1.7216
 7556TIP3    H244084   6.314   0.746  12.039  1.5235 -0.2120 -0.4614
 7557TIP3   OH244085   5.530   6.619  15.702 -0.4514  0.1437  0.5247
 7557TIP3    H144086   5.549   6.697  15.753 -1.1769 -0.4848  1.7630
 7557TIP3    H244087   5.440   6.630  15.672 -0.6885 -0.3916  1.0288
 7558TIP3   OH244088   1.855   5.005   5.151  0.4906  0.0347  0.3624
 7558TIP3    H144089   1.829   4.959   5.231 -0.4657  0.0329  0.0578
 7558TIP3    H244090   1.907   4.940   5.102 -0.2101 -0.4722  0.2847
 7559TIP3   OH244091   2.301   3.854  11.918  0.0006 -0.4255  0.0156
 7559TIP3    H144092   2.382   3.859  11.867 -0.1425  1.9847 -0.0316
 7559TIP3    H244093   2.272   3.944  11.925 -2.1010 -1.1534  1.0049
 7560TIP3   OH244094   1.689   5.135   1.722  0.4811 -0.0671  0.3108
 7560TIP3    H144095   1.702   5.040   1.721  0.8868 -0.0513  1.8721
 7560TIP3    H244096   1.684   5.157   1.815  0.0920  1.4072 -0.0468
 7561TIP3   OH244097   5.580   0.020  15.870 -0.1934 -0.3099 -0.0378
 7561TIP3    H144098   5.497   0.019  15.918 -0.3776 -0.9502 -0.3612
 7561TIP3    H244099   5.635   0.081  15.918 -1.2588  1.0603 -0.5021
 7562TIP3   OH244100   0.814   6.709   4.588 -0.7429  0.4653 -0.2422
 7562TIP3    H144101   0.824   6.788   4.642 -2.2350  0.2967  0.3020
 7562TIP3    H244102   0.785   6.642   4.649  0.4098 -0.4847 -0.7291
 7563TIP3   OH244103   2.817   0.242   3.811 -0.2718 -0.1260 -0.0880
 7563TIP3    H144104   2.858   0.328   3.821  1.2346 -0.7324 -0.7940
 7563TIP3    H244105   2.832   0.220   3.719  1.4926 -2.1679  0.6357
 7564TIP3   OH244106   2.314   5.860  14.684 -0.5901  0.0153  0.2626
 7564TIP3    H144107   2.231   5.830  14.647  0.3625 -2.3745  0.0311
 7564TIP3    H244108   2.308   5.838  14.777  0.6617 -2.2005 -0.1557
 7565TIP3   OH244109   4.885   5.043   4.808 -0.0116  0.1749  0.1905
 7565TIP3    H144110   4.893   4.951   4.782 -0.2016  0.0867  0.4451
 7565TIP3    H244111   4.957   5.087   4.763 -0.5009  0.0695 -0.7163
 7566TIP3   OH244112   6.034   4.830   7.202  0.4603 -0.1966 -0.5194
 7566TIP3    H144113   5.958   4.800   7.154 -0.1204 -0.5856  0.6255
 7566TIP3    H244114   6.057   4.914   7.162 -1.2930  0.5096 -0.1047
 7567TIP3   OH244115   6.007   4.560   5.972 -0.4456  0.0682 -0.1737
 7567TIP3    H144116   5.990   4.619   6.046  0.9662 -0.5270  0.6372
 7567TIP3    H244117   6.060   4.612   5.911  0.0675 -0.0915  0.1408
 7568TIP3   OH244118   5.721   4.192  12.936  0.2571  0.3812  0.1086
 7568TIP3    H144119   5.704   4.160  13.024 -0.0911  1.3000  0.3854
 7568TIP3    H244120   5.725   4.287  12.946  0.5576  0.4675 -0.8087
 7569TIP3   OH244121   2.792   1.075  11.939  0.5167  0.3825  0.1694
 7569TIP3    H144122   2.871   1.082  11.885 -0.2301  0.3886 -0.9322
 7569TIP3    H244123   2.747   0.997  11.907 -0.2999  0.7969  0.2903
 7570TIP3   OH244124   0.722   1.632  15.860 -0.4258  0.0440 -0.0346
 7570TIP3    H144125   0.710   1.554  15.806 -0.6839  0.2258 -0.2457
 7570TIP3    H244126   0.664   1.618  15.935 -0.1108 -0.1833  0.1648
 7571TIP3   OH244127   3.059   0.774   5.185  0.4035  0.6093 -0.3054
 7571TIP3    H144128   3.025   0.862   5.197 -1.4318  0.1550 -2.0052
 7571TIP3    H244129   2.996   0.717   5.230  0.9203  0.0630 -0.2626
 7572TIP3   OH244130   2.107   3.340  16.340 -0.1929 -0.3863 -0.2630
 7572TIP3    H144131   2.106   3.434  16.358 -1.8724 -0.2983 -0.7913
 7572TIP3    H244132   2.073   3.332  16.251  1.6082 -1.3712 -0.9070
 7573TIP3   OH244133   3.996   4.119  16.780  0.1408  0.1680 -0.0491
 7573TIP3    H144134   3.907   4.117  16.744 -0.0927  1.5865  0.3924
 7573TIP3    H244135   3.992   4.187  16.848  0.7917 -1.8107  2.0231
 7574TIP3   OH244136   4.865   1.085   2.661 -0.6680 -0.1354 -0.4182
 7574TIP3    H144137   4.778   1.044   2.665 -0.9567  0.5191  0.1209
 7574TIP3    H244138   4.926   1.012   2.664 -1.2049 -0.6387 -1.3115
 7575TIP3   OH244139   2.698   2.190  13.207 -0.9339  0.0187 -0.1875
 7575TIP3    H144140   2.636   2.211  13.277  0.2651 -2.3534  1.6828
 7575TIP3    H244141   2.655   2.121  13.157 -0.9549  0.3156 -0.5781
 7576TIP3   OH244142   1.318   4.378   1.091  0.1743  0.2104  0.1220
 7576TIP3    H144143   1.228   4.348   1.104  0.0024  1.0288  0.8905
 7576TIP3    H244144   1.370   4.298   1.090 -0.6039 -0.2935 -0.6994
 7577TIP3   OH244145   5.296   0.269   1.194 -0.0528 -0.5836  0.7619
 7577TIP3    H144146   5.341   0.307   1.118 -0.8334  0.3274  0.7591
 7577TIP3    H244147   5.360   0.208   1.231  1.1287  0.5898  0.6719
 7578TIP3   OH244148   5.123   5.115  12.414  0.4044  0.5992  0.1228
 7578TIP3    H144149   5.144   5.197  12.371  0.2875  0.0258 -1.0580
 7578TIP3    H244150   5.028   5.105  12.402  0.3153  0.5675  0.7802
 7579TIP3   OH244151   5.986   1.849   2.682  0.1075  0.0436  0.0995
 7579TIP3    H144152   5.901   1.862   2.724 -0.9241  0.6543 -2.1402
 7579TIP3    H244153   6.020   1.769   2.722 -1.6879 -0.4381  0.7053
 7580TIP3   OH244154   1.490   4.121   5.553 -0.1918  0.2458 -0.1829
 7580TIP3    H144155   1.557   4.161   5.608 -0.0531  1.9988 -1.5841
 7580TIP3    H244156   1.506   4.027   5.559  0.4694  0.4642  1.9126
 7581TIP3   OH244157   0.737   2.513  13.860 -0.3394  0.0763 -0.4886
 7581TIP3    H144158   0.761   2.605  13.859  0.3792 -0.1164 -2.2383
 7581TIP3    H244159   0.641   2.512  13.853 -0.2309  0.6653 -2.3280
 7582TIP3   OH244160   5.212   3.648  14.699 -0.6080 -0.0511  0.2551
 7582TIP3    H144161   5.140   3.620  14.754  0.1578  0.7597  1.7101
 7582TIP3    H244162   5.230   3.574  14.641 -1.5357 -0.8465  0.9877
 7583TIP3   OH244163   2.444   0.492  10.883  0.4840 -0.3538  0.3194
 7583TIP3    H144164   2.407   0.570  10.925  2.6810  1.4715 -1.0316
 7583TIP3    H244165   2.524   0.474  10.932  0.7759 -0.8736 -0.3456
 7584TIP3   OH244166   0.375   1.150   6.381 -0.2882 -0.1762  0.0357
 7584TIP3    H144167   0.393   1.110   6.466 -0.0480 -0.9680 -0.3815
 7584TIP3    H244168   0.280   1.163   6.380 -0.1619  0.9378  0.8951
 7585TIP3   OH244169   3.556   6.638   0.601 -0.1955 -0.1649  0.5184
 7585TIP3    H144170   3.542   6.652   0.507 -1.2937  1.9910  0.9776
 7585TIP3    H244171   3.576   6.725   0.636 -0.9348 -0.7395  2.4605
 7586TIP3   OH244172   4.518   3.797  13.225  0.2545 -0.6155 -0.3604
 7586TIP3    H144173   4.428   3.799  13.193  0.7170 -0.7044 -1.6847
 7586TIP3    H244174   4.555   3.881  13.198  0.7973 -0.8946 -0.4806
 7587TIP3   OH244175   5.725   3.521  10.909 -0.2735 -0.1205  0.0384
 7587TIP3    H144176   5.656   3.468  10.949 -0.4449  1.3040  1.7308
 7587TIP3    H244177   5.682   3.605  10.891  0.7862  0.4715  0.2604
 7588TIP3   OH244178   5.016   4.631   3.028  0.4423  0.1391 -0.0851
 7588TIP3    H144179   4.954   4.685   2.979 -0.7938 -0.8352  0.3734
 7588TIP3    H244180   5.048   4.568   2.964  0.4940  0.2564 -0.1751
 7589TIP3   OH244181   1.893   3.122   1.461  0.0748  0.0352 -0.3859
 7589TIP3    H144182   1.981   3.122   1.498 -0.0155  1.3580 -0.1416
 7589TIP3    H244183   1.907   3.110   1.367  0.5866  1.3675 -0.4853
 7590TIP3   OH244184   4.804   0.530  16.456 -0.5669  0.1764  0.2650
 7590TIP3    H144185   4.876   0.566  16.404 -0.6777 -0.1331 -0.1053
 7590TIP3    H244186   4.727   0.578  16.425 -0.9610 -1.4106 -1.3016
 7591TIP3   OH244187   0.964   3.367   0.047 -0.1578  0.1081  0.2132
 7591TIP3    H144188   1.010   3.421  -0.018  0.0308  1.0590  1.1229
 7591TIP3    H244189   0.911   3.429   0.096 -0.2718 -0.6004  0.9900
 7592TIP3   OH244190   1.219   0.309  14.287 -0.0082  0.4555  0.4906
 7592TIP3    H144191   1.203   0.371  14.358 -0.1598  1.1950 -0.1818
 7592TIP3    H244192   1.295   0.345  14.241  0.2850 -0.1917  0.4704
 7593TIP3   OH244193   0.467   3.564   1.278 -1.2205  0.2544  0.3479
 7593TIP3    H144194   0.394   3.562   1.339  0.1688 -0.1962  2.0251
 7593TIP3    H244195   0.460   3.648   1.233 -1.5635  1.1021  1.9893
 7594TIP3   OH244196   6.137   6.081   4.934  0.1219  0.0465 -0.0447
 7594TIP3    H144197   6.225   6.049   4.915 -0.2092 -1.2080  0.5038
 7594TIP3    H244198   6.143   6.176   4.924  0.8800 -0.2376 -2.7180
 7595TIP3   OH244199   1.508   4.013   0.784  0.7759  0.0568  0.0463
 7595TIP3    H144200   1.510   3.920   0.803  0.4619 -0.1501 -0.8936
 7595TIP3    H244201   1.577   4.026   0.718 -0.1595  0.2278 -0.9164
 7596TIP3   OH244202   1.903   2.399  15.636 -0.5509 -0.0030  0.4048
 7596TIP3    H144203   1.901   2.433  15.547 -1.0084  0.5329  0.6126
 7596TIP3    H244204   1.845   2.323  15.635 -0.6691  0.0892  0.2819
 7597TIP3   OH244205   0.562   0.337   3.409  0.7648  0.0681 -0.6560
 7597TIP3    H144206   0.482   0.389   3.396 -0.7515 -2.2910 -1.1573
 7597TIP3    H244207   0.539   0.251   3.375  3.2334 -0.9166  0.1177
 7598TIP3   OH244208   2.455   0.615  13.357 -0.4505  0.1546 -0.2922
 7598TIP3    H144209   2.472   0.571  13.274 -0.0609  1.3477 -0.8550
 7598TIP3    H244210   2.523   0.682  13.363 -0.2632 -0.1397  1.1554
 7599TIP3   OH244211   6.216   6.417   1.440 -0.8196 -0.7753  1.3589
 7599TIP3    H144212   6.199   6.507   1.468 -0.3488 -0.3682  0.3433
 7599TIP3    H244213   6.300   6.395   1.481  1.0916  0.6657 -1.6077
 7600TIP3   OH244214   3.465   0.154   0.108  0.6051 -0.3216 -0.4008
 7600TIP3    H144215   3.447   0.082   0.047 -2.5764  0.6616 -0.6951
 7600TIP3    H244216   3.411   0.134   0.185  1.0309  0.8752  0.2158
 7601TIP3   OH244217   4.021   2.745   3.126 -0.2110  0.0395 -0.6412
 7601TIP3    H144218   4.074   2.824   3.118  1.7705 -1.2883 -1.1159
 7601TIP3    H244219   4.062   2.696   3.197 -1.1862 -0.7413 -0.6043
 7602TIP3   OH244220   0.414   3.424   1.816  0.1066 -0.8005  0.5726
 7602TIP3    H144221   0.354   3.498   1.830  0.3765 -0.4424 -0.1242
 7602TIP3    H244222   0.443   3.400   1.904 -0.3020 -0.3442  0.8378
 7603TIP3   OH244223   1.842   1.720   1.980 -0.0425 -0.3027  0.3602
 7603TIP3    H144224   1.833   1.658   2.052 -0.2573  0.4416  0.9756
 7603TIP3    H244225   1.904   1.785   2.012 -1.5609  1.0584  0.5871
 7604TIP3   OH244226   1.265   3.113   5.160 -0.0874  0.2554 -0.3343
 7604TIP3    H144227   1.172   3.114   5.182 -0.0297 -0.0284 -0.0705
 7604TIP3    H244228   1.267   3.107   5.064 -0.3390  0.8446 -0.3780
 7605TIP3   OH244229   3.020   4.919  11.975 -0.3243  0.0730  0.0380
 7605TIP3    H144230   3.002   4.824  11.973  0.8661 -0.1290 -1.0871
 7605TIP3    H244231   3.114   4.926  11.986 -0.4142  1.1512  0.1932
 7606TIP3   OH244232   4.005   1.763   4.031 -0.1526 -0.0385 -0.2978
 7606TIP3    H144233   3.927   1.755   3.976 -0.6025 -0.7124  0.4230
 7606TIP3    H244234   4.019   1.675   4.066  1.7948 -0.2574 -1.5656
 7607TIP3   OH244235   1.332   5.556   2.420  0.4900  0.6100  0.1489
 7607TIP3    H144236   1.356   5.598   2.338 -0.8320 -0.0027 -0.5660
 7607TIP3    H244237   1.412   5.561   2.473  0.5964  3.4056 -0.1500
 7608TIP3   OH244238   2.258   6.341   2.495  0.4008 -0.0475 -0.3836
 7608TIP3    H144239   2.297   6.347   2.582 -0.0257  2.4448 -0.3230
 7608TIP3    H244240   2.307   6.272   2.451  1.8538 -0.0579  1.2131
 7609TIP3   OH244241   3.908   0.919  16.873  0.0503 -0.5576  0.4619
 7609TIP3    H144242   3.878   0.998  16.827 -0.6442 -0.2666  1.4045
 7609TIP3    H244243   3.995   0.902  16.836  0.0344  0.4084 -0.0516
 7610TIP3   OH244244   0.949   3.903  12.135 -0.3524  0.6514 -0.1994
 7610TIP3    H144245   0.981   3.834  12.077 -0.9879 -0.4689  0.7579
 7610TIP3    H244246   1.021   3.920  12.196 -0.4510  0.3485 -0.0014
 7611TIP3   OH244247   0.296   1.969   5.207  0.6277 -0.4806 -0.0651
 7611TIP3    H144248   0.231   2.037   5.189 -0.4031 -1.4458 -0.0226
 7611TIP3    H244249   0.322   1.937   5.121  2.0540  0.8400 -0.1330
 7612TIP3   OH244250   5.474   1.719  16.644 -0.6600  0.3181 -0.3265
 7612TIP3    H144251   5.452   1.799  16.691  0.5671  0.3827  0.1775
 7612TIP3    H244252   5.396   1.664  16.652 -1.2969  1.2272 -0.1763
 7613TIP3   OH244253   2.410   1.518  14.228 -0.1491 -0.0795  0.1649
 7613TIP3    H144254   2.399   1.453  14.159 -3.0227  0.6422 -0.1034
 7613TIP3    H244255   2.471   1.582  14.192 -1.4780  0.1837 -1.6333
 7614TIP3   OH244256   3.032   0.475  14.796 -0.1637 -0.0948 -0.2024
 7614TIP3    H144257   3.092   0.452  14.725  0.5580 -0.0040  0.3670
 7614TIP3    H244258   2.984   0.551  14.763 -0.8584 -0.9286 -1.1441
 7615TIP3   OH244259   1.430   1.714  14.955  0.3972 -0.6239  0.3317
 7615TIP3    H144260   1.450   1.703  14.862 -1.5888  0.1345 -0.2018
 7615TIP3    H244261   1.338   1.741  14.957  1.3017  2.5772  2.3051
 7616TIP3   OH244262   0.585   1.429  12.965 -0.6113 -0.2265  0.0193
 7616TIP3    H144263   0.644   1.390  13.029 -2.1984 -0.9684  1.0608
 7616TIP3    H244264   0.603   1.381  12.884  0.4207 -0.2337  0.2468
 7617TIP3   OH244265   0.830   6.335   2.949 -0.5873  0.5308 -0.2638
 7617TIP3    H144266   0.858   6.357   2.860  1.8901  0.0595  0.3611
 7617TIP3    H244267   0.887   6.262   2.974 -2.4424 -0.4890  1.0774
 7618TIP3   OH244268   1.904   1.367  11.531 -0.0635  0.0874  0.5759
 7618TIP3    H144269   1.922   1.442  11.474  2.4619 -0.2856  0.8249
 7618TIP3    H244270   1.950   1.387  11.613  0.0597 -1.3901  0.8942
 7619TIP3   OH244271   1.435   0.369  12.631 -0.1838 -0.1158  0.6873
 7619TIP3    H144272   1.441   0.298  12.568 -1.0549 -0.8848  1.4484
 7619TIP3    H244273   1.352   0.413  12.610 -0.0263  0.1993  0.7154
 7620TIP3   OH244274   2.937   1.956  12.668 -0.4893  0.1998  0.0657
 7620TIP3    H144275   2.968   2.001  12.747  2.2928  0.1361 -0.9222
 7620TIP3    H244276   2.842   1.953  12.677 -0.2679  0.7922  3.0959
 7621TIP3   OH244277   0.079   5.116   3.445 -0.3156 -0.6127 -0.2337
 7621TIP3    H144278   0.054   5.160   3.526 -0.7343 -2.7032  0.8273
 7621TIP3    H244279   0.166   5.150   3.424 -0.1697 -0.1121  1.1619
 7622TIP3   OH244280   0.167   6.239   3.700  0.3579 -0.0333 -0.4376
 7622TIP3    H144281   0.109   6.299   3.746 -0.2885 -0.8158 -0.2174
 7622TIP3    H244282   0.111   6.165   3.676  1.1023 -0.4656 -0.8633
 7623TIP3   OH244283   3.680   4.195   2.602  0.3501 -0.5205 -0.0581
 7623TIP3    H144284   3.710   4.140   2.675  3.3891  0.1588 -0.7434
 7623TIP3    H244285   3.737   4.272   2.605 -2.1315  1.3920 -0.7308
 7624TIP3   OH244286   1.093   6.216   2.032 -0.0249 -0.3202 -0.6423
 7624TIP3    H144287   1.024   6.155   2.057  0.9994 -1.5221 -0.7196
 7624TIP3    H244288   1.173   6.179   2.070  0.3534  1.8857  0.7913
 7625TIP3   OH244289   3.712   0.743   4.787 -0.0272 -0.1847 -0.4143
 7625TIP3    H144290   3.775   0.802   4.746 -0.2112 -0.0626 -0.5243
 7625TIP3    H244291   3.655   0.716   4.716 -0.8014  0.6093 -0.1152
 7626TIP3   OH244292   0.517   2.029   3.959 -0.0232  0.1420  0.0846
 7626TIP3    H144293   0.545   2.120   3.967 -0.0353 -0.0254  2.1701
 7626TIP3    H244294   0.423   2.034   3.940 -0.2477  0.5537  1.2700
 7627TIP3   OH244295   5.905   5.490   2.885  1.0613  0.9359 -0.2733
 7627TIP3    H144296   5.994   5.521   2.870  0.3313  3.0032 -0.4020
 7627TIP3    H244297   5.857   5.567   2.915 -0.6146 -0.2311  0.1190
 7628TIP3   OH244298   3.925   4.213  13.104 -0.4948  0.2891 -0.4118
 7628TIP3    H144299   3.875   4.187  13.026  0.4322  0.7497 -1.1845
 7628TIP3    H244300   3.986   4.280  13.071  1.3629 -1.0278  0.2901
 7629TIP3   OH244301   5.811   1.613  14.118 -0.1205 -0.2899  0.0088
 7629TIP3    H144302   5.798   1.632  14.025  0.0854 -0.3131 -0.0263
 7629TIP3    H244303   5.905   1.594  14.126  0.1116  0.9565  0.4343
 7630TIP3   OH244304   5.824   0.757   2.879 -0.3620  0.3043  0.1897
 7630TIP3    H144305   5.846   0.784   2.969 -1.6593 -0.2625  0.6914
 7630TIP3    H244306   5.800   0.665   2.887 -0.2135  0.1744 -0.7991
 7631TIP3   OH244307   0.588   3.470  15.015 -0.5467 -0.0512  0.5021
 7631TIP3    H144308   0.494   3.471  15.030 -0.4240  2.0182  1.3774
 7631TIP3    H244309   0.625   3.448  15.101 -0.1793  1.7778  0.8482
 7632TIP3   OH244310   0.595   6.642  11.522  0.3827 -0.4902 -0.1423
 7632TIP3    H144311   0.518   6.683  11.483 -0.8726 -0.7451  1.9524
 7632TIP3    H244312   0.604   6.559  11.476  0.5733  0.3901 -1.7131
 7633TIP3   OH244313   1.547   2.987   0.469  0.4957  0.1927 -0.1296
 7633TIP3    H144314   1.581   3.077   0.474 -0.9544  0.8141 -1.1608
 7633TIP3    H244315   1.464   2.991   0.515  0.3802 -0.6091 -0.2725
 7634TIP3   OH244316   3.781   1.114  11.332 -0.3885  1.1710  0.0755
 7634TIP3    H144317   3.836   1.186  11.302  0.6542 -0.2698 -1.6369
 7634TIP3    H244318   3.844   1.050  11.367 -1.0221 -0.1363 -1.1172
 7635TIP3   OH244319   6.679   4.937   3.314 -0.0714 -0.2030  0.1451
 7635TIP3    H144320   6.671   4.910   3.406 -0.2464  1.5889  0.6661
 7635TIP3    H244321   6.722   5.022   3.318  0.0948 -0.1979 -1.4659
 7636TIP3   OH244322   5.271   2.290   3.886 -0.5214 -0.0454 -0.7024
 7636TIP3    H144323   5.364   2.296   3.865 -0.6104 -1.1658 -1.4857
 7636TIP3    H244324   5.269   2.272   3.980  0.0029  1.3751 -0.4210
 7637TIP3   OH244325   6.745   1.850   5.272 -0.3321  0.1982  0.3238
 7637TIP3    H144326   6.717   1.869   5.182 -1.3963  0.1671  0.6342
 7637TIP3    H244327   6.740   1.755   5.280 -0.2863  0.2039  0.4304
 7638TIP3   OH244328   1.407   6.033   3.100  0.4588 -0.3797 -0.3796
 7638TIP3    H144329   1.340   5.967   3.082  0.5127 -0.7463  0.7247
 7638TIP3    H244330   1.483   5.982   3.129  0.1603  0.1914  1.5204
 7639TIP3   OH244331   1.242   6.608  15.135  0.0801  0.8433  0.0857
 7639TIP3    H144332   1.275   6.651  15.056 -2.8214  2.8627 -0.0797
 7639TIP3    H244333   1.156   6.574  15.110  0.4750 -1.3117  1.4900
 7640TIP3   OH244334   5.406   5.133  15.020  0.1164  0.7301 -0.2517
 7640TIP3    H144335   5.323   5.085  15.020 -0.1338  1.1362  1.4483
 7640TIP3    H244336   5.472   5.067  15.040  0.4626  0.0359 -3.4548
 7641TIP3   OH244337   2.435   6.166   4.984  0.1822  0.1103  0.0701
 7641TIP3    H144338   2.345   6.181   4.956  0.4002 -0.7065 -1.1156
 7641TIP3    H244339   2.483   6.242   4.950  0.4121 -0.7884 -1.6362
 7642TIP3   OH244340   1.142   3.463  15.360 -0.2031 -0.3269 -0.2509
 7642TIP3    H144341   1.209   3.395  15.367  1.3408  0.9090 -2.4002
 7642TIP3    H244342   1.065   3.417  15.329  0.2635 -1.4253  0.1907
 7643TIP3   OH244343   5.880   4.574   4.704 -0.3307  0.3092 -0.1422
 7643TIP3    H144344   5.808   4.637   4.705 -0.8574 -0.2769 -0.4473
 7643TIP3    H244345   5.893   4.554   4.611 -0.2242 -0.0962 -0.0411
 7644TIP3   OH244346   4.140   4.179  14.920  0.1371 -0.4573 -0.0288
 7644TIP3    H144347   4.090   4.099  14.905  0.1440 -0.4462 -0.1107
 7644TIP3    H244348   4.231   4.151  14.922 -0.0133 -0.8331  2.5501
 7645TIP3   OH244349   4.973   6.286  14.616  0.5190 -0.1447  0.0629
 7645TIP3    H144350   4.963   6.356  14.552  0.5377  0.3153  0.5540
 7645TIP3    H244351   5.046   6.233  14.585  1.9801  1.3650  0.8775
 7646TIP3   OH244352   6.133   0.119   2.469 -0.7412  0.3702  0.2035
 7646TIP3    H144353   6.077   0.041   2.478 -2.2690  1.4657  0.4022
 7646TIP3    H244354   6.108   0.175   2.543 -0.7170  1.6930 -0.7775
 7647TIP3   OH244355   2.093   2.348  16.816  0.3565  0.1275  0.3981
 7647TIP3    H144356   2.171   2.295  16.799 -1.5352 -2.6882  0.1925
 7647TIP3    H244357   2.079   2.339  16.911 -0.8418 -1.0164  0.1225
 7648TIP3   OH244358   0.933   5.216  12.030 -0.1687 -0.5579  0.3762
 7648TIP3    H144359   0.936   5.312  12.029 -0.9733 -0.5368 -0.4333
 7648TIP3    H244360   1.017   5.190  12.068  1.4426  0.4035 -2.3573
 7649TIP3   OH244361   2.575   2.146   4.433  0.4011 -0.2041  0.4587
 7649TIP3    H144362   2.495   2.156   4.381  0.2865  3.1330  1.1918
 7649TIP3    H244363   2.645   2.164   4.371  0.3969  0.8268  0.7504
 7650TIP3   OH244364   6.606   6.228  14.842  0.1604 -0.0631 -0.1126
 7650TIP3    H144365   6.688   6.181  14.827  1.0448 -0.0031  3.9650
 7650TIP3    H244366   6.628   6.320  14.828  0.6439 -0.0903  0.4858
 7651TIP3   OH244367   6.637   0.192  15.720 -0.2457 -0.3912  0.2972
 7651TIP3    H144368   6.692   0.115  15.732  0.0985 -0.2461 -0.3523
 7651TIP3    H244369   6.697   0.266  15.727  0.2609 -0.3378 -3.8794
 7652TIP3   OH244370   3.665   6.666  10.927 -0.4410  0.6082  0.0377
 7652TIP3    H144371   3.587   6.649  10.875 -0.7093 -0.2609  0.7136
 7652TIP3    H244372   3.632   6.709  11.007 -0.3893 -1.0399  0.9578
 7653TIP3   OH244373   5.525   5.163  15.367  0.6152 -0.4432  0.2983
 7653TIP3    H144374   5.459   5.104  15.329  0.5605 -1.5591  2.0717
 7653TIP3    H244375   5.480   5.203  15.442  1.4444  0.0550  0.5312
 7654TIP3   OH244376   2.529   4.495   3.464  0.0815 -0.1584  0.1143
 7654TIP3    H144377   2.600   4.440   3.429 -0.8407 -1.2315 -0.0906
 7654TIP3    H244378   2.485   4.438   3.527 -1.5679 -0.0254 -0.9047
 7655TIP3   OH244379   4.602   4.442  15.566 -0.0091 -0.6092  0.3580
 7655TIP3    H144380   4.591   4.457  15.472  0.2162  2.6261  0.7845
 7655TIP3    H244381   4.514   4.421  15.598 -1.3760  4.4225  0.3462
 7656TIP3   OH244382   6.074   3.265   4.687  0.1057  0.8082 -0.9234
 7656TIP3    H144383   6.164   3.237   4.700 -0.1326 -0.0418 -1.0699
 7656TIP3    H244384   6.021   3.201   4.736 -0.4204  1.1972 -0.9802
 7657TIP3   OH244385   4.074   6.778  16.933  0.2196  0.9212 -0.0282
 7657TIP3    H144386   4.137   6.756  17.001 -0.1693  0.1397  0.0843
 7657TIP3    H244387   4.118   6.754  16.851  0.0143  0.2634  0.0582
 7658TIP3   OH244388   3.810   3.926   2.342  0.4322 -0.1253  0.6387
 7658TIP3    H144389   3.745   3.961   2.281  0.4438 -1.2056 -0.0084
 7658TIP3    H244390   3.883   3.986   2.337  0.9010 -0.8288 -1.2963
 7659TIP3   OH244391   1.625   5.168   5.149  0.3769 -0.0260  0.7327
 7659TIP3    H144392   1.712   5.126   5.151  0.6611  0.5659  3.5297
 7659TIP3    H244393   1.643   5.261   5.162 -0.6045  0.2500  0.1271
 7660TIP3   OH244394   2.008   6.110  12.988 -0.0336  0.3603 -0.2444
 7660TIP3    H144395   2.068   6.068  12.926  0.1039 -0.6859  0.5988
 7660TIP3    H244396   2.023   6.065  13.071  0.6031  2.5081  0.8482
 7661TIP3   OH244397   3.394   4.820  16.705  1.0104  0.2546 -0.3824
 7661TIP3    H144398   3.434   4.871  16.775 -2.2836 -0.3080  2.0055
 7661TIP3    H244399   3.468   4.779  16.659  3.1794 -0.5599  3.6552
 7662TIP3   OH244400   1.726   0.138   2.938  0.1122 -0.1950  0.2709
 7662TIP3    H144401   1.693   0.050   2.924 -0.1311  0.1191 -1.2675
 7662TIP3    H244402   1.815   0.136   2.903  0.3515 -0.0119  0.8616
 7663TIP3   OH244403   6.076   0.135   0.364  0.2204  0.2400 -0.1761
 7663TIP3    H144404   6.165   0.105   0.382  1.1647  1.9907 -1.7659
 7663TIP3    H244405   6.084   0.188   0.285 -2.0426  1.4112  0.3399
 7664TIP3   OH244406   1.560   3.586   5.305  0.4129 -0.5607  0.0274
 7664TIP3    H144407   1.639   3.636   5.326  0.6622 -0.7159 -0.5260
 7664TIP3    H244408   1.558   3.584   5.210 -2.2264  2.5510 -0.0868
 7665TIP3   OH244409   3.745   1.069  15.328 -0.1058 -0.1496  0.1421
 7665TIP3    H144410   3.770   1.058  15.236 -1.7337 -1.5295 -0.1731
 7665TIP3    H244411   3.806   1.012  15.376  1.1403  1.0360  0.0026
 7666TIP3   OH244412   2.146   3.328  14.425  0.5941  0.3261  0.5161
 7666TIP3    H144413   2.105   3.305  14.341 -0.5270  0.3751  1.0480
 7666TIP3    H244414   2.239   3.313  14.410  0.1350 -2.3036  0.1040
 7667TIP3   OH244415   6.704   0.867   2.256  0.5567  0.2246  0.9688
 7667TIP3    H144416   6.673   0.957   2.250  0.2639  0.1894  1.9282
 7667TIP3    H244417   6.668   0.825   2.177 -0.1913  0.6835  1.0556
 7668TIP3   OH244418   2.732   4.597   3.135  0.6549  0.3354  0.4591
 7668TIP3    H144419   2.780   4.676   3.158 -0.0337  1.2977 -1.3114
 7668TIP3    H244420   2.642   4.626   3.121  0.0370 -1.0465  1.4454
 7669TIP3   OH244421   0.002   5.210  15.704  0.3883  0.2245 -0.2696
 7669TIP3    H144422   0.035   5.215  15.794  0.2823 -0.8346 -0.1640
 7669TIP3    H244423  -0.035   5.122  15.697 -3.1216  1.6205 -0.1477
 7670TIP3   OH244424   0.410   2.397   0.106 -0.2992  0.0423  0.0890
 7670TIP3    H144425   0.451   2.342   0.038 -1.7010 -0.9048 -0.0155
 7670TIP3    H244426   0.342   2.341   0.144 -0.5321  1.0946  1.2456
 7671TIP3   OH244427   1.692   2.024  15.217 -0.2963  0.1989 -0.6803
 7671TIP3    H144428   1.613   1.973  15.198 -1.2745  1.5112 -0.1824
 7671TIP3    H244429   1.763   1.959  15.218 -1.7807 -1.4538  1.8821
 7672TIP3   OH244430   5.038   3.470  11.826  0.0762  0.7164 -0.0641
 7672TIP3    H144431   5.045   3.401  11.893 -0.6175  0.8732  0.1705
 7672TIP3    H244432   4.951   3.507  11.838  0.2653  1.3172 -0.5086
 7673TIP3   OH244433   5.167   0.610   5.373 -0.0753 -0.2233 -0.1512
 7673TIP3    H144434   5.094   0.619   5.312 -0.4214  0.3147  0.3463
 7673TIP3    H244435   5.213   0.531   5.344 -1.0142 -0.7188 -0.2910
 7674TIP3   OH244436   3.300   6.142  12.724 -0.1224 -0.0918  0.0951
 7674TIP3    H144437   3.250   6.121  12.645  1.0213 -0.2455 -0.5879
 7674TIP3    H244438   3.389   6.112  12.706  0.5486  1.3850  0.7867
 7675TIP3   OH244439   4.581   6.724   3.571  0.5604 -0.0892  0.0464
 7675TIP3    H144440   4.609   6.633   3.562  0.7003  0.1198 -1.9646
 7675TIP3    H244441   4.560   6.751   3.481  0.2236  1.7558  0.6664
 7676TIP3   OH244442   6.017   1.469   0.057 -0.2652  0.9930 -0.4139
 7676TIP3    H144443   6.091   1.410   0.042 -0.9775  0.2258 -0.9810
 7676TIP3    H244444   6.056   1.551   0.087  0.7145  0.0376  0.9827
 7677TIP3   OH244445   1.225   0.374  15.330 -0.1621 -0.4836  0.2748
 7677TIP3    H144446   1.273   0.407  15.406  0.9726  0.3562 -0.7752
 7677TIP3    H244447   1.141   0.420  15.333  1.1632  2.1261 -0.8161
 7678TIP3   OH244448   1.071   1.088   4.457 -0.1959 -0.0895 -0.6430
 7678TIP3    H144449   1.009   1.132   4.399  0.5928  1.4740 -0.3243
 7678TIP3    H244450   1.144   1.064   4.399  0.2500  0.7844 -0.4434
 7679TIP3   OH244451   5.229   6.736  10.240 -0.0254  0.7943 -0.0356
 7679TIP3    H144452   5.160   6.695  10.291  0.9201  0.8873  1.3590
 7679TIP3    H244453   5.288   6.664  10.218  0.3010  0.9838  0.2170
 7680TIP3   OH244454   2.633   3.392   5.723 -0.0068 -0.5274  0.5684
 7680TIP3    H144455   2.681   3.311   5.743  0.0838 -0.6080  0.0254
 7680TIP3    H244456   2.570   3.366   5.655  1.8715  0.4735 -1.5977
 7681TIP3   OH244457   2.499   1.303  16.121  0.1578 -0.7852 -0.4787
 7681TIP3    H144458   2.583   1.348  16.132 -0.2863  0.2828 -1.3772
 7681TIP3    H244459   2.462   1.301  16.209  1.3464 -1.7243  0.0179
 7682TIP3   OH244460   2.687   0.423   2.877 -0.8409 -0.3253  0.4424
 7682TIP3    H144461   2.725   0.409   2.790  0.0331 -0.6675  0.8644
 7682TIP3    H244462   2.594   0.404   2.867 -0.4480 -2.1136 -0.0271
 7683TIP3   OH244463   4.529   2.356  16.097 -0.0304 -0.2046 -0.2177
 7683TIP3    H144464   4.553   2.439  16.138  0.4167  0.0256 -0.9416
 7683TIP3    H244465   4.492   2.381  16.012 -1.2221 -0.6613  0.1553
 7684TIP3   OH244466   1.366   3.593  13.959 -0.5317 -0.0750  0.1198
 7684TIP3    H144467   1.366   3.671  13.903  0.1844 -0.6200 -0.6546
 7684TIP3    H244468   1.451   3.595  14.003 -0.5740 -0.3411  0.2138
 7685TIP3   OH244469   2.131   1.261  16.813  0.0271  0.2237  0.3471
 7685TIP3    H144470   2.188   1.254  16.889 -0.1795  0.3626  0.5137
 7685TIP3    H244471   2.061   1.198  16.830  0.0174  0.2041  0.2375
 7686TIP3   OH244472   2.922   5.916   2.683  0.1399 -0.1258 -0.5544
 7686TIP3    H144473   2.870   5.930   2.604  0.6838  0.4030 -0.8194
 7686TIP3    H244474   2.861   5.931   2.755 -0.8690 -2.5075 -0.8680
 7687TIP3   OH244475   3.250   3.951   2.214  0.1212 -0.0800 -0.3106
 7687TIP3    H144476   3.171   3.994   2.245  0.5398  0.5345 -0.0852
 7687TIP3    H244477   3.246   3.959   2.119 -1.0184 -1.7106 -0.4161
 7688TIP3   OH244478   3.076   0.783   2.329  0.3933  0.1247  0.0025
 7688TIP3    H144479   3.105   0.871   2.309 -1.2318  0.3220 -1.6159
 7688TIP3    H244480   3.051   0.745   2.245  2.7699 -2.5420  0.4075
 7689TIP3   OH244481   0.716   3.173   4.850 -0.2181  0.4223 -0.3066
 7689TIP3    H144482   0.731   3.088   4.808  2.1006 -0.1004  1.4752
 7689TIP3    H244483   0.773   3.172   4.926 -0.3219  3.5298 -0.1454
 7690TIP3   OH244484   4.567   5.880  14.840  0.1911  0.4560  0.0989
 7690TIP3    H144485   4.582   5.873  14.934  0.7717  3.0879  0.2494
 7690TIP3    H244486   4.504   5.951  14.831  0.4887  0.5348 -1.5245
 7691TIP3   OH244487   4.464   6.744  12.067  0.0735 -0.0292 -0.4849
 7691TIP3    H144488   4.547   6.715  12.028  1.2104 -0.8607  2.4138
 7691TIP3    H244489   4.481   6.834  12.094  0.4439 -0.5634  1.1307
 7692TIP3   OH244490   4.621   2.876   4.258 -0.3032  0.2938  0.4496
 7692TIP3    H144491   4.712   2.869   4.230 -0.2107 -2.1348  1.2944
 7692TIP3    H244492   4.622   2.857   4.351 -1.7703 -0.5666  0.3081
 7693TIP3   OH244493   2.148   3.576  13.108 -0.3128  0.6087 -0.1582
 7693TIP3    H144494   2.148   3.485  13.136 -0.4353  0.4803 -0.5747
 7693TIP3    H244495   2.240   3.602  13.113 -0.3564  0.6335  0.5082
 7694TIP3   OH244496   6.250   3.012   1.536  0.5439 -0.4315  0.2712
 7694TIP3    H144497   6.297   2.932   1.559  0.7568 -0.9587 -1.9206
 7694TIP3    H244498   6.313   3.082   1.554  2.2824 -1.1406 -2.6658
 7695TIP3   OH244499   0.137   5.579   3.342  0.1992 -0.4108 -0.0201
 7695TIP3    H144500   0.077   5.650   3.364  2.7093  0.9512  2.7876
 7695TIP3    H244501   0.096   5.501   3.380  0.3045  0.5709  2.2252
 7696TIP3   OH244502   5.498   6.664   6.171  0.2759  0.0280  0.6089
 7696TIP3    H144503   5.409   6.630   6.161 -0.5156  1.2100  3.2022
 7696TIP3    H244504   5.495   6.750   6.128  0.1062  0.1166  0.7934
 7697TIP3   OH244505   5.418   1.299  11.902  0.5022  0.0113 -0.3848
 7697TIP3    H144506   5.468   1.368  11.946 -0.1883  0.7466 -0.7305
 7697TIP3    H244507   5.327   1.327  11.912  0.2441 -0.6877 -0.8195
 7698TIP3   OH244508   4.816   4.439   3.712 -0.3090 -0.1066 -0.4246
 7698TIP3    H144509   4.868   4.485   3.647 -0.7862  0.1512 -0.6307
 7698TIP3    H244510   4.779   4.509   3.766  1.7088 -0.3906  1.3935
 7699TIP3   OH244511   0.420   0.942  12.448  0.0689 -0.1569 -0.1048
 7699TIP3    H144512   0.468   0.859  12.448  1.0269  0.3644 -2.2856
 7699TIP3    H244513   0.487   1.008  12.431 -0.6916  1.0828  1.5803
 7700TIP3   OH244514   5.722   0.196  13.106  0.1195 -0.0093  0.0105
 7700TIP3    H144515   5.803   0.171  13.151  0.0663  0.2495  0.2599
 7700TIP3    H244516   5.748   0.270  13.051  0.1907 -0.3455 -0.4099
 7701TIP3   OH244517   2.174   6.721  14.682  0.4262 -0.0430 -0.4658
 7701TIP3    H144518   2.165   6.709  14.588 -0.2328 -0.6177 -0.3280
 7701TIP3    H244519   2.249   6.780  14.691  0.4991  0.0071 -1.3450
 7702TIP3   OH244520   2.499   6.751  13.022  0.2602 -0.3752 -0.0883
 7702TIP3    H144521   2.582   6.735  13.067 -0.2055  0.5470  1.1111
 7702TIP3    H244522   2.524   6.799  12.943  0.8784 -0.0855  0.2789
 7703TIP3   OH244523   6.350   1.605  12.241 -0.3251  0.0660  0.2926
 7703TIP3    H144524   6.341   1.696  12.270  1.5558  0.4666 -0.2942
 7703TIP3    H244525   6.420   1.569  12.296  2.5450  0.5212 -2.8938
 7704TIP3   OH244526   2.589   2.240  16.168  0.2079 -0.2931 -0.7466
 7704TIP3    H144527   2.653   2.169  16.170 -0.8996 -1.3074 -0.2214
 7704TIP3    H244528   2.523   2.211  16.105 -0.6359 -0.0877  0.0270
 7705TIP3   OH244529   2.040   5.248   1.702 -0.3545  0.0175  0.1651
 7705TIP3    H144530   2.022   5.231   1.794  2.1799 -1.3734  0.4363
 7705TIP3    H244531   2.101   5.322   1.702  0.1305 -0.3769 -0.3658
 7706TIP3   OH244532   1.621   0.642   0.796  0.3388 -0.2429  0.4415
 7706TIP3    H144533   1.563   0.719   0.798  0.8499  0.1844 -0.6609
 7706TIP3    H244534   1.612   0.609   0.707  1.5830 -0.3340  0.3455
 7707TIP3   OH244535   2.505   1.160   5.731 -0.2513  0.6511 -0.1179
 7707TIP3    H144536   2.552   1.244   5.737  0.6758  0.1439 -0.1957
 7707TIP3    H244537   2.507   1.138   5.638  2.0901 -0.8894  0.2526
 7708TIP3   OH244538   6.020   0.313  14.010  0.2142 -0.2688 -0.2489
 7708TIP3    H144539   6.058   0.388  14.056  1.2233  0.1868 -1.7982
 7708TIP3    H244540   6.069   0.308  13.928 -1.6943 -0.9460 -1.3754
 7709TIP3   OH244541   4.885   4.959   0.515 -0.1416  0.0259 -0.2609
 7709TIP3    H144542   4.935   5.037   0.539  0.2073 -0.1596 -0.3985
 7709TIP3    H244543   4.874   4.912   0.598  0.5523 -0.3103 -0.3582
 7710TIP3   OH244544   2.132   1.855   1.941 -0.0952  0.1731 -0.4434
 7710TIP3    H144545   2.107   1.835   1.851  0.3772  0.8971 -0.7410
 7710TIP3    H244546   2.222   1.824   1.949 -0.2543 -0.2067 -0.1155
 7711TIP3   OH244547   1.050   1.373   5.739  0.6164  0.4833 -0.2860
 7711TIP3    H144548   0.960   1.394   5.764  0.8595  0.3753  0.6980
 7711TIP3    H244549   1.071   1.294   5.790  1.1460  0.3074 -0.7753
 7712TIP3   OH244550   0.862   2.090   0.883  0.0560 -0.6503 -0.1604
 7712TIP3    H144551   0.833   2.138   0.961  1.2773 -1.9210  1.0846
 7712TIP3    H244552   0.824   2.003   0.893 -0.2975 -0.6343 -1.3046
 7713TIP3   OH244553   5.586   6.209   5.450  0.4087  0.0778  0.3744
 7713TIP3    H144554   5.650   6.280   5.441 -1.4145  1.6617 -0.6235
 7713TIP3    H244555   5.638   6.130   5.459  2.5032  1.3700 -0.1811
 7714TIP3   OH244556   0.473   4.454   4.231  0.3320  0.1771  0.1761
 7714TIP3    H144557   0.462   4.522   4.165 -0.1756  0.3087  0.3896
 7714TIP3    H244558   0.567   4.438   4.234  0.6468  2.1247  1.3802
 7715TIP3   OH244559   6.414   5.929  13.550 -0.0895 -0.2352  0.2320
 7715TIP3    H144560   6.411   6.023  13.570  1.8680  0.1662 -1.1371
 7715TIP3    H244561   6.484   5.921  13.485 -2.1314 -2.2544 -1.8505
 7716TIP3   OH244562   3.252   6.150  14.645  0.8608  0.0941 -0.2874
 7716TIP3    H144563   3.198   6.142  14.567  0.6905 -1.7510  0.0098
 7716TIP3    H244564   3.206   6.215  14.699 -0.6934 -0.9254 -0.3497
 7717TIP3   OH244565   1.555   0.242  11.884  0.2667  0.9771  0.1525
 7717TIP3    H144566   1.649   0.260  11.892  0.2731  0.4122  1.4163
 7717TIP3    H244567   1.536   0.180  11.954 -1.2269  1.7379  0.4454
 7718TIP3   OH244568   4.049   4.207   5.049  0.7191  0.6518 -0.5453
 7718TIP3    H144569   4.093   4.222   5.133 -0.2105  0.9019 -0.1057
 7718TIP3    H244570   4.039   4.112   5.044 -0.1650  0.7050  0.1075
 7719TIP3   OH244571   2.248   4.492  12.311  0.2120 -0.1119  0.4911
 7719TIP3    H144572   2.170   4.454  12.352 -0.0215 -0.0137  0.1432
 7719TIP3    H244573   2.314   4.491  12.380 -0.5237  1.1333  1.2520
 7720TIP3   OH244574   4.412   0.300  15.076  0.2863 -0.1821  0.2971
 7720TIP3    H144575   4.362   0.364  15.027 -0.0220 -0.4993  0.1967
 7720TIP3    H244576   4.347   0.238  15.108  0.6473 -0.7421 -0.0584
 7721TIP3   OH244577   3.399   3.529   1.790 -0.2096  0.2720  0.2624
 7721TIP3    H144578   3.446   3.528   1.873 -1.3548  0.0313  0.9158
 7721TIP3    H244579   3.468   3.520   1.724  0.8438  1.9592  1.1110
 7722TIP3   OH244580   6.505   4.388  13.575 -0.4366  0.4441  0.4383
 7722TIP3    H144581   6.425   4.372  13.525 -0.7261  1.6997  0.4854
 7722TIP3    H244582   6.570   4.414  13.510 -0.9712  2.6507  0.7368
 7723TIP3   OH244583   3.035   3.433   4.575  0.1392 -0.2854 -0.0654
 7723TIP3    H144584   2.994   3.401   4.495  0.9171 -0.0789 -0.5469
 7723TIP3    H244585   2.980   3.506   4.603 -0.5548 -0.8330 -0.0016
 7724TIP3   OH244586   3.895   4.529   1.406 -0.2224 -0.2693 -0.7262
 7724TIP3    H144587   3.818   4.476   1.428 -0.1050 -0.1843 -0.1028
 7724TIP3    H244588   3.908   4.515   1.312 -0.5175 -0.9140 -0.6713
 7725TIP3   OH244589   3.066   4.226   5.685  0.1848 -0.2135 -0.3751
 7725TIP3    H144590   3.077   4.138   5.722  0.5470  1.1472  2.8812
 7725TIP3    H244591   2.976   4.227   5.652 -0.7962 -0.8929  2.1859
 7726TIP3   OH244592   0.282   0.438   1.857  0.2605 -0.4102  0.3300
 7726TIP3    H144593   0.314   0.523   1.890 -0.5882 -0.3367  0.9951
 7726TIP3    H244594   0.224   0.407   1.927 -0.7476 -0.7489 -0.6594
 7727TIP3   OH244595   5.242   4.847   6.387  0.0899  0.2502 -0.3652
 7727TIP3    H144596   5.233   4.858   6.292 -2.3603 -0.0396 -0.1921
 7727TIP3    H244597   5.314   4.785   6.397 -1.4405 -1.9030 -2.1624
 7728TIP3   OH244598   0.900   1.313  14.960 -0.7761  0.1627 -0.2142
 7728TIP3    H144599   0.850   1.232  14.969 -1.0672  0.4048  0.3357
 7728TIP3    H244600   0.835   1.380  14.941 -0.9614  0.9426  2.9873
 7729TIP3   OH244601   5.833   5.619  12.178  0.0017 -0.3850 -0.3867
 7729TIP3    H144602   5.918   5.577  12.189  0.1457  0.0456  0.1760
 7729TIP3    H244603   5.787   5.565  12.113 -0.0126 -1.7239  0.7030
 7730TIP3   OH244604   2.676   2.710   0.015  0.2089 -0.1975  0.3901
 7730TIP3    H144605   2.730   2.646  -0.032  0.2204  0.5462 -0.6333
 7730TIP3    H244606   2.589   2.701  -0.024  0.0457 -0.0791  0.7250
 7731TIP3   OH244607   5.930   4.194   0.569  0.1446  0.0699  0.3211
 7731TIP3    H144608   5.846   4.178   0.613  0.3588 -2.4672 -0.1269
 7731TIP3    H244609   5.907   4.207   0.477  0.3631 -2.5749 -0.1482
 7732TIP3   OH244610   5.060   6.451  11.358  0.0435  0.0523 -0.1321
 7732TIP3    H144611   5.099   6.460  11.271  0.8613  1.0652  0.3274
 7732TIP3    H244612   5.040   6.358  11.366 -0.9607  0.1003 -1.7842
 7733TIP3   OH244613   6.008   1.505   0.946 -0.3281  0.6720 -0.1965
 7733TIP3    H144614   6.068   1.439   0.913 -0.6454  0.1016  0.3463
 7733TIP3    H244615   5.994   1.481   1.037 -2.1636  0.1854 -0.5765
 7734TIP3   OH244616   2.188   0.080  17.199  0.2359  0.0608  0.5220
 7734TIP3    H144617   2.239   0.145  17.150 -1.3819  0.3966 -0.7705
 7734TIP3    H244618   2.233  -0.003  17.183  1.3986  0.5986  0.8845
 7735TIP3   OH244619   4.219   4.187  13.188 -0.0505  0.2925 -0.1772
 7735TIP3    H144620   4.127   4.214  13.189  0.1452  0.9542  0.3748
 7735TIP3    H244621   4.236   4.167  13.096 -0.6726  0.4280 -0.3283
 7736TIP3   OH244622   2.212   0.896   4.252 -0.0259  0.3075  0.5626
 7736TIP3    H144623   2.264   0.897   4.172  1.0782  1.9611  1.2736
 7736TIP3    H244624   2.130   0.941   4.229  0.5191  1.2744  0.5017
 7737TIP3   OH244625   0.285   1.783  12.246  0.2299  0.0879  0.1802
 7737TIP3    H144626   0.259   1.731  12.169  1.0156  0.0789 -0.0803
 7737TIP3    H244627   0.261   1.729  12.321 -1.2607  0.4293 -0.0346
 7738TIP3   OH244628   1.599   0.629   2.872  0.0153 -0.8804 -0.0327
 7738TIP3    H144629   1.654   0.706   2.861 -1.0483 -0.0905  0.0803
 7738TIP3    H244630   1.544   0.648   2.947  0.9095 -2.4742  1.0649
 7739TIP3   OH244631   5.440   0.932   3.787 -0.0746  0.0952 -0.2416
 7739TIP3    H144632   5.401   0.995   3.727  0.9508 -0.6403 -1.7286
 7739TIP3    H244633   5.451   0.980   3.869 -1.0264  1.2738 -0.7899
 7740TIP3   OH244634   1.208   0.035  16.057  0.0261  0.2602 -0.2577
 7740TIP3    H144635   1.211   0.069  16.146  1.7148  0.0559 -0.2255
 7740TIP3    H244636   1.241  -0.054  16.064  0.2846  0.2849 -1.1078
 7741TIP3   OH244637   4.238   4.536   5.862 -0.4004  0.7475  0.3226
 7741TIP3    H144638   4.225   4.581   5.946 -1.1129 -0.2972  0.7837
 7741TIP3    H244639   4.150   4.532   5.823 -0.4959 -0.9824  0.6785
 7742TIP3   OH244640   1.314   1.898   4.517 -0.7924  0.1169 -0.2208
 7742TIP3    H144641   1.287   1.960   4.585  2.1934  0.9374  0.2675
 7742TIP3    H244642   1.316   1.950   4.437  0.2261  0.3003 -0.0838
 7743TIP3   OH244643   0.663   5.614   1.575  0.1444 -0.1318 -0.2034
 7743TIP3    H144644   0.730   5.549   1.594 -0.7820 -1.3031 -0.8643
 7743TIP3    H244645   0.693   5.656   1.494  1.5532  1.3986  1.0814
 7744TIP3   OH244646   3.167   5.209   0.755 -0.3423  0.5473 -0.2618
 7744TIP3    H144647   3.189   5.302   0.759  0.2262  0.4071  0.0942
 7744TIP3    H244648   3.073   5.207   0.743 -0.6152  1.1669  1.5582
 7745TIP3   OH244649   4.084   1.052  11.668  0.8723 -0.0562 -0.1854
 7745TIP3    H144650   4.152   0.993  11.699 -0.3768 -2.1269 -1.2652
 7745TIP3    H244651   4.005   0.998  11.665 -0.0211  1.3044 -2.4895
 7746TIP3   OH244652   0.208   1.513  13.451  0.0006 -0.0300  0.2649
 7746TIP3    H144653   0.281   1.517  13.389  0.2862  0.6540  0.6509
 7746TIP3    H244654   0.233   1.445  13.513 -0.3358 -0.8003 -0.4207
 7747TIP3   OH244655   0.781   4.207   0.467  0.0630  0.2802  0.1257
 7747TIP3    H144656   0.781   4.251   0.552  1.3660 -0.5323  0.5651
 7747TIP3    H244657   0.849   4.140   0.475 -0.5751 -0.5422 -1.1804
 7748TIP3   OH244658   0.573   2.303  14.831 -0.1306 -0.3840 -0.0477
 7748TIP3    H144659   0.503   2.336  14.775 -0.1871 -1.7789 -0.8304
 7748TIP3    H244660   0.652   2.348  14.800 -0.7100  1.4315  1.0489
 7749TIP3   OH244661   6.727   3.670   6.772 -0.2044 -0.2258 -0.4205
 7749TIP3    H144662   6.714   3.578   6.750 -1.5746 -0.1707  0.1111
 7749TIP3    H244663   6.820   3.685   6.760  0.3245 -2.1055  1.0568
 7750TIP3   OH244664   5.300   2.406   0.851  0.2197  0.6626 -0.2484
 7750TIP3    H144665   5.265   2.407   0.762  3.2058  0.6278 -1.4900
 7750TIP3    H244666   5.322   2.314   0.867 -0.2582  0.6775  0.5103
 7751TIP3   OH244667   2.687   4.342  13.805 -0.6204  0.2824  0.1264
 7751TIP3    H144668   2.608   4.335  13.858  0.1981  1.1809  1.4970
 7751TIP3    H244669   2.729   4.256  13.812 -1.6372 -0.3218 -0.9198
 7752TIP3   OH244670   1.003   1.777  16.002 -0.3007  0.1383  0.1910
 7752TIP3    H144671   0.947   1.723  16.057 -2.0932  0.4874 -1.2586
 7752TIP3    H244672   1.033   1.847  16.061 -2.5474  0.7545  0.6513
 7753TIP3   OH244673   5.604   1.689   5.164  0.8030  0.4587  0.3016
 7753TIP3    H144674   5.525   1.715   5.212  1.2099  1.5089  0.4232
 7753TIP3    H244675   5.676   1.726   5.214  1.4894 -1.7881  1.0212
 7754TIP3   OH244676   4.197   2.007  12.818  0.3324 -0.5673  0.1682
 7754TIP3    H144677   4.218   2.100  12.828  1.2276 -0.3832 -2.9480
 7754TIP3    H244678   4.278   1.961  12.840  0.0274 -0.6101  1.2422
 7755TIP3   OH244679   2.293   2.845   4.882  0.4372  0.3051 -0.3226
 7755TIP3    H144680   2.218   2.846   4.941  0.5315  1.6054 -0.2168
 7755TIP3    H244681   2.369   2.840   4.940  0.4873  0.3902 -0.3812
 7756TIP3   OH244682   1.370   3.370   2.961 -0.0768  0.6051  0.0928
 7756TIP3    H144683   1.306   3.300   2.950  0.2005  0.2436  0.7975
 7756TIP3    H244684   1.454   3.330   2.939  0.2881  0.2941  1.9845
 7757TIP3   OH244685   6.507   0.239   1.532  0.2760 -0.1379  0.9685
 7757TIP3    H144686   6.485   0.287   1.452  0.7406  1.3333  1.6938
 7757TIP3    H244687   6.566   0.169   1.502  0.2698  0.2615 -0.0114
 7758TIP3   OH244688   1.073   0.470  11.994 -0.5343 -0.2701  0.2676
 7758TIP3    H144689   1.160   0.499  11.969 -0.4086 -1.9573 -1.3520
 7758TIP3    H244690   1.019   0.485  11.916 -0.9080 -2.4159  0.0837
 7759TIP3   OH244691   3.516   3.012  15.310  0.6348 -0.4501 -0.1466
 7759TIP3    H144692   3.552   3.060  15.236  0.8235 -2.3111 -1.2846
 7759TIP3    H244693   3.591   2.967  15.348  0.4020 -0.1175  0.7122
 7760TIP3   OH244694   2.376   2.491  12.953  0.1207  0.0335 -0.0911
 7760TIP3    H144695   2.446   2.506  12.889  0.7547 -0.7885  0.4028
 7760TIP3    H244696   2.334   2.411  12.923  0.5493 -0.4690  0.6229
 7761TIP3   OH244697   4.468   3.794   0.865  0.2088  0.6111  0.6726
 7761TIP3    H144698   4.508   3.707   0.863 -1.2950 -0.0999  0.7682
 7761TIP3    H244699   4.540   3.853   0.886  1.4600 -0.4828 -0.4680
 7762TIP3   OH244700   6.478   0.193  11.540  0.0241 -0.2638 -0.2357
 7762TIP3    H144701   6.408   0.144  11.496  0.0113  1.1471 -1.8644
 7762TIP3    H244702   6.441   0.279  11.557  0.7286 -0.1320  0.6834
 7763TIP3   OH244703   4.431   6.526  11.050 -0.7109 -0.1105  0.5950
 7763TIP3    H144704   4.371   6.572  11.109 -0.1358  0.9454  0.3569
 7763TIP3    H244705   4.464   6.453  11.102  0.4228  1.2860  1.8785
 7764TIP3   OH244706   5.124   5.348   5.848  0.2036  0.0275 -0.3468
 7764TIP3    H144707   5.051   5.384   5.898 -0.1568 -0.7663 -0.2953
 7764TIP3    H244708   5.188   5.419   5.845 -0.1944  0.4243  0.3787
 7765TIP3   OH244709   5.009   6.610   1.131 -0.2256 -0.1847  0.1188
 7765TIP3    H144710   5.086   6.665   1.143 -2.5767  2.6961  2.9257
 7765TIP3    H244711   4.950   6.663   1.077 -1.9225 -0.4652  1.6206
 7766TIP3   OH244712   3.397   4.995   1.447  0.1818 -0.1796 -0.0153
 7766TIP3    H144713   3.424   5.019   1.358  1.5823 -2.1721 -0.1492
 7766TIP3    H244714   3.325   4.934   1.435  0.5156 -0.6190  0.2219
 7767TIP3   OH244715   5.719   5.206   0.269 -0.3917  0.3494 -0.0207
 7767TIP3    H144716   5.754   5.126   0.230 -0.7447 -0.2935  0.9588
 7767TIP3    H244717   5.763   5.277   0.223  1.8237 -0.4296  0.8613
 7768TIP3   OH244718   3.142   4.848   1.355  0.5167  0.2632 -0.5209
 7768TIP3    H144719   3.108   4.933   1.381  0.4233 -0.2395  1.0358
 7768TIP3    H244720   3.091   4.825   1.277 -0.1662  1.1727 -0.3478
 7769TIP3   OH244721   4.590   5.085   5.671  0.2757 -0.3948  0.2794
 7769TIP3    H144722   4.654   5.014   5.668 -1.3203 -1.8207 -1.2238
 7769TIP3    H244723   4.554   5.088   5.583 -0.3621  1.6614  0.5989
 7770TIP3   OH244724   2.387   0.084   4.155  0.3561  0.0138  0.4831
 7770TIP3    H144725   2.387   0.034   4.237  0.9605  0.8681  1.0177
 7770TIP3    H244726   2.318   0.150   4.167 -1.2215 -1.4026 -0.6733
 7771TIP3   OH244727   4.355   3.292   3.205  0.0573 -0.0912 -0.1398
 7771TIP3    H144728   4.442   3.252   3.199  0.7332  1.3337  0.0545
 7771TIP3    H244729   4.348   3.322   3.295 -1.2476 -1.5377  0.2534
 7772TIP3   OH244730   3.271   3.518  14.347 -0.2609 -0.2240 -0.2794
 7772TIP3    H144731   3.248   3.434  14.386  0.1440 -0.2680 -0.1283
 7772TIP3    H244732   3.189   3.551  14.309 -0.4895 -0.5333 -0.0537
 7773TIP3   OH244733   5.410   2.441   1.405 -0.0339  0.5071  0.1179
 7773TIP3    H144734   5.457   2.460   1.486 -0.4461 -2.9348  1.2470
 7773TIP3    H244735   5.323   2.480   1.418  0.1505  0.6223  1.0267
 7774TIP3   OH244736   3.055   3.482  17.219 -0.5562 -0.5022 -0.1837
 7774TIP3    H144737   3.103   3.517  17.144 -1.2191 -0.8068 -0.7606
 7774TIP3    H244738   3.103   3.514  17.296 -1.1115  1.6624 -0.6890
 7775TIP3   OH244739   3.180   6.388   1.601  0.4973 -0.2232 -0.8670
 7775TIP3    H144740   3.172   6.294   1.615  0.9316  0.2178  2.7638
 7775TIP3    H244741   3.270   6.400   1.570  0.6604 -0.9235 -0.6714
 7776TIP3   OH244742   2.546   3.657  11.257  0.0348  0.1597  0.1306
 7776TIP3    H144743   2.508   3.698  11.334 -1.3835  0.0576 -0.5033
 7776TIP3    H244744   2.479   3.596  11.226  0.6665  0.0319 -1.0465
 7777TIP3   OH244745   3.055   6.602   2.512  0.1044  0.1918 -0.1038
 7777TIP3    H144746   3.093   6.520   2.545 -1.4626  0.1296  1.6431
 7777TIP3    H244747   3.076   6.667   2.579 -0.5450  0.7214 -0.4035
 7778TIP3   OH244748   6.460   5.988   1.422  0.4917 -0.6214 -0.5458
 7778TIP3    H144749   6.522   5.969   1.492  0.9456 -0.9825 -1.0473
 7778TIP3    H244750   6.444   6.083   1.429  0.6286 -0.6358 -0.0352
 7779TIP3   OH244751   0.737   4.744  16.040  0.7196 -0.0541  0.6937
 7779TIP3    H144752   0.782   4.826  16.059 -0.1584  0.4344  0.6990
 7779TIP3    H244753   0.799   4.694  15.986  1.5451  0.2969  1.3234
 7780TIP3   OH244754   5.591   6.305   3.192  0.1006  0.2651  0.4440
 7780TIP3    H144755   5.521   6.245   3.163  0.9086  0.8481 -2.9229
 7780TIP3    H244756   5.566   6.390   3.155  2.0214  0.7063  0.1205
 7781TIP3   OH244757   4.898   2.482   2.443  0.4754 -0.0305 -0.7375
 7781TIP3    H144758   4.842   2.471   2.520 -0.1414  0.0003 -1.1742
 7781TIP3    H244759   4.921   2.575   2.444  1.7087 -0.3360  0.2452
 7782TIP3   OH244760   2.750   5.648  13.393 -0.6350 -0.0641  0.1585
 7782TIP3    H144761   2.668   5.660  13.441 -0.6390  1.4096 -0.1872
 7782TIP3    H244762   2.799   5.729  13.409 -0.0742 -0.1077 -1.2515
 7783TIP3   OH244763   4.830   0.820  15.268  0.1786  1.0011 -0.1563
 7783TIP3    H144764   4.911   0.771  15.284 -1.5995 -2.1152 -0.3567
 7783TIP3    H244765   4.810   0.804  15.176 -1.0433  1.1705  0.0690
 7784TIP3   OH244766   3.517   5.801   1.831 -0.7658 -0.4678  0.2107
 7784TIP3    H144767   3.445   5.847   1.787 -0.6551  0.1031  0.6162
 7784TIP3    H244768   3.513   5.831   1.922 -0.1114 -0.5475  0.2706
 7785TIP3   OH244769   0.758   1.371   2.733 -0.4405  0.1390 -0.8362
 7785TIP3    H144770   0.689   1.432   2.762 -1.0602 -1.4201  1.1203
 7785TIP3    H244771   0.830   1.427   2.706  0.3075  1.8546  4.1150
 7786TIP3   OH244772   5.066   3.252   5.611 -0.0305 -0.7415 -0.3277
 7786TIP3    H144773   5.066   3.159   5.634 -0.4830 -0.3200  1.5326
 7786TIP3    H244774   5.153   3.283   5.638  0.0594 -0.6005 -0.7863
 7787TIP3   OH244775   0.451   4.338   2.633 -0.2108 -0.3660  0.4496
 7787TIP3    H144776   0.491   4.312   2.716  1.7090  0.6717 -0.1282
 7787TIP3    H244777   0.525   4.350   2.573 -1.2903  2.3294 -0.4302
 7788TIP3   OH244778   1.295   0.964   4.624  0.9771 -0.1404  0.2963
 7788TIP3    H144779   1.200   0.966   4.606  1.3575 -0.9593 -2.0849
 7788TIP3    H244780   1.310   0.877   4.660  0.8452 -0.0732  0.5158
 7789TIP3   OH244781   0.427   1.493   2.994 -0.4473  0.1789 -0.3271
 7789TIP3    H144782   0.332   1.483   2.982 -0.5879  0.7042  0.3208
 7789TIP3    H244783   0.443   1.463   3.083 -0.1658  1.0968 -0.0622
 7790TIP3   OH244784   5.096   2.738   2.480 -0.4604  0.7953  0.1613
 7790TIP3    H144785   5.147   2.673   2.528 -1.7296 -0.2696  0.0938
 7790TIP3    H244786   5.060   2.795   2.548 -1.1386  0.1057  0.3890
 7791TIP3   OH244787   2.106   2.303  12.194 -0.0792  0.6683 -0.1221
 7791TIP3    H144788   2.037   2.264  12.141 -0.2413  0.4515  0.2443
 7791TIP3    H244789   2.070   2.305  12.282  1.9521 -3.4451  0.9332
 7792TIP3   OH244790   4.412   3.951  11.063 -0.1614  0.1762  0.0623
 7792TIP3    H144791   4.324   3.957  11.102 -0.0240  1.3467  0.2090
 7792TIP3    H244792   4.461   3.896  11.125 -1.3358 -2.2254 -1.0666
 7793TIP3   OH244793   3.803   3.338  14.816  0.1648 -0.1177  0.0322
 7793TIP3    H144794   3.745   3.340  14.739  1.4283  1.4571 -0.9098
 7793TIP3    H244795   3.816   3.245  14.833 -1.8791 -0.5079 -0.3079
 7794TIP3   OH244796   4.864   6.321   1.885 -0.0792 -0.0808 -0.1195
 7794TIP3    H144797   4.858   6.258   1.956  0.1379  1.2139  1.0758
 7794TIP3    H244798   4.955   6.316   1.856 -0.0975 -0.4053 -0.1251
 7795TIP3   OH244799   2.855   5.120   2.872  0.3329 -0.4596  0.2634
 7795TIP3    H144800   2.869   5.127   2.966 -0.7570  1.7637  0.2784
 7795TIP3    H244801   2.942   5.103   2.836  1.3058  1.9449  1.3865
 7796TIP3   OH244802   5.270   6.174  11.503  0.0426 -0.0425  0.1930
 7796TIP3    H144803   5.186   6.192  11.461 -0.2701  1.6102  1.4713
 7796TIP3    H244804   5.307   6.101  11.453 -1.0367  0.8158 -1.9139
 7797TIP3   OH244805   1.773   1.848  13.504  0.4821 -0.0493  0.3661
 7797TIP3    H144806   1.751   1.900  13.581 -0.1731 -1.4746  1.1563
 7797TIP3    H244807   1.698   1.859  13.445  1.2518  1.5300 -0.3512
 7798TIP3   OH244808   1.124   5.523  12.548  1.0180  0.4693  0.4271
 7798TIP3    H144809   1.058   5.533  12.616  0.6074 -3.2984  0.6923
 7798TIP3    H244810   1.078   5.543  12.467  0.4221  0.9985  0.8907
 7799TIP3   OH244811   3.164   3.292  11.315  0.3489 -0.4944 -0.0124
 7799TIP3    H144812   3.106   3.245  11.255  0.2583 -0.9432  0.4194
 7799TIP3    H244813   3.202   3.363  11.263  1.3690 -1.7400 -0.9827
 7800TIP3   OH244814   4.325   3.265  16.019  0.2316 -0.1845  0.6339
 7800TIP3    H144815   4.417   3.289  16.016 -0.6783  3.3890 -1.2539
 7800TIP3    H244816   4.308   3.222  15.935  0.1298 -0.7347  0.9300
 7801TIP3   OH244817   2.250   2.711  16.798 -0.0398 -0.3557 -0.2133
 7801TIP3    H144818   2.293   2.793  16.774 -0.6757  0.2106  0.5259
 7801TIP3    H244819   2.309   2.642  16.768  0.3988  0.3784 -1.0317
 7802TIP3   OH244820   5.553   2.426   6.445 -0.0186 -0.2885 -0.0501
 7802TIP3    H144821   5.583   2.405   6.533  0.2397 -2.2266 -0.5811
 7802TIP3    H244822   5.593   2.511   6.425  0.8883 -0.4140  1.2303
 7803TIP3   OH244823   5.706   6.305   2.289 -0.7258  0.8132  0.2753
 7803TIP3    H144824   5.739   6.353   2.365 -0.3247 -0.5110  0.9475
 7803TIP3    H244825   5.612   6.300   2.303 -0.4878 -0.7341  1.4728
 7804TIP3   OH244826   0.873   5.530   1.201  0.0087 -0.0262 -0.1351
 7804TIP3    H144827   0.834   5.443   1.194  1.1084 -0.4564 -1.0916
 7804TIP3    H244828   0.880   5.561   1.111  1.7478  0.0813  0.0062
 7805TIP3   OH244829   1.880   3.222  16.437 -0.0262 -0.0710  0.0671
 7805TIP3    H144830   1.959   3.259  16.396 -0.9603 -0.7048 -2.4340
 7805TIP3    H244831   1.876   3.263  16.523  2.0956  1.2893 -0.4358
 7806TIP3   OH244832   1.001   1.604   0.118  0.1457 -1.0118 -0.5567
 7806TIP3    H144833   1.014   1.512   0.093  0.2572 -1.5028  1.2200
 7806TIP3    H244834   0.905   1.613   0.124  0.1672 -1.5662  1.1100
 7807TIP3   OH244835   2.657   4.162  11.401  0.1702  0.0236  0.2821
 7807TIP3    H144836   2.673   4.070  11.381  2.9531  0.4264  0.4451
 7807TIP3    H244837   2.647   4.164  11.496  0.2949 -0.0902  0.2979
 7808TIP3   OH244838   5.180   2.259   3.538 -0.1633 -0.0533  0.1283
 7808TIP3    H144839   5.192   2.172   3.577  0.2720  0.6499  1.6266
 7808TIP3    H244840   5.269   2.293   3.528 -0.3807  0.7125  0.7187
 7809TIP3   OH244841   3.226   1.426  13.723  0.7777 -0.2489 -0.2317
 7809TIP3    H144842   3.158   1.455  13.662 -0.3216 -0.3636  0.9301
 7809TIP3    H244843   3.212   1.332  13.732  0.0565 -0.0006  1.2823
 7810TIP3   OH244844   5.752   0.453  13.349 -0.5911 -0.3022 -0.3523
 7810TIP3    H144845   5.757   0.376  13.406  0.4285 -0.4816 -0.6644
 7810TIP3    H244846   5.779   0.526  13.405  1.8406 -0.6894 -0.9656
 7811TIP3   OH244847   2.616   3.022   3.155  0.0736 -0.4885  0.3062
 7811TIP3    H144848   2.596   2.976   3.073 -0.5420  1.9945 -0.9687
 7811TIP3    H244849   2.684   3.085   3.131 -0.1192  0.2776  1.7210
 7812TIP3   OH244850   6.240   5.107  14.873 -0.3235  0.0737 -0.2131
 7812TIP3    H144851   6.247   5.051  14.795  2.3851 -0.6375  0.4810
 7812TIP3    H244852   6.268   5.193  14.843 -1.4828  0.3319 -0.5574
 7813TIP3   OH244853   5.435   6.315  11.680  0.1660 -0.0386 -0.5616
 7813TIP3    H144854   5.464   6.406  11.669  1.5673 -0.8738 -4.5005
 7813TIP3    H244855   5.372   6.301  11.610 -0.7922 -1.8694  0.6155
 7814TIP3   OH244856   6.641   5.493   4.896  0.1569  0.2555  0.5091
 7814TIP3    H144857   6.703   5.566   4.887 -0.1875  0.5607  0.6075
 7814TIP3    H244858   6.575   5.525   4.957  1.0695 -0.8575  2.1194
 7815TIP3   OH244859   3.755   1.792   0.610  0.5974 -0.1544 -0.3771
 7815TIP3    H144860   3.847   1.813   0.628 -0.1460  3.3094 -0.1899
 7815TIP3    H244861   3.750   1.788   0.515  0.9191 -0.2379 -0.3926
 7816TIP3   OH244862   3.084   4.685  13.233  0.1681  0.2166  0.0525
 7816TIP3    H144863   3.012   4.749  13.234  0.1035  0.1441  0.0217
 7816TIP3    H244864   3.149   4.725  13.175  1.4795  1.7396  2.4821
 7817TIP3   OH244865   2.847   5.970  16.901  0.2775  0.2041 -0.3406
 7817TIP3    H144866   2.779   6.031  16.872 -1.2443 -1.7412 -0.9743
 7817TIP3    H244867   2.823   5.948  16.991  0.7598  0.4336 -0.1550
 7818TIP3   OH244868   4.337   6.768  15.529 -0.3379 -0.4380 -0.0067
 7818TIP3    H144869   4.415   6.782  15.476 -0.1822 -1.2590  0.0071
 7818TIP3    H244870   4.307   6.680  15.506 -1.0381 -0.2804  0.2756
 7819TIP3   OH244871   3.407   1.118  11.011 -0.6382  0.3005 -0.5667
 7819TIP3    H144872   3.368   1.035  10.981  1.2621 -0.8870  0.1781
 7819TIP3    H244873   3.449   1.154  10.933  0.5076 -0.5949 -0.3759
 7820TIP3   OH244874   0.113   4.047  11.399 -0.4972 -0.1633 -0.0441
 7820TIP3    H144875   0.201   4.055  11.362 -1.2322 -2.6020 -2.4934
 7820TIP3    H244876   0.056   4.040  11.322 -2.9400  2.0386  1.4960
 7821TIP3   OH244877   3.895   3.435   0.702  0.3847  0.2828 -0.1911
 7821TIP3    H144878   3.851   3.369   0.649 -1.1397  0.5105  0.7481
 7821TIP3    H244879   3.898   3.513   0.646 -0.1245  0.1689 -0.3809
 7822TIP3   OH244880   4.834   3.113  16.207 -0.9403  0.2898 -0.6348
 7822TIP3    H144881   4.759   3.072  16.163 -1.2352  0.8694 -0.6801
 7822TIP3    H244882   4.867   3.045  16.266  0.4538 -1.0508 -2.8861
 7823TIP3   OH244883   2.708   1.869  15.576 -0.1597 -0.0094  0.2583
 7823TIP3    H144884   2.634   1.930  15.581  0.2475  0.4845  0.2343
 7823TIP3    H244885   2.720   1.855  15.482  0.6308  0.9499  0.2091
 7824TIP3   OH244886   3.526   6.170  15.634 -0.5603 -0.3791 -0.0957
 7824TIP3    H144887   3.534   6.138  15.724  0.6439  0.2720  0.0529
 7824TIP3    H244888   3.530   6.091  15.579 -0.0273 -0.6756  0.3681
 7825TIP3   OH244889   0.106   0.159   0.445 -0.0655  0.0384 -0.1400
 7825TIP3    H144890   0.079   0.136   0.534  1.2148 -0.2465  0.1902
 7825TIP3    H244891   0.093   0.078   0.396  0.2027 -0.0969  0.0136
 7826TIP3   OH244892   5.259   3.307   2.256 -0.3080  0.1811  0.0978
 7826TIP3    H144893   5.170   3.339   2.270 -0.5086 -0.7665  1.0281
 7826TIP3    H244894   5.314   3.370   2.302 -0.4616  1.0029 -0.8326
 7827TIP3   OH244895   0.890   6.208  12.602  0.1553 -0.1256 -0.2222
 7827TIP3    H144896   0.799   6.204  12.573 -0.1742  0.5696  0.7276
 7827TIP3    H244897   0.931   6.132  12.560 -0.8680 -0.4828 -0.5926
 7828TIP3   OH244898   0.957   3.492  14.116  0.2197  0.0453  0.3706
 7828TIP3    H144899   1.015   3.423  14.082 -0.6257 -0.1833 -0.6289
 7828TIP3    H244900   0.895   3.509  14.045 -1.0825  0.1411  1.5011
 7829TIP3   OH244901   5.965   1.234   2.219 -0.1668 -0.1382  0.5436
 7829TIP3    H144902   5.949   1.318   2.263 -0.6158  1.1945 -2.0334
 7829TIP3    H244903   6.048   1.246   2.174 -2.0379  0.3506 -2.9573
 7830TIP3   OH244904   1.528   5.739   3.971 -0.2919  0.3367  0.1111
 7830TIP3    H144905   1.538   5.767   3.880 -1.9943 -0.3240 -0.3002
 7830TIP3    H244906   1.515   5.821   4.020 -0.4770  0.6152 -0.4030
 7831TIP3   OH244907   6.106   5.409   4.865  0.5525 -0.1817  0.2165
 7831TIP3    H144908   6.084   5.337   4.924  0.0031  0.5255  0.8636
 7831TIP3    H244909   6.125   5.365   4.781 -1.6777 -0.9179  0.0739
 7832TIP3   OH244910   0.536   1.397  12.595  0.2408 -0.0157  0.0515
 7832TIP3    H144911   0.454   1.349  12.608  0.3588  0.0817  1.2575
 7832TIP3    H244912   0.514   1.488  12.614  0.0868  0.3810 -1.9342
 7833TIP3   OH244913   1.404   3.209  10.987 -0.1145  0.6143 -0.5318
 7833TIP3    H144914   1.449   3.292  11.003 -0.9911  1.5259 -2.6004
 7833TIP3    H244915   1.467   3.157  10.937  0.6161 -0.1696  1.1819
 7834TIP3   OH244916   0.930   4.718   1.739 -0.3608 -0.2255 -0.5268
 7834TIP3    H144917   0.979   4.732   1.819  0.0640 -2.9965 -0.2740
 7834TIP3    H244918   0.842   4.692   1.769 -0.7078  0.3974 -0.9796
 7835TIP3   OH244919   0.694   0.398   1.672  0.0845  0.2933  0.4244
 7835TIP3    H144920   0.684   0.427   1.763 -0.2272 -1.0468  0.8250
 7835TIP3    H244921   0.605   0.374   1.645  0.4251 -0.8474  0.2971
 7836TIP3   OH244922   6.408   2.212   4.364 -0.0093  0.4664 -0.1144
 7836TIP3    H144923   6.372   2.249   4.444  0.1812  1.0795 -0.3055
 7836TIP3    H244924   6.472   2.147   4.393 -0.8468 -0.2187  0.2247
 7837TIP3   OH244925   3.121   1.679  15.547 -0.3004 -0.0050  0.2057
 7837TIP3    H144926   3.089   1.680  15.637 -0.3865 -0.5009  0.1820
 7837TIP3    H244927   3.042   1.678  15.493 -0.2565 -1.6308  0.1517
 7838TIP3   OH244928   5.169   5.983   3.653 -0.7926 -0.0903  0.0947
 7838TIP3    H144929   5.153   5.996   3.559 -0.9916 -0.1768  0.1155
 7838TIP3    H244930   5.155   5.889   3.666 -2.2384  0.1654  0.4970
 7839TIP3   OH244931   1.311   5.890   1.652 -0.1225 -0.4165  0.3209
 7839TIP3    H144932   1.376   5.914   1.585  0.3475 -0.9374  0.5857
 7839TIP3    H244933   1.341   5.934   1.731 -0.4270 -0.1765  0.3052
 7840TIP3   OH244934   2.521   4.314  12.316 -0.0930  0.1330 -0.1174
 7840TIP3    H144935   2.476   4.361  12.246 -1.1804  0.4556  0.7658
 7840TIP3    H244936   2.539   4.227  12.280 -0.1954  0.4561 -0.9576
 7841TIP3   OH244937   5.235   1.191   1.087 -0.5043  0.6153 -0.4363
 7841TIP3    H144938   5.197   1.150   1.165  2.0967 -1.8249 -0.3545
 7841TIP3    H244939   5.308   1.243   1.120 -0.3885  0.8832 -1.1031
 7842TIP3   OH244940   0.751   6.198   4.019 -0.0555  0.3990  0.0469
 7842TIP3    H144941   0.693   6.252   4.071  2.9069  0.1532  3.8184
 7842TIP3    H244942   0.829   6.252   4.005  0.7338 -0.9209 -0.8131
 7843TIP3   OH244943   3.530   3.093   5.571 -0.3057  0.1117 -0.2084
 7843TIP3    H144944   3.510   3.043   5.650  0.4870 -1.3218 -0.8931
 7843TIP3    H244945   3.587   3.164   5.601  0.8025 -1.0020  0.3857
 7844TIP3   OH244946   0.675   5.939   2.772  0.7887  0.3063  0.1221
 7844TIP3    H144947   0.738   5.900   2.711 -0.2442 -2.1208  0.5655
 7844TIP3    H244948   0.603   5.968   2.716 -0.6885 -2.9644  0.2118
 7845TIP3   OH244949   6.767   4.700  15.572  0.2401 -0.2629  0.5196
 7845TIP3    H144950   6.793   4.617  15.532  0.8316 -0.0383  0.4352
 7845TIP3    H244951   6.763   4.681  15.666 -0.7952 -0.6940  0.4026
 7846TIP3   OH244952   3.012   6.536   0.823 -0.0223  0.2460 -0.0360
 7846TIP3    H144953   2.917   6.527   0.836  0.0449  0.1901  0.4070
 7846TIP3    H244954   3.050   6.524   0.910  0.5204 -1.4259 -0.4969
 7847TIP3   OH244955   6.448   3.890  16.190 -0.6654 -0.1693  0.4446
 7847TIP3    H144956   6.405   3.932  16.116 -1.6953 -2.3320 -0.2092
 7847TIP3    H244957   6.513   3.831  16.151 -0.4380 -0.4851  1.2849
 7848TIP3   OH244958   5.202   6.600  12.751  0.1116  0.3056  0.6298
 7848TIP3    H144959   5.296   6.602  12.738 -0.2979  0.8337 -2.5956
 7848TIP3    H244960   5.169   6.539  12.684 -1.7711 -0.5686  2.2671
 7849TIP3   OH244961   3.856   0.477   2.319  0.0193 -0.0147 -0.3821
 7849TIP3    H144962   3.892   0.522   2.242 -0.4898 -1.1951 -1.3421
 7849TIP3    H244963   3.922   0.411   2.340 -1.5438 -2.3003 -2.2502
 7850TIP3   OH244964   5.123   3.786   1.611  0.6171  1.0605  0.0253
 7850TIP3    H144965   5.196   3.833   1.570  0.2348  0.7231 -1.0602
 7850TIP3    H244966   5.160   3.701   1.634  0.9588  1.4170  0.8285
 7851TIP3   OH244967   6.037   5.615  11.536  0.0937 -0.3536  0.2911
 7851TIP3    H144968   6.084   5.690  11.572  0.1161 -0.4970  0.5616
 7851TIP3    H244969   5.948   5.622  11.573 -0.1339 -0.0149 -0.3186
 7852TIP3   OH244970   0.787   4.174  17.007  0.5780  0.1556  0.4111
 7852TIP3    H144971   0.797   4.179  16.911  1.6863  0.1436  0.5154
 7852TIP3    H244972   0.715   4.233  17.027 -1.2186 -1.6060 -0.6727
 7853TIP3   OH244973   6.624   3.864   3.090  0.2394  0.3943  0.3102
 7853TIP3    H144974   6.708   3.881   3.047 -0.1901  0.1037 -0.6727
 7853TIP3    H244975   6.642   3.872   3.183  1.5726 -0.6265  0.1532
 7854TIP3   OH244976   4.283   0.106   2.062  0.5023  0.5001  0.5540
 7854TIP3    H144977   4.264   0.067   2.147 -0.4459  2.8844  1.4815
 7854TIP3    H244978   4.216   0.070   2.004  0.1448  0.1010  1.2021
 7855TIP3   OH244979   4.232   1.342   1.806 -0.3033  0.4535  0.1545
 7855TIP3    H144980   4.298   1.412   1.811 -0.9037  1.2153 -2.0014
 7855TIP3    H244981   4.195   1.350   1.718 -2.5965 -0.5930  0.9828
 7856TIP3   OH244982   5.563   5.437  16.994  0.0128 -0.2909 -0.1132
 7856TIP3    H144983   5.492   5.423  17.057 -1.9046 -2.6399 -2.6983
 7856TIP3    H244984   5.629   5.373  17.019 -0.6246 -1.0265 -0.2939
 7857TIP3   OH244985   2.313   4.318   5.632  0.2150  0.3498 -0.0541
 7857TIP3    H144986   2.223   4.340   5.655  0.6152  1.6815  0.2930
 7857TIP3    H244987   2.337   4.248   5.692 -0.8299 -0.5456 -0.6471
 7858TIP3   OH244988   0.382   1.924  16.620 -0.4501  0.1273 -0.3010
 7858TIP3    H144989   0.381   2.018  16.599 -3.2728  0.3239  0.5331
 7858TIP3    H244990   0.447   1.887  16.560  2.6345  2.9908  1.0955
 7859TIP3   OH244991   0.539   2.693   2.049  0.3775  0.0518  0.2259
 7859TIP3    H144992   0.550   2.750   2.125  3.4347  0.3872 -0.4313
 7859TIP3    H244993   0.453   2.716   2.014  0.3194  2.1641  1.6896
 7860TIP3   OH244994   5.954   1.325   4.955 -0.2277  0.2077  0.0621
 7860TIP3    H144995   6.027   1.265   4.939 -0.6675 -1.3024  3.1730
 7860TIP3    H244996   5.990   1.412   4.938  1.1637 -0.7385 -2.0993
 7861TIP3   OH244997   4.196   6.593  15.997 -0.3501  0.3009  0.2067
 7861TIP3    H144998   4.107   6.579  16.028 -0.4898  0.8780  0.0864
 7861TIP3    H244999   4.189   6.670  15.940 -0.2661 -1.2000 -1.9180
 7862TIP3   OH245000   3.608   4.782   6.810  0.2442  0.3821  0.6164
 7862TIP3    H145001   3.659   4.755   6.733 -1.6961  1.8917 -1.2696
 7862TIP3    H245002   3.518   4.754   6.790 -0.3117  0.9196  2.2799
 7863TIP3   OH245003   2.923   4.419   4.480 -0.0180  0.6174  0.2570
 7863TIP3    H145004   2.836   4.457   4.464  0.4304  1.2663 -0.6635
 7863TIP3    H245005   2.911   4.325   4.465 -0.4185  0.7860 -0.4950
 7864TIP3   OH245006   2.234   2.187  11.146 -0.4037 -0.8103  0.4762
 7864TIP3    H145007   2.234   2.282  11.131  0.4404 -0.8637  0.1072
 7864TIP3    H245008   2.165   2.154  11.087  0.2783 -0.5817 -0.4683
 7865TIP3   OH245009   5.826   3.119   0.817  0.1886 -0.2248 -0.2494
 7865TIP3    H145010   5.744   3.070   0.823 -0.2946  0.6956  0.7452
 7865TIP3    H245011   5.887   3.071   0.873 -0.1284  0.0017  0.2885
 7866TIP3   OH245012   2.218   2.216   1.761  0.5619  0.3165  0.1777
 7866TIP3    H145013   2.276   2.267   1.817 -0.6493 -1.1358  2.8700
 7866TIP3    H245014   2.263   2.133   1.748 -0.1593 -0.1988  0.9144
 7867TIP3   OH245015   1.604   5.747  14.188  0.2774 -0.7151  0.3572
 7867TIP3    H145016   1.620   5.658  14.221 -1.5388 -0.7957  1.0680
 7867TIP3    H245017   1.657   5.803  14.245  2.0162 -1.3897 -0.5641
 7868TIP3   OH245018   4.821   1.445   0.014  0.2671 -0.4824 -0.0137
 7868TIP3    H145019   4.758   1.470   0.082 -0.5233  3.3857 -2.0048
 7868TIP3    H245020   4.905   1.439   0.059 -0.6587 -0.3325  1.7495
 7869TIP3   OH245021   2.190   3.911   3.083 -0.1008  0.3771  0.3788
 7869TIP3    H145022   2.280   3.906   3.050  1.0676  2.4621  2.9943
 7869TIP3    H245023   2.159   3.996   3.052 -1.3240 -0.4874 -0.8065
 7870TIP3   OH245024   1.879   3.119  11.227 -0.0561  0.5625 -0.0453
 7870TIP3    H145025   1.960   3.089  11.186 -0.4699 -0.1161 -0.3864
 7870TIP3    H245026   1.847   3.044  11.276 -1.3733  0.2438 -1.3266
 7871TIP3   OH245027   1.507   0.164  17.237  0.4228  0.4215 -0.1323
 7871TIP3    H145028   1.425   0.197  17.274 -0.3719 -0.0104 -1.4483
 7871TIP3    H245029   1.522   0.081  17.282 -0.6446 -0.2020 -0.8885
 7872TIP3   OH245030   3.893   1.915   4.699  0.1285 -0.2114  0.3741
 7872TIP3    H145031   3.983   1.942   4.684 -0.2146  0.3974 -0.6651
 7872TIP3    H245032   3.899   1.840   4.758  1.4403 -1.7095 -1.6446
 7873TIP3   OH245033   5.122   4.617   4.645 -0.0467 -0.3947  0.0011
 7873TIP3    H145034   5.184   4.549   4.671  1.1101  0.4109 -0.5787
 7873TIP3    H245035   5.177   4.691   4.621 -1.2772  0.5976  0.1986
 7874TIP3   OH245036   6.485   1.226   0.747 -0.0272 -0.2126 -0.0765
 7874TIP3    H145037   6.534   1.304   0.775  1.3088 -0.9190 -0.3769
 7874TIP3    H245038   6.441   1.196   0.826  0.3400  0.2095  0.2945
 7875TIP3   OH245039   4.054   0.059  10.442 -0.3488  0.7461 -1.0669
 7875TIP3    H145040   3.989   0.129  10.440 -1.5457 -0.3572 -1.2466
 7875TIP3    H245041   4.025   0.002  10.514  1.9007  1.6509  0.6171
 7876TIP3   OH245042   3.261   5.928  11.510 -0.6162 -0.4015 -0.4249
 7876TIP3    H145043   3.317   5.900  11.438 -0.6339  0.5732 -0.8269
 7876TIP3    H245044   3.322   5.957  11.578 -0.6203  0.7011 -0.8779
 7877TIP3   OH245045   4.388   2.947  11.585 -0.0611 -0.1519 -0.7138
 7877TIP3    H145046   4.417   3.030  11.547 -1.9498  1.7014  1.6880
 7877TIP3    H245047   4.300   2.934  11.548 -1.3602  0.9820  1.8367
 7878TIP3   OH245048   3.720   0.199   3.209 -0.4359  0.6376  0.1192
 7878TIP3    H145049   3.787   0.223   3.273 -1.6932  1.2478  1.2276
 7878TIP3    H245050   3.676   0.281   3.187 -1.3257  0.1364 -0.0105
 7879TIP3   OH245051   6.757   0.679  14.843 -0.2946 -0.1151  0.0215
 7879TIP3    H145052   6.712   0.643  14.767 -0.8734  0.8245 -0.0868
 7879TIP3    H245053   6.766   0.772  14.823 -0.3983  0.1222  1.0734
 7880TIP3   OH245054   5.092   3.318   3.371 -0.0356 -0.4779 -0.1251
 7880TIP3    H145055   5.179   3.278   3.368 -0.9575 -2.4631 -1.1253
 7880TIP3    H245056   5.040   3.259   3.424 -0.7171  0.8578  0.7066
 7881TIP3   OH245057   2.716   0.448  16.933  0.3284 -0.2403 -0.2748
 7881TIP3    H145058   2.805   0.480  16.952  0.4897  0.3040 -1.9088
 7881TIP3    H245059   2.716   0.431  16.839 -1.6688  0.9280 -0.5001
 7882TIP3   OH245060   2.555   5.882   5.341 -0.3633  0.1529  0.1079
 7882TIP3    H145061   2.482   5.904   5.284 -1.7055  2.3460  2.5685
 7882TIP3    H245062   2.630   5.929   5.305 -0.8530  0.3190 -0.6950
 7883TIP3   OH245063   4.003   5.907  17.159  0.2658 -0.0113 -0.8315
 7883TIP3    H145064   4.011   5.854  17.237 -1.4149 -1.4381 -1.5929
 7883TIP3    H245065   3.930   5.966  17.177 -0.6882 -0.9208 -1.6091
 7884TIP3   OH245066   4.281   1.829   5.616  0.4344 -0.2350 -0.2926
 7884TIP3    H145067   4.301   1.740   5.588  1.5025 -0.6489  1.7252
 7884TIP3    H245068   4.352   1.853   5.675 -0.8002  1.2689  0.6353
 7885TIP3   OH245069   4.102   3.759   5.912  0.5075  0.2419  0.1230
 7885TIP3    H145070   4.136   3.726   5.996 -2.0176  0.6817  1.3681
 7885TIP3    H245071   4.028   3.815   5.936 -0.8881 -0.4100 -2.4469
 7886TIP3   OH245072   4.650   2.580  17.140 -0.3879  0.4067 -0.1374
 7886TIP3    H145073   4.713   2.542  17.079 -1.2529 -3.0101  0.9795
 7886TIP3    H245074   4.699   2.589  17.222 -1.1407 -1.7750  0.5892
 7887TIP3   OH245075   2.047   0.807  14.094 -0.1123  0.2672 -0.3845
 7887TIP3    H145076   1.964   0.770  14.124 -0.2286 -0.3698 -1.4345
 7887TIP3    H245077   2.063   0.763  14.010  0.6687  1.2895 -0.7782
 7888TIP3   OH245078   4.471   2.864  12.990  0.8487  0.0656 -0.3703
 7888TIP3    H145079   4.428   2.939  12.948 -0.3525 -0.5152 -0.1897
 7888TIP3    H245080   4.497   2.808  12.917  0.2766 -0.1285 -0.4298
 7889TIP3   OH245081   2.655   1.988  12.513  0.0583 -0.0105  0.8626
 7889TIP3    H145082   2.710   2.064  12.493 -0.1683  0.3110  1.4453
 7889TIP3    H245083   2.694   1.916  12.463  1.0066  0.2090  1.2815
 7890TIP3   OH245084   1.162   6.532   1.110 -0.8979  0.0464  0.2259
 7890TIP3    H145085   1.179   6.545   1.016  2.6402 -0.8100  0.6847
 7890TIP3    H245086   1.155   6.621   1.145  1.2205  0.4241 -0.2860
 7891TIP3   OH245087   3.335   1.145   6.469 -0.6214  0.0390  0.4490
 7891TIP3    H145088   3.333   1.177   6.379 -0.8675 -1.2569 -0.0155
 7891TIP3    H245089   3.395   1.205   6.515 -0.7168  0.8733 -0.4980
 7892TIP3   OH245090   3.559   4.284  12.311 -0.3222 -0.1888  0.2863
 7892TIP3    H145091   3.497   4.344  12.350  1.2890  0.9297  1.1722
 7892TIP3    H245092   3.593   4.330  12.234  1.1111  0.1872  1.1171
 7893TIP3   OH245093   2.557   0.118  11.923  0.4381  0.1894 -0.2293
 7893TIP3    H145094   2.564   0.049  11.988  0.7192  0.3437 -0.0948
 7893TIP3    H245095   2.509   0.188  11.968 -0.2713 -0.0994 -0.5200
 7894TIP3   OH245096   0.232   1.768   0.672 -0.2061 -0.0245  0.2679
 7894TIP3    H145097   0.240   1.693   0.731 -1.3988  0.1104  0.6107
 7894TIP3    H245098   0.158   1.747   0.616  0.3809  0.2392 -0.6331
 7895TIP3   OH245099   1.340   6.277   4.007  0.1339  0.4834  0.3338
 7895TIP3    H145100   1.335   6.235   3.921  0.9431  1.3362 -0.1480
 7895TIP3    H245101   1.331   6.371   3.989  1.4383  0.7631  1.0451
 7896TIP3   OH245102   6.546   6.395  16.429 -0.4039  1.1204 -0.5147
 7896TIP3    H145103   6.524   6.409  16.337 -1.9935  0.0870 -0.3273
 7896TIP3    H245104   6.561   6.301  16.436  2.8145  1.6206 -0.3174
 7897TIP3   OH245105   1.330   1.013  11.307  0.9647 -0.2456 -0.0913
 7897TIP3    H145106   1.381   0.996  11.228  2.1279 -0.1741  0.6289
 7897TIP3    H245107   1.381   1.077  11.356  1.1487 -1.5712  1.5382
 7898TIP3   OH245108   5.817   6.762   0.645  0.6140 -0.3845 -0.2129
 7898TIP3    H145109   5.835   6.841   0.595  1.4386 -1.2035 -1.2115
 7898TIP3    H245110   5.742   6.785   0.700 -0.0191  0.6479 -1.4992
 7899TIP3   OH245111   4.533   6.728  16.973  0.2460  0.1937  0.1251
 7899TIP3    H145112   4.614   6.678  16.983  1.6951  2.6850  1.1677
 7899TIP3    H245113   4.539   6.767  16.886  0.5074  0.9689  0.4890
 7900TIP3   OH245114   1.374   4.820  14.604 -0.0204  0.5202 -0.3544
 7900TIP3    H145115   1.338   4.762  14.537  0.5401 -0.5650  0.2765
 7900TIP3    H245116   1.305   4.885  14.619 -1.0640 -0.5914 -0.3126
 7901TIP3   OH245117   2.170   3.912  14.050  0.5136 -0.1227  0.2685
 7901TIP3    H145118   2.148   3.975  14.119  0.7948  0.3079 -0.0342
 7901TIP3    H245119   2.104   3.928  13.982  1.1739  0.5036 -0.2235
 7902TIP3   OH245120   3.186   3.612  15.222 -0.3808 -0.2491  0.1195
 7902TIP3    H145121   3.259   3.638  15.167 -0.7284 -0.2979 -0.3754
 7902TIP3    H245122   3.116   3.591  15.160 -1.1024  0.6840  0.6169
 7903TIP3   OH245123   3.677   4.029  14.055 -0.3248  0.6798  0.0158
 7903TIP3    H145124   3.605   3.998  14.001 -0.4482 -0.4379  0.7980
 7903TIP3    H245125   3.742   4.061  13.993  0.7239 -3.1062 -0.9537
 7904TIP3   OH245126   6.008   0.928  13.668  0.1511  0.3871 -0.1327
 7904TIP3    H145127   5.995   0.946  13.574 -0.5333  0.8281  0.0437
 7904TIP3    H245128   6.064   1.000  13.698  0.1310  0.4058 -0.1397
 7905TIP3   OH245129   2.530   1.196   2.545  0.0327 -0.5174 -0.7278
 7905TIP3    H145130   2.619   1.171   2.572  0.4240  0.9534 -0.6244
 7905TIP3    H245131   2.542   1.245   2.463 -0.5919  0.4467 -0.2541
 7906TIP3   OH245132   5.532   2.381   5.930  0.3804 -0.1999 -0.3489
 7906TIP3    H145133   5.618   2.400   5.892  1.4500  0.8444  2.4906
 7906TIP3    H245134   5.544   2.296   5.973 -0.9074 -1.5238 -2.5280
 7907TIP3   OH245135   6.572   2.039  15.629  0.8282 -0.9727 -0.3778
 7907TIP3    H145136   6.661   2.004  15.633  0.6896 -1.3748 -0.8125
 7907TIP3    H245137   6.518   1.969  15.667  0.6902 -0.7560 -0.1766
 7908TIP3   OH245138   2.360   2.357   1.278  0.1800 -0.6150  0.1890
 7908TIP3    H145139   2.271   2.343   1.246  0.0759  0.0701  0.1666
 7908TIP3    H245140   2.409   2.385   1.201  0.9539 -3.1852 -0.2817
 7909TIP3   OH245141   3.649   3.349  14.584  0.6362  0.3408 -0.0076
 7909TIP3    H145142   3.603   3.432  14.596 -0.0696 -0.1986  1.0588
 7909TIP3    H245143   3.580   3.282  14.589  1.1065 -0.2705 -1.4962
 7910TIP3   OH245144   3.822   6.719  11.582  0.7407  0.1679  0.1106
 7910TIP3    H145145   3.815   6.813  11.593 -1.5213 -0.0221  0.3997
 7910TIP3    H245146   3.735   6.690  11.556  1.0566 -2.0134  1.2784
 7911TIP3   OH245147   4.798   3.303  13.376  0.0608 -0.4013 -0.7018
 7911TIP3    H145148   4.710   3.303  13.413  0.5941  1.2042  0.6160
 7911TIP3    H245149   4.840   3.226  13.415 -0.4816 -0.6682 -0.6409
 7912TIP3   OH245150   2.993   4.054  11.464 -0.4022  0.2826 -0.5749
 7912TIP3    H145151   2.914   4.109  11.460 -0.8264 -0.4301 -2.1351
 7912TIP3    H245152   3.028   4.056  11.375  1.1329  0.2663  0.0130
 7913TIP3   OH245153   4.437   5.188   2.186  0.1420 -0.4965  0.6403
 7913TIP3    H145154   4.475   5.180   2.099  0.8963  0.1746  0.8971
 7913TIP3    H245155   4.481   5.264   2.224 -0.5256 -0.4993  1.4281
 7914TIP3   OH245156   4.917   5.738  13.627 -0.1999 -0.6858 -0.7290
 7914TIP3    H145157   4.935   5.760  13.536  0.5317 -2.4800 -1.0257
 7914TIP3    H245158   4.822   5.745  13.636 -0.1132  1.2821 -1.1410
 7915TIP3   OH245159   2.779   3.909  13.323 -0.1504  0.4672 -0.4084
 7915TIP3    H145160   2.704   3.939  13.375 -0.7748 -2.7405  0.6343
 7915TIP3    H245161   2.854   3.919  13.382 -0.4063 -0.2785  0.0529
 7916TIP3   OH245162   0.906   2.166  16.140  0.0053  0.2010  0.0601
 7916TIP3    H145163   0.920   2.161  16.046 -2.2194 -2.1518 -0.2092
 7916TIP3    H245164   0.943   2.084  16.173  1.6965  1.4641  1.3921
 7917TIP3   OH245165   0.818   5.708   0.202  0.2541  0.5244  0.3294
 7917TIP3    H145166   0.735   5.754   0.215  0.1099  0.2816  0.2599
 7917TIP3    H245167   0.877   5.745   0.268  0.0417  0.5738  0.4903
 7918TIP3   OH245168   3.362   2.355  13.290  0.5655  0.2272 -0.0860
 7918TIP3    H145169   3.450   2.372  13.323  0.3978 -0.8722  0.9578
 7918TIP3    H245170   3.374   2.290  13.220  0.4765 -0.8516  0.8829
 7919TIP3   OH245171   4.606   0.758  16.393  0.0161  0.3643 -0.3110
 7919TIP3    H145172   4.621   0.814  16.469 -1.8499  0.3470  0.0871
 7919TIP3    H245173   4.575   0.819  16.325 -0.9080 -0.0083 -0.2285
 7920TIP3   OH245174   1.860   3.473   1.244  0.2722  0.0881 -0.7690
 7920TIP3    H145175   1.827   3.562   1.242  2.5912  1.0044  0.4114
 7920TIP3    H245176   1.955   3.482   1.257  0.3166 -2.5571  1.3229
 7921TIP3   OH245177   3.440   6.133   2.473 -0.1390  0.1425  0.3088
 7921TIP3    H145178   3.378   6.122   2.545 -1.5698  1.6382 -0.6673
 7921TIP3    H245179   3.493   6.209   2.499 -0.4260  0.4670 -0.0510
 7922TIP3   OH245180   2.124   3.370  15.424 -0.3230 -0.8138 -0.3419
 7922TIP3    H145181   2.047   3.318  15.446  0.6305 -1.1092  2.4331
 7922TIP3    H245182   2.198   3.321  15.460  0.7034  1.8792  1.3571
 7923TIP3   OH245183   4.246   3.224   4.737  0.0141 -0.1776 -0.1716
 7923TIP3    H145184   4.198   3.307   4.735  0.6641  0.1888 -1.0291
 7923TIP3    H245185   4.283   3.221   4.825 -1.6332 -0.5049  0.5262
 7924TIP3   OH245186   4.155   5.633  13.513  0.4756 -0.4392 -0.1598
 7924TIP3    H145187   4.137   5.683  13.433 -1.0230  0.8406  0.9199
 7924TIP3    H245188   4.072   5.589  13.532  0.1285  0.9757  1.8208
 7925TIP3   OH245189   1.806   2.299   3.174 -0.0531 -0.8871 -0.0225
 7925TIP3    H145190   1.778   2.257   3.255  0.8166  0.0789  0.7782
 7925TIP3    H245191   1.857   2.231   3.129  0.4762 -1.0287  0.7889
 7926TIP3   OH245192   5.426   4.698   4.558 -0.5262 -0.2864  0.3307
 7926TIP3    H145193   5.435   4.603   4.553  0.4865 -0.1260 -1.1852
 7926TIP3    H245194   5.485   4.732   4.490 -1.6870  1.3801  0.1098
 7927TIP3   OH245195   0.991   5.102  14.160 -0.3093 -0.6700 -0.0953
 7927TIP3    H145196   1.008   5.196  14.163  0.4192 -0.8182  0.6036
 7927TIP3    H245197   1.021   5.075  14.073 -0.2440 -0.3113 -0.1857
 7928TIP3   OH245198   4.523   3.782  11.255  0.1097  0.2912 -0.0299
 7928TIP3    H145199   4.556   3.701  11.215  1.2670  0.1456  1.1931
 7928TIP3    H245200   4.576   3.793  11.334 -1.0245  1.4732  0.5791
 7929TIP3   OH245201   6.574   3.690   4.386  0.8598 -0.6477 -0.7108
 7929TIP3    H145202   6.620   3.612   4.356  1.1095 -0.7234 -0.1419
 7929TIP3    H245203   6.571   3.747   4.309  0.4258 -1.3272 -1.2003
 7930TIP3   OH245204   2.301   4.123  12.219  0.4622  0.6121  0.8864
 7930TIP3    H145205   2.375   4.067  12.243 -0.5828 -0.4398  1.7643
 7930TIP3    H245206   2.248   4.127  12.299 -1.4838 -0.3598 -0.3100
 7931TIP3   OH245207   5.087   0.720   1.397  0.5702  0.1256  0.1496
 7931TIP3    H145208   5.082   0.637   1.444  0.9767 -0.0979 -0.2023
 7931TIP3    H245209   5.149   0.704   1.326  0.2265  0.5630 -0.2553
 7932TIP3   OH245210   6.636   6.392   3.509  0.1607  0.0876 -0.7785
 7932TIP3    H145211   6.722   6.398   3.467  0.0655  2.0934 -0.7471
 7932TIP3    H245212   6.653   6.420   3.599 -0.5920  0.8148 -0.8663
 7933TIP3   OH245213   0.186   2.919  12.251 -0.6516  0.5222 -0.0081
 7933TIP3    H145214   0.128   2.963  12.313 -1.3879 -0.5941  0.1106
 7933TIP3    H245215   0.135   2.912  12.171 -0.7181 -0.5127  0.1169
 7934TIP3   OH245216   0.212   1.158  10.316  0.1040  0.4184 -0.6089
 7934TIP3    H145217   0.259   1.240  10.299 -0.0359  0.2912 -1.6080
 7934TIP3    H245218   0.123   1.175  10.287  0.4578 -0.6145 -2.3891
 7935TIP3   OH245219   0.780   0.612   2.258  0.2553 -0.0187 -0.1258
 7935TIP3    H145220   0.863   0.568   2.272 -0.0150  0.4499  3.2846
 7935TIP3    H245221   0.793   0.701   2.291 -1.3240  0.3639 -0.4675
 7936TIP3   OH245222   3.313   3.324  11.529  0.0522 -0.2377  0.6357
 7936TIP3    H145223   3.281   3.323  11.438 -1.4316 -1.1897  1.1435
 7936TIP3    H245224   3.401   3.288  11.524  1.0952  2.3373 -0.7971
 7937TIP3   OH245225   5.102   3.718  16.547  0.6381  0.4752 -0.4000
 7937TIP3    H145226   5.012   3.740  16.522  0.1860  1.8814  2.3615
 7937TIP3    H245227   5.093   3.673  16.631  2.5467  0.7492 -0.0359
 7938TIP3   OH245228   6.569   5.700  12.270  0.0230  0.2141 -0.0870
 7938TIP3    H145229   6.568   5.726  12.178  0.1078 -0.4354 -0.2751
 7938TIP3    H245230   6.522   5.616  12.272 -3.4482  2.0544  1.0432
 7939TIP3   OH245231   1.314   3.983  16.849 -0.3105  0.7489  0.5232
 7939TIP3    H145232   1.402   3.954  16.825 -0.1149  0.4345  1.6163
 7939TIP3    H245233   1.328   4.065  16.896 -0.5339  0.2256  1.5082
 7940TIP3   OH245234   1.862   0.639  15.988  0.0586  0.7435  0.4591
 7940TIP3    H145235   1.855   0.550  15.953 -0.0003  0.1367  2.0059
 7940TIP3    H245236   1.950   0.643  16.026  0.2669  1.5330 -0.0785
 7941TIP3   OH245237   3.648   1.333  14.872 -0.2563  0.4983  0.0567
 7941TIP3    H145238   3.700   1.275  14.816  0.9266  2.2895 -0.7618
 7941TIP3    H245239   3.644   1.288  14.956  1.1299 -0.5032 -0.3942
 7942TIP3   OH245240   6.754   3.983  12.332 -0.7613  0.1462 -0.3087
 7942TIP3    H145241   6.675   3.979  12.278 -0.5134  0.8162 -0.7190
 7942TIP3    H245242   6.735   4.050  12.398 -0.9913 -0.5374  0.3253
 7943TIP3   OH245243   0.459   2.619  11.551 -0.2541 -0.1057  0.0991
 7943TIP3    H145244   0.418   2.617  11.464  0.7373 -1.5385 -0.3602
 7943TIP3    H245245   0.452   2.710  11.579 -0.1555  0.4738 -1.7037
 7944TIP3   OH245246   3.152   3.503  12.660 -0.2292 -0.0950  0.3108
 7944TIP3    H145247   3.219   3.500  12.728 -1.6923 -1.9709  1.7244
 7944TIP3    H245248   3.071   3.478  12.705 -1.7655  1.4207 -1.5049
 7945TIP3   OH245249   0.167   4.133  11.696 -0.5196 -0.1191  0.4761
 7945TIP3    H145250   0.075   4.157  11.692 -0.5339 -0.3412 -0.8188
 7945TIP3    H245251   0.212   4.203  11.648 -0.1729 -0.7574 -0.1445
 7946TIP3   OH245252   2.672   0.916  16.607 -0.8982  0.2864  0.4306
 7946TIP3    H145253   2.628   0.855  16.666 -1.0252 -0.0886 -0.0482
 7946TIP3    H245254   2.604   0.976  16.579 -0.5815  1.2011  1.6097
 7947TIP3   OH245255   4.911   3.821   3.082  0.6966 -0.3077  0.2047
 7947TIP3    H145256   4.888   3.741   3.131  0.8471  0.1673  1.0649
 7947TIP3    H245257   4.994   3.849   3.121 -0.0846  1.0797  0.9142
 7948TIP3   OH245258   3.778   1.788   1.490 -0.3837 -0.3586  0.5070
 7948TIP3    H145259   3.852   1.741   1.452 -1.0790 -1.0901  0.0403
 7948TIP3    H245260   3.710   1.784   1.422 -0.0035  2.4878 -0.0973
 7949TIP3   OH245261   5.821   5.263  12.433  0.3164 -0.4001  0.5638
 7949TIP3    H145262   5.904   5.289  12.393 -0.0307 -0.9956 -0.5662
 7949TIP3    H245263   5.767   5.342  12.428  0.1746 -0.5501 -0.4404
 7950TIP3   OH245264   2.493   2.064  15.575  0.3015 -0.3855  0.8005
 7950TIP3    H145265   2.407   2.083  15.613  0.2464 -0.2690  0.6220
 7950TIP3    H245266   2.489   2.104  15.488 -0.1156 -1.9135  0.0977
 7951TIP3   OH245267   2.451   3.714  14.922  0.5914 -0.0902  0.1506
 7951TIP3    H145268   2.519   3.775  14.893  1.2584 -1.3222 -0.9407
 7951TIP3    H245269   2.498   3.647  14.972 -0.2250  0.6318  1.9207
 7952TIP3   OH245270   2.922   5.033  12.720  0.1206  0.1300  0.3027
 7952TIP3    H145271   2.891   5.091  12.650 -2.9720  0.2766  1.6835
 7952TIP3    H245272   3.016   5.026  12.706 -0.3850  0.2775 -3.7589
 7953TIP3   OH245273   0.137   6.746  11.012 -0.5449 -0.2327 -0.1014
 7953TIP3    H145274   0.106   6.677  10.953 -0.1466 -0.4157 -0.0932
 7953TIP3    H245275   0.201   6.703  11.069 -1.4135 -0.2027  0.9013
 7954TIP3   OH245276   4.304   5.151  14.162 -0.5147 -0.3109  0.1851
 7954TIP3    H145277   4.220   5.186  14.130 -0.5088 -0.5411 -0.0824
 7954TIP3    H245278   4.285   5.059  14.184 -0.0590 -0.6786 -0.9420
 7955TIP3   OH245279   0.436   5.751   3.306 -0.0197 -0.0669 -0.2696
 7955TIP3    H145280   0.441   5.824   3.368 -1.0656  0.9911 -1.4077
 7955TIP3    H245281   0.366   5.696   3.340  0.7143 -0.5026  0.5491
 7956TIP3   OH245282   3.027   5.370  13.879 -0.0328  0.2020  0.1938
 7956TIP3    H145283   2.977   5.371  13.960  2.5767  1.7235  1.8722
 7956TIP3    H245284   3.088   5.296  13.889 -0.8624 -0.6802 -1.1438
 7957TIP3   OH245285   0.304   0.139   1.476  0.2021 -0.9233 -0.0743
 7957TIP3    H145286   0.218   0.176   1.497  0.1873 -1.9720  1.9196
 7957TIP3    H245287   0.291   0.095   1.392 -1.2624 -1.1804  0.2676
 7958TIP3   OH245288   2.334   2.307   0.817 -0.2731 -0.1749 -0.3130
 7958TIP3    H145289   2.390   2.272   0.747 -1.7534 -1.2225 -1.0125
 7958TIP3    H245290   2.395   2.339   0.883  1.1791 -2.8224 -0.3041
 7959TIP3   OH245291   0.197   5.361   5.514  0.5504  0.1601 -0.0961
 7959TIP3    H145292   0.283   5.320   5.520  1.3551  1.5148 -1.9798
 7959TIP3    H245293   0.208   5.446   5.558  0.4507  0.7508 -1.2058
 7960TIP3   OH245294   3.726   1.356  17.050  0.2175  0.2275 -0.0486
 7960TIP3    H145295   3.816   1.351  17.017  0.5277  0.7252  0.6932
 7960TIP3    H245296   3.734   1.333  17.143 -0.4966 -0.2114 -0.0939
 7961TIP3   OH245297   6.132   3.219  16.726 -0.1295  0.3937 -0.3610
 7961TIP3    H145298   6.164   3.309  16.731  0.5661  0.2407 -1.7126
 7961TIP3    H245299   6.126   3.201  16.632 -1.0086 -0.7086 -0.1060
 7962TIP3   OH245300   4.667   4.757   3.233  0.5787 -0.5418  0.3997
 7962TIP3    H145301   4.755   4.794   3.223  0.2436  0.3304  0.5603
 7962TIP3    H245302   4.609   4.833   3.223 -0.1533 -1.1249  0.2203
 7963TIP3   OH245303   5.152   4.809   0.369 -0.8190  0.3556 -0.0625
 7963TIP3    H145304   5.087   4.766   0.425  0.4415  0.1600  1.2757
 7963TIP3    H245305   5.236   4.773   0.398 -0.0542  1.1041 -1.3253
 7964TIP3   OH245306   0.723   0.768  16.231 -0.3068 -0.2313 -0.1781
 7964TIP3    H145307   0.754   0.819  16.157 -0.9968 -0.9543 -0.9758
 7964TIP3    H245308   0.793   0.706  16.249 -0.1223 -0.0300 -0.1997
 7965TIP3   OH245309   5.256   1.599   1.266 -0.0241 -0.2700 -0.8053
 7965TIP3    H145310   5.338   1.643   1.291  1.6707 -1.7676 -3.4972
 7965TIP3    H245311   5.209   1.664   1.214  0.7915 -0.3891 -1.6959
 7966TIP3   OH245312   6.266   2.483  16.658 -0.7173  0.1186  0.6879
 7966TIP3    H145313   6.308   2.504  16.742 -0.5871 -0.7430  0.8491
 7966TIP3    H245314   6.184   2.533  16.659  0.8990  2.8918 -0.2247
 7967TIP3   OH245315   2.780   5.816  15.249 -0.0023  0.0537 -0.0485
 7967TIP3    H145316   2.870   5.848  15.242 -0.6207  1.5718 -1.4482
 7967TIP3    H245317   2.764   5.809  15.343  1.1682  0.9738  0.2347
 7968TIP3   OH245318   5.516   6.453   4.420  0.5098  0.0165  0.4881
 7968TIP3    H145319   5.549   6.497   4.498 -1.2404  0.9552  0.7058
 7968TIP3    H245320   5.573   6.485   4.349  1.3995 -0.0023  1.1800
 7969TIP3   OH245321   5.128   3.622   4.562  0.5719  0.2392  0.1804
 7969TIP3    H145322   5.219   3.621   4.533  0.3417 -0.5642 -0.5284
 7969TIP3    H245323   5.094   3.706   4.531  1.0521  0.5240  0.4101
 7970TIP3   OH245324   4.508   0.366  14.537  0.6613  0.3671  0.2380
 7970TIP3    H145325   4.435   0.423  14.561  0.6956  0.6181 -0.2426
 7970TIP3    H245326   4.503   0.360  14.442  0.0240 -1.2760  0.3542
 7971TIP3   OH245327   2.233   6.305  17.026  0.4365 -0.1819  0.5251
 7971TIP3    H145328   2.247   6.211  17.017 -0.4056 -0.2813  0.2457
 7971TIP3    H245329   2.138   6.316  17.029  0.5350  0.5718  1.4734
 7972TIP3   OH245330   6.185   3.083  13.303 -0.2939 -0.1850  0.5392
 7972TIP3    H145331   6.117   3.134  13.347  0.2343  0.1255  1.0083
 7972TIP3    H245332   6.205   3.012  13.364 -1.8484 -1.6513 -0.6142
 7973TIP3   OH245333   4.788   6.577  11.407 -0.1537 -0.3635  0.7013
 7973TIP3    H145334   4.868   6.535  11.378  0.0264  0.9443 -0.8070
 7973TIP3    H245335   4.719   6.538  11.352  0.0251  1.2834 -0.7561
 7974TIP3   OH245336   6.478   4.110  15.890 -0.4394 -0.4233  0.3309
 7974TIP3    H145337   6.394   4.087  15.929 -0.2000  0.5291  1.4311
 7974TIP3    H245338   6.463   4.106  15.796 -1.8815  0.3703  0.5223
 7975TIP3   OH245339   6.325   6.690  14.329  0.0869 -0.9336  0.3605
 7975TIP3    H145340   6.419   6.704  14.317  0.0659 -0.4478  0.7204
 7975TIP3    H245341   6.316   6.596  14.345  0.6241 -0.8375  1.2905
 7976TIP3   OH245342   4.594   3.363   2.702 -0.3653  0.0451 -0.0769
 7976TIP3    H145343   4.673   3.360   2.756 -0.8939 -1.4053  0.6514
 7976TIP3    H245344   4.613   3.306   2.628 -0.3407  0.5358 -0.4492
 7977TIP3   OH245345   4.333   1.114  13.220 -0.0004 -0.4001  0.2462
 7977TIP3    H145346   4.363   1.088  13.133 -1.5322  0.2258 -0.4847
 7977TIP3    H245347   4.349   1.208  13.225  1.0937 -0.6174  1.0695
 7978TIP3   OH245348   1.392   6.491  11.532 -0.3935 -0.3181  0.2186
 7978TIP3    H145349   1.397   6.543  11.452  1.0266 -0.4837  0.1762
 7978TIP3    H245350   1.301   6.498  11.561 -1.1575 -1.0155 -1.9179
 7979TIP3   OH245351   4.916   2.315  12.957  0.1117 -0.5526 -0.0735
 7979TIP3    H145352   4.859   2.390  12.944 -0.0505 -0.7748 -0.6405
 7979TIP3    H245353   4.955   2.329  13.044 -0.2237 -0.0222 -0.0094
 7980TIP3   OH245354   5.195   4.464   2.353 -0.1154 -0.0271 -0.5025
 7980TIP3    H145355   5.251   4.420   2.289 -0.1365 -0.8938  0.0643
 7980TIP3    H245356   5.148   4.393   2.397 -1.2194  0.6589 -0.5689
 7981TIP3   OH245357   2.088   4.948  10.695  0.3877 -0.2377 -0.3117
 7981TIP3    H145358   1.997   4.939  10.667 -0.2187 -0.7370  1.7305
 7981TIP3    H245359   2.089   5.027  10.750  1.4261  0.4119 -1.2388
 7982TIP3   OH245360   3.934   6.305  16.190 -0.8026  0.9035 -0.0726
 7982TIP3    H145361   4.026   6.322  16.211  0.1898 -1.4287 -2.2244
 7982TIP3    H245362   3.895   6.280  16.274  1.0615 -0.2111  0.5011
 7983TIP3   OH245363   5.171   3.733  15.417  0.2453  0.5268 -0.2117
 7983TIP3    H145364   5.229   3.726  15.341 -0.8379 -0.3652 -0.9774
 7983TIP3    H245365   5.093   3.684  15.391 -1.1358  2.3106  0.5179
 7984TIP3   OH245366   5.835   6.364   2.030 -0.3096 -0.4658  0.2624
 7984TIP3    H145367   5.835   6.283   2.080  2.3383  0.6366  2.1922
 7984TIP3    H245368   5.921   6.366   1.988 -0.1257  1.5865  0.6889
 7985TIP3   OH245369   6.545   3.473   2.947  0.2697 -0.0838  0.2662
 7985TIP3    H145370   6.621   3.529   2.965  1.2314 -1.2802 -0.0312
 7985TIP3    H245371   6.514   3.503   2.861 -0.3045  1.1691  0.8932
 7986TIP3   OH245372   1.292   2.032  16.076 -1.4380  0.8670 -0.1031
 7986TIP3    H145373   1.250   2.008  15.994  1.3700  0.3759 -1.4703
 7986TIP3    H245374   1.330   2.119  16.059 -0.0041  0.3383  0.3412
 7987TIP3   OH245375   1.842   1.967   1.324  0.0208  0.1535  0.8695
 7987TIP3    H145376   1.779   1.952   1.395  0.8451 -0.7556  1.4324
 7987TIP3    H245377   1.789   1.973   1.245 -0.8268  0.0141  1.4226
 7988TIP3   OH245378   5.843   4.288   2.789 -0.6613 -0.3131  0.0151
 7988TIP3    H145379   5.758   4.269   2.829  0.4810 -1.7031  1.8797
 7988TIP3    H245380   5.823   4.308   2.698 -2.9306 -1.1201  0.3109
 7989TIP3   OH245381   1.153   3.658   4.939  0.1658  0.5434  0.5364
 7989TIP3    H145382   1.156   3.706   4.856  1.1272 -0.3840  0.0376
 7989TIP3    H245383   1.213   3.706   4.996  1.8962 -0.6318 -0.2697
 7990TIP3   OH245384   1.275   4.611   0.042 -0.5096  0.3245  0.0717
 7990TIP3    H145385   1.337   4.629  -0.029  0.0616  0.7292  0.6630
 7990TIP3    H245386   1.315   4.539   0.091 -2.6402 -2.4327 -2.1131
 7991TIP3   OH245387   5.558   1.122   0.035  0.2766 -0.2018  0.0121
 7991TIP3    H145388   5.564   1.058  -0.036  1.6118 -0.5631  0.4386
 7991TIP3    H245389   5.649   1.136   0.062  0.1116  2.6674 -0.7896
 7992TIP3   OH245390   2.143   2.411  14.527  0.1955  0.8213  0.1953
 7992TIP3    H145391   2.097   2.367  14.598 -0.9283  1.5627 -0.0588
 7992TIP3    H245392   2.152   2.345  14.459 -1.8391  1.0885 -0.3433
 7993TIP3   OH245393   4.535   2.761  15.154 -0.5963  0.1463 -0.0894
 7993TIP3    H145394   4.448   2.774  15.193 -0.3891  1.4663 -0.0450
 7993TIP3    H245395   4.569   2.850  15.141 -0.1241 -0.3038 -2.0852
 7994TIP3   OH245396   4.978   4.929  13.942  0.0196  0.1002  1.0103
 7994TIP3    H145397   4.974   4.987  13.865 -0.6748 -0.6108  0.4986
 7994TIP3    H245398   5.058   4.956  13.988  1.2034 -0.3692 -0.6934
 7995TIP3   OH245399   5.808   3.893  16.163  0.1127  0.1217  0.2883
 7995TIP3    H145400   5.776   3.982  16.146  0.0965  0.2937  1.2091
 7995TIP3    H245401   5.745   3.857  16.225 -0.9844 -1.2190 -1.5657
 7996TIP3   OH245402   5.682   4.297  16.573 -0.1331  0.0623  0.6097
 7996TIP3    H145403   5.746   4.350  16.620 -1.7943  1.9092  0.8452
 7996TIP3    H245404   5.681   4.333  16.484 -0.4152 -0.3574  0.4383
 7997TIP3   OH245405   6.718   2.878  15.251 -0.3243 -0.6601 -0.3701
 7997TIP3    H145406   6.773   2.850  15.324 -0.2248  0.8062  0.1444
 7997TIP3    H245407   6.778   2.924  15.192 -0.5975 -0.9528 -0.8818
 7998TIP3   OH245408   3.979   0.521  16.584  1.7618 -0.4281 -0.0865
 7998TIP3    H145409   3.897   0.529  16.535  0.3778  0.1794  2.2170
 7998TIP3    H245410   3.996   0.610  16.615  1.2762 -1.2294  2.5554
 7999TIP3   OH245411   3.388   1.338  16.927 -0.1341 -0.2009  0.3706
 7999TIP3    H145412   3.322   1.272  16.905  1.4359 -1.5278 -0.4323
 7999TIP3    H245413   3.371   1.359  17.019 -0.3942 -2.0189  0.7545
 8000TIP3   OH245414   4.783   3.797   0.138  0.0278  0.1696  0.1004
 8000TIP3    H145415   4.713   3.808   0.074  0.6424  0.8804 -0.4728
 8000TIP3    H245416   4.860   3.835   0.095  0.3385  1.0897  1.4430
 8001TIP3   OH245417   2.423   3.294   5.602 -0.2512 -0.0597  0.5670
 8001TIP3    H145418   2.402   3.236   5.529  0.2946  1.1835 -0.5946
 8001TIP3    H245419   2.348   3.286   5.661 -1.8773  0.8108 -1.3277
 8002TIP3   OH245420   2.059   4.623  14.206 -0.0786 -0.0876  0.0607
 8002TIP3    H145421   2.033   4.708  14.240 -0.1287  0.1224 -0.4895
 8002TIP3    H245422   2.022   4.620  14.118  0.2427 -0.5242 -0.0636
 8003TIP3   OH245423   3.100   0.207   1.382  0.1281  0.5598 -0.0507
 8003TIP3    H145424   3.014   0.229   1.417 -0.0680 -0.4739  0.1322
 8003TIP3    H245425   3.084   0.135   1.320  0.9814 -0.3863  0.8059
 8004TIP3   OH245426   4.354   0.749   2.848 -0.0921  0.2074 -0.3399
 8004TIP3    H145427   4.282   0.809   2.826 -0.6690 -1.2062 -2.3582
 8004TIP3    H245428   4.432   0.794   2.818 -0.3526  0.7107 -0.2790
 8005TIP3   OH245429   5.093   6.704   1.925  0.2359  0.3420  0.2418
 8005TIP3    H145430   5.076   6.671   2.013  1.2250 -1.6402 -0.2954
 8005TIP3    H245431   5.141   6.786   1.939 -1.0420  0.8950  1.5536
 8006TIP3   OH245432   2.024   0.429   5.481  1.2076 -0.2373 -0.1596
 8006TIP3    H145433   2.101   0.395   5.527  1.8100  1.3968  0.0616
 8006TIP3    H245434   2.049   0.428   5.389  1.3035 -0.2139 -0.1349
 8007TIP3   OH245435   3.937   5.215  13.081  0.0644 -0.2261 -0.4389
 8007TIP3    H145436   3.994   5.289  13.058  0.9531 -0.3142  1.3179
 8007TIP3    H245437   3.945   5.155  13.007  2.1495 -0.1515 -0.3276
 8008TIP3   OH245438   0.218   0.628  16.857 -0.0394  0.6028  0.1057
 8008TIP3    H145439   0.137   0.639  16.907 -0.2968  1.0642 -0.4056
 8008TIP3    H245440   0.225   0.534  16.843 -0.5104  0.5616  0.1208
 8009TIP3   OH245441   5.620   4.976  12.967  0.6278  0.3679 -0.3185
 8009TIP3    H145442   5.625   5.071  12.980 -0.5558 -0.0377  3.7631
 8009TIP3    H245443   5.712   4.948  12.967  0.9273  1.2722  0.9742
 8010TIP3   OH245444   4.690   0.723   1.238  0.0405  0.2347  0.0545
 8010TIP3    H145445   4.769   0.671   1.250 -0.1590  0.1998  1.3130
 8010TIP3    H245446   4.715   0.812   1.264 -0.2867  0.2516  0.3303
 8011TIP3   OH245447   4.411   2.726   1.477 -0.3232 -0.1144  0.5993
 8011TIP3    H145448   4.494   2.761   1.445 -0.1232 -0.5868  0.5954
 8011TIP3    H245449   4.405   2.757   1.568  0.5464 -1.2512  1.0710
 8012TIP3   OH245450   5.007   6.003   4.791 -0.4587  0.4035 -0.6761
 8012TIP3    H145451   5.064   5.953   4.733 -1.7908 -1.9379 -0.0588
 8012TIP3    H245452   4.919   5.989   4.756 -1.1000  0.4206  0.8737
 8013TIP3   OH245453   3.912   2.596   2.868 -0.8006  0.1952 -0.5177
 8013TIP3    H145454   3.989   2.567   2.820 -1.7169  1.2147 -2.6510
 8013TIP3    H245455   3.876   2.515   2.906  0.2863 -0.5281 -0.9967
 8014TIP3   OH245456   5.457   2.907  16.744 -0.0074  0.0845 -0.1552
 8014TIP3    H145457   5.393   2.939  16.680 -2.2901 -0.9994  1.5096
 8014TIP3    H245458   5.486   2.823  16.709 -0.2450  0.1072 -0.4077
 8015TIP3   OH245459   4.051   5.293  14.135 -0.9045 -0.4827 -0.1803
 8015TIP3    H145460   3.999   5.329  14.207 -1.1574 -2.7372  0.8041
 8015TIP3    H245461   4.000   5.312  14.057 -1.2027  0.9423  0.3373
 8016TIP3   OH245462   2.503   2.717   3.922  0.0845  0.4527 -0.5816
 8016TIP3    H145463   2.410   2.711   3.902 -0.1847  1.5091  0.3163
 8016TIP3    H245464   2.547   2.698   3.839 -0.9645  1.8082 -1.4736
 8017TIP3   OH245465   2.708   0.964  14.139 -0.2386  0.2025  0.0328
 8017TIP3    H145466   2.630   0.953  14.194  0.7452 -1.8339  1.1010
 8017TIP3    H245467   2.699   0.897  14.072 -1.4273  2.6803 -2.4044
 8018TIP3   OH245468   5.714   6.459   2.517  0.3559  0.7785  0.2897
 8018TIP3    H145469   5.670   6.517   2.456 -1.5087 -1.4322 -0.5347
 8018TIP3    H245470   5.647   6.435   2.581  0.4269 -2.1529 -0.6362
 8019TIP3   OH245471   5.376   5.174   2.292 -0.4804 -0.1672  0.3913
 8019TIP3    H145472   5.344   5.140   2.208  0.7157  0.1103 -0.1828
 8019TIP3    H245473   5.449   5.231   2.268  1.7970 -2.4244  1.8007
 8020TIP3   OH245474   1.027   3.242   3.823  0.6229  0.1118  0.4967
 8020TIP3    H145475   0.961   3.204   3.765 -0.5354  1.4539  0.9264
 8020TIP3    H245476   1.101   3.261   3.765 -0.3794  1.0956 -0.4751
 8021TIP3   OH245477   3.248   5.178   2.564  0.8531 -0.3084 -0.5248
 8021TIP3    H145478   3.259   5.265   2.603 -2.0793  0.2431 -0.8261
 8021TIP3    H245479   3.291   5.185   2.478  0.3100  0.9925 -0.7139
 8022TIP3   OH245480   6.192   0.368   4.150  0.5925 -0.3350  0.4490
 8022TIP3    H145481   6.098   0.389   4.160  0.3661 -0.6036 -1.0723
 8022TIP3    H245482   6.209   0.378   4.057  2.3072  0.5848  0.8320
 8023TIP3   OH245483   6.145   4.761   4.742  0.3141  0.5134 -1.1271
 8023TIP3    H145484   6.117   4.770   4.834  2.2074 -1.3235 -0.3366
 8023TIP3    H245485   6.080   4.702   4.704 -0.4244  1.1996 -0.9492
 8024TIP3   OH245486   6.136   0.141   4.894  0.6648  0.3154  0.1225
 8024TIP3    H145487   6.092   0.084   4.957 -0.6846  0.4889 -0.6575
 8024TIP3    H245488   6.222   0.100   4.881  0.8797  0.1559  1.8836
 8025TIP3   OH245489   2.986   2.806   6.545 -0.2533 -0.2422  0.0917
 8025TIP3    H145490   2.941   2.835   6.465 -1.0239 -1.3170  0.1218
 8025TIP3    H245491   3.018   2.718   6.524 -0.5109 -0.5557  0.9714
 8026TIP3   OH245492   2.411   0.618  15.030  0.4149 -0.2852 -0.3760
 8026TIP3    H145493   2.397   0.539  15.083 -0.4910 -0.1402 -0.3997
 8026TIP3    H245494   2.376   0.595  14.944 -2.8912  1.2848  0.5104
 8027TIP3   OH245495   3.855   6.590  12.401 -0.7893 -0.2483 -0.1000
 8027TIP3    H145496   3.907   6.668  12.416  0.6467 -0.9608 -1.2926
 8027TIP3    H245497   3.863   6.540  12.482 -0.5567  0.1742  0.1390
 8028TIP3   OH245498   3.999   0.231   4.343 -0.0764  0.4438 -0.0504
 8028TIP3    H145499   4.046   0.168   4.397 -1.7680 -0.8053 -0.0204
 8028TIP3    H245500   4.069   0.282   4.301  1.2975 -0.8391  0.6093
 8029TIP3   OH245501   4.260   1.889   4.065  0.4115 -0.0463 -0.3538
 8029TIP3    H145502   4.295   1.896   3.977  0.9209  1.6579 -0.0441
 8029TIP3    H245503   4.165   1.891   4.054  0.4827  0.8427 -0.8236
 8030TIP3   OH245504   5.862   1.564  15.534 -0.6931 -0.0776  0.0891
 8030TIP3    H145505   5.954   1.586  15.548 -0.5064 -0.7838 -0.0434
 8030TIP3    H245506   5.851   1.566  15.439 -0.7551 -0.2392  0.0927
 8031TIP3   OH245507   0.006   1.777   0.025 -0.1496  0.1065 -0.6141
 8031TIP3    H145508   0.045   1.696  -0.010 -0.8349 -0.6176  0.2700
 8031TIP3    H245509   0.076   1.842   0.017  0.3539 -0.5233 -1.4990
 8032TIP3   OH245510   4.338   3.863  12.786  0.2607  0.7969 -0.5739
 8032TIP3    H145511   4.356   3.843  12.695  0.7203 -3.4614  0.3295
 8032TIP3    H245512   4.411   3.824  12.835 -2.0578 -0.7541  1.8316
 8033TIP3   OH245513   5.262   1.468  13.586 -0.0132 -0.1191  0.1687
 8033TIP3    H145514   5.233   1.537  13.646  0.8746 -1.2088  1.8810
 8033TIP3    H245515   5.181   1.435  13.547 -0.6784  0.0924  1.3326
 8034TIP3   OH245516   1.867   1.691   0.412  0.3346  0.5138  0.2050
 8034TIP3    H145517   1.780   1.666   0.444  1.5029 -2.8202  1.0008
 8034TIP3    H245518   1.921   1.698   0.491  1.7879 -1.7753 -0.5286
 8035TIP3   OH245519   3.105   4.482   3.812  0.0624  0.0812 -0.2316
 8035TIP3    H145520   3.031   4.542   3.808 -0.9009 -0.9961  0.8686
 8035TIP3    H245521   3.182   4.539   3.816 -0.8047  1.2423  0.2988
 8036TIP3   OH245522   3.142   4.562   5.779 -0.0908 -0.1493  0.4073
 8036TIP3    H145523   3.101   4.573   5.693 -0.6932 -1.9175  0.4391
 8036TIP3    H245524   3.077   4.596   5.840  0.0970  0.5775  0.2073
 8037TIP3   OH245525   4.749   3.134   3.765  0.3111  0.2456  0.4070
 8037TIP3    H145526   4.707   3.099   3.844  1.1093 -0.4235  0.5410
 8037TIP3    H245527   4.682   3.190   3.726 -2.0216 -3.4704 -1.2124
 8038TIP3   OH245528   0.870   6.747  14.602  0.0298  0.3151 -0.2848
 8038TIP3    H145529   0.786   6.788  14.584 -0.2586  0.2711  0.9239
 8038TIP3    H245530   0.933   6.819  14.601  0.0771  0.2709 -1.7512
 8039TIP3   OH245531   5.259   6.217  14.562 -0.2291  0.1559 -0.2941
 8039TIP3    H145532   5.312   6.139  14.584 -2.7476 -1.5478 -0.0459
 8039TIP3    H245533   5.314   6.268  14.503  1.6704 -1.5901 -0.0805
 8040TIP3   OH245534   6.596   2.864   5.701  0.0762 -0.4179  0.0447
 8040TIP3    H145535   6.597   2.818   5.785 -0.7448  0.3379  0.4695
 8040TIP3    H245536   6.688   2.867   5.675  0.3940 -0.2260  1.1599
 8041TIP3   OH245537   2.688   6.055   0.568  0.0532  0.3706 -0.1889
 8041TIP3    H145538   2.676   5.974   0.616 -1.3425 -0.2059 -1.5050
 8041TIP3    H245539   2.661   6.124   0.629  0.6067 -0.1745  0.6832
 8042TIP3   OH245540   5.227   2.924  13.474  0.2502  0.2800 -0.3425
 8042TIP3    H145541   5.187   2.897  13.391 -0.3852  1.1486 -0.3187
 8042TIP3    H245542   5.191   3.011  13.492  1.0880  0.4911  0.3821
 8043TIP3   OH245543   1.761   3.873  15.977  0.9870 -0.6316 -0.5060
 8043TIP3    H145544   1.725   3.959  15.997  1.5910 -0.8231  1.6280
 8043TIP3    H245545   1.806   3.884  15.894 -1.5560  0.3105 -1.8004
 8044TIP3   OH245546   0.649   0.613  15.601  0.9475 -0.4071 -0.0252
 8044TIP3    H145547   0.588   0.542  15.621  0.5153  0.0770  0.3913
 8044TIP3    H245548   0.649   0.667  15.681  1.4610 -0.0812 -0.2482
 8045TIP3   OH245549   2.857   5.352  15.238  0.0001  0.2978 -0.2622
 8045TIP3    H145550   2.870   5.301  15.158 -1.2175 -0.9486  0.3082
 8045TIP3    H245551   2.774   5.397  15.225 -0.4479 -0.2974  0.4898
 8046TIP3   OH245552   3.044   4.951   4.315 -0.0691  0.4043 -0.1544
 8046TIP3    H145553   3.094   5.013   4.369  1.2091  0.6697 -1.5910
 8046TIP3    H245554   2.960   4.943   4.359  0.6880  1.1673  1.4741
 8047TIP3   OH245555   6.451   4.942  13.295  0.0990 -0.8251 -0.3127
 8047TIP3    H145556   6.399   5.002  13.348 -0.3148 -0.0275 -1.6302
 8047TIP3    H245557   6.540   4.952  13.329  0.0503  0.5987 -0.5732
 8048TIP3   OH245558   0.082   5.533  13.189  0.3814  1.0238  0.2163
 8048TIP3    H145559   0.057   5.464  13.251  0.7655  0.1550 -0.5801
 8048TIP3    H245560   0.175   5.518  13.174  0.2064  0.9960 -0.8542
 8049TIP3   OH245561   3.844   6.715   0.305 -0.2121 -0.6383  0.3045
 8049TIP3    H145562   3.793   6.783   0.260 -0.5495 -0.8314  0.3888
 8049TIP3    H245563   3.925   6.758   0.331 -0.4608 -0.2464  0.4343
 8050TIP3   OH245564   3.088   6.735   1.991  0.1870  0.0857  0.1591
 8050TIP3    H145565   3.107   6.686   1.912  1.1005 -0.6306  0.8069
 8050TIP3    H245566   3.112   6.675   2.063  0.2969  1.0717  0.9579
 8051TIP3   OH245567   3.933   0.549  12.324  0.2296 -0.1029  0.8547
 8051TIP3    H145568   3.843   0.530  12.351 -0.1627 -0.7843 -0.8823
 8051TIP3    H245569   3.958   0.625  12.377 -0.8515 -0.7936  2.3998
 8052TIP3   OH245570   0.045   4.325  16.342  0.1417 -0.3700 -0.2578
 8052TIP3    H145571  -0.019   4.377  16.391  0.4692 -0.6016  0.4212
 8052TIP3    H245572   0.126   4.332  16.392  0.8465  0.5141 -1.4963
 8053TIP3   OH245573   3.535   5.119  11.520 -0.1783  0.1133  0.4420
 8053TIP3    H145574   3.573   5.087  11.438  0.4054 -1.2702  1.2233
 8053TIP3    H245575   3.460   5.061  11.536 -1.2328  1.3642  0.0983
 8054TIP3   OH245576   2.550   2.641  10.655  0.3067  0.1242  0.3698
 8054TIP3    H145577   2.482   2.676  10.597 -1.7034 -1.2540  1.8380
 8054TIP3    H245578   2.630   2.687  10.628 -1.6871  3.7875  0.3867
 8055TIP3   OH245579   1.955   2.519   3.279 -0.3039 -0.1006  0.0803
 8055TIP3    H145580   1.899   2.485   3.209 -0.4768  2.1012 -0.9164
 8055TIP3    H245581   1.909   2.598   3.309  1.3615  0.7352  0.4722
 8056TIP3   OH245582   1.470   1.737  16.875  0.3119  0.7244  0.2534
 8056TIP3    H145583   1.387   1.709  16.913  0.5609 -0.8921 -0.3512
 8056TIP3    H245584   1.495   1.815  16.926 -0.6262  0.1064  1.6924
 8057TIP3   OH245585   4.634   0.691  14.892 -0.8052 -0.2103  0.3664
 8057TIP3    H145586   4.692   0.633  14.842 -1.3892  1.1978 -2.0582
 8057TIP3    H245587   4.549   0.681  14.850 -1.2281  1.2888  0.8416
 8058TIP3   OH245588   3.116   5.642   3.388 -0.2456  0.1596 -0.3474
 8058TIP3    H145589   3.128   5.713   3.325  2.8207  2.4020  2.5743
 8058TIP3    H245590   3.031   5.661   3.429  1.7308  3.9506  2.3515
 8059TIP3   OH245591   3.326   4.885  15.267  0.3501 -0.3116  0.1988
 8059TIP3    H145592   3.278   4.965  15.242  0.4796  0.1090  1.2586
 8059TIP3    H245593   3.315   4.826  15.193 -2.0673 -0.3268  0.5361
 8060TIP3   OH245594   6.729   6.780  13.806  0.0552  0.3007 -0.0513
 8060TIP3    H145595   6.708   6.874  13.803 -0.7202  0.0951 -1.3343
 8060TIP3    H245596   6.809   6.771  13.754  0.5630  0.3449  0.7035
 8061TIP3   OH245597   1.798   5.040  16.501  0.1109  0.4548  0.7222
 8061TIP3    H145598   1.824   4.968  16.443  0.7581  1.2048  0.0642
 8061TIP3    H245599   1.798   5.002  16.589  1.7387 -0.0106  0.5292
 8062TIP3   OH245600   6.717   4.794   0.664  0.0053 -0.0292 -0.0869
 8062TIP3    H145601   6.691   4.877   0.704  0.2623  0.9951 -1.9887
 8062TIP3    H245602   6.694   4.727   0.729 -1.8911  1.3754  0.7119
 8063TIP3   OH245603   0.737   2.995  12.842  0.7055 -0.1582  0.9868
 8063TIP3    H145604   0.799   3.065  12.864  0.3006  0.2049  0.9681
 8063TIP3    H245605   0.658   3.016  12.892  0.2204 -0.0259  0.1799
 8064TIP3   OH245606   5.069   2.568  16.111 -0.0637 -0.3057  0.2118
 8064TIP3    H145607   5.046   2.500  16.174  0.7131 -2.1889 -1.5068
 8064TIP3    H245608   5.164   2.564  16.104 -0.1243  0.0168 -0.9450
 8065TIP3   OH245609   4.740   6.036  15.384 -0.2277 -0.3591 -0.3082
 8065TIP3    H145610   4.723   6.127  15.409  0.9191 -0.5933  1.4482
 8065TIP3    H245611   4.724   6.033  15.290  0.0431  1.7478 -0.4431
 8066TIP3   OH245612   2.738   0.909   2.956 -0.8189 -0.5413 -0.7851
 8066TIP3    H145613   2.824   0.879   2.925  0.1380  0.5786  0.7074
 8066TIP3    H245614   2.675   0.858   2.905  0.7281 -1.2002 -2.0822
 8067TIP3   OH245615   0.429   4.584   5.530 -0.1006  0.6259  0.2483
 8067TIP3    H145616   0.361   4.553   5.470 -1.6075  0.7927  1.8321
 8067TIP3    H245617   0.511   4.556   5.489 -0.9653  2.4707 -2.8777
 8068TIP3   OH245618   5.906   0.534   1.177  0.7116 -0.1376  0.2691
 8068TIP3    H145619   5.885   0.590   1.102 -2.3753 -0.0616  1.1271
 8068TIP3    H245620   5.939   0.595   1.243  1.1519  0.1188 -0.1822
 8069TIP3   OH245621   0.973   4.775  16.217  0.1033 -0.3179  0.1234
 8069TIP3    H145622   1.061   4.804  16.242 -0.6661  0.7152  1.6549
 8069TIP3    H245623   0.917   4.850  16.233 -1.0498 -0.9180 -1.0243
 8070TIP3   OH245624   0.539   4.390  14.172 -0.0524  0.2327  0.7269
 8070TIP3    H145625   0.588   4.391  14.255 -0.1108  0.0372  0.7629
 8070TIP3    H245626   0.479   4.464  14.179  0.6597  0.8452  0.4277
 8071TIP3   OH245627   0.470   3.055  15.928 -0.1135  0.2649  0.0667
 8071TIP3    H145628   0.507   3.122  15.869 -1.0020  1.9594  1.3925
 8071TIP3    H245629   0.535   3.048  15.999  1.3793 -2.4022 -1.5005
 8072TIP3   OH245630   6.699   3.981   2.603  0.3567  0.1947  0.2224
 8072TIP3    H145631   6.720   4.052   2.664 -0.1878 -0.0861  0.7358
 8072TIP3    H245632   6.649   4.023   2.534  2.5318  0.8692 -0.9953
 8073TIP3   OH245633   5.133   1.303   4.941 -0.1380 -0.2226 -0.0477
 8073TIP3    H145634   5.135   1.398   4.953 -0.6687 -0.4104  1.6043
 8073TIP3    H245635   5.224   1.279   4.926 -0.0171  0.5605 -0.6196
 8074TIP3   OH245636   2.693   3.313   4.294 -0.0231  0.3313  0.0262
 8074TIP3    H145637   2.708   3.225   4.262  1.0418  0.2559  0.6844
 8074TIP3    H245638   2.781   3.349   4.306 -0.4268  1.0495  0.9165
 8075TIP3   OH245639   2.515   0.767  17.190 -0.2289 -0.5105  0.5772
 8075TIP3    H145640   2.533   0.771  17.284 -0.5327  0.6533  0.5942
 8075TIP3    H245641   2.511   0.674  17.171  0.4756 -0.7606  1.5980
 8076TIP3   OH245642   3.213   1.833  15.257 -0.7002  0.0613 -0.0959
 8076TIP3    H145643   3.134   1.783  15.279 -0.6361 -0.5637 -1.2490
 8076TIP3    H245644   3.207   1.912  15.311 -0.6796 -1.2805  1.9312
 8077TIP3   OH245645   6.758   3.907   1.302  0.0715 -0.1172 -0.3082
 8077TIP3    H145646   6.781   3.911   1.209  1.2700  1.3796  0.0422
 8077TIP3    H245647   6.780   3.817   1.327  0.7704 -0.2148 -1.2198
 8078TIP3   OH245648   3.853   4.198  11.282  1.2273  0.0749 -0.4644
 8078TIP3    H145649   3.923   4.237  11.229  0.9814  0.1474 -0.7355
 8078TIP3    H245650   3.789   4.268  11.291  0.8366 -0.2337 -0.8570
 8079TIP3   OH245651   4.819   1.301   4.821  0.4260 -0.0388  0.4074
 8079TIP3    H145652   4.822   1.217   4.867  0.8652 -1.0978 -1.4888
 8079TIP3    H245653   4.737   1.342   4.850  0.3040 -1.0270  1.4892
 8080TIP3   OH245654   5.897   5.099  13.535 -0.6690 -0.0273  0.5126
 8080TIP3    H145655   5.951   5.177  13.524 -0.8963  0.1199  0.4531
 8080TIP3    H245656   5.889   5.088  13.630 -0.9879  0.2583  0.5159
 8081TIP3   OH245657   3.950   5.385  13.883  0.5684 -0.0526 -0.1153
 8081TIP3    H145658   3.868   5.420  13.849  0.3183  0.6305  1.1500
 8081TIP3    H245659   4.014   5.454  13.865  0.6039 -0.0423  0.0521
 8082TIP3   OH245660   5.058   2.394  16.604 -0.2464  0.3177 -0.7453
 8082TIP3    H145661   5.140   2.402  16.556 -0.4229  0.0208 -1.0939
 8082TIP3    H245662   5.067   2.456  16.677  0.5980 -0.2788 -0.3362
 8083TIP3   OH245663   1.513   2.923  13.724  0.6695 -0.0189  0.2305
 8083TIP3    H145664   1.421   2.898  13.718  0.3324  0.5653  2.5596
 8083TIP3    H245665   1.512   3.019  13.715  1.3391 -0.2369 -2.4610
 8084TIP3   OH245666   1.906   6.626   2.698  0.4169 -0.0361 -0.8416
 8084TIP3    H145667   1.861   6.694   2.649 -1.4974 -2.4637 -2.5318
 8084TIP3    H245668   1.994   6.661   2.713 -0.3195  2.4899 -2.2644
 8085TIP3   OH245669   3.919   6.671  15.626  0.5449 -0.0927  0.6992
 8085TIP3    H145670   3.858   6.603  15.596  1.7323 -0.8285 -0.0796
 8085TIP3    H245671   3.922   6.734  15.554  1.5296 -0.6084  0.2913
 8086TIP3   OH245672   6.592   1.351   0.021 -0.4563  0.1998  0.2294
 8086TIP3    H145673   6.623   1.302  -0.055  1.7589 -0.4178  1.4580
 8086TIP3    H245674   6.657   1.332   0.089 -3.3314 -0.7259  2.8366
 8087TIP3   OH245675   4.028   4.327  15.218  0.0354 -0.6257  0.1946
 8087TIP3    H145676   3.938   4.331  15.186 -0.5520  0.4341  1.9582
 8087TIP3    H245677   4.043   4.234  15.234 -0.7695 -0.7981 -0.0107
 8088TIP3   OH245678   3.127   4.037   0.625 -0.1151  1.0161  0.2759
 8088TIP3    H145679   3.146   3.957   0.673  0.7113  0.2509 -1.3038
 8088TIP3    H245680   3.152   4.018   0.535 -1.9231  2.3195 -0.5458
 8089TIP3   OH245681   6.488   3.478   4.599  0.3305 -0.2714  0.2902
 8089TIP3    H145682   6.477   3.554   4.542  0.5164  0.6063  1.4031
 8089TIP3    H245683   6.522   3.409   4.541 -0.9795  0.1214 -0.9802
 8090TIP3   OH245684   3.116   4.043   0.075 -0.7202 -0.3786 -0.1169
 8090TIP3    H145685   3.050   4.051   0.007  1.1653  1.4860 -1.7942
 8090TIP3    H245686   3.169   3.968   0.049 -1.7275 -1.4384  0.8515
 8091TIP3   OH245687   1.980   6.703  13.017  0.2295  0.1018  0.2382
 8091TIP3    H145688   1.895   6.701  12.973  0.3594 -1.4049  0.0281
 8091TIP3    H245689   1.980   6.624  13.071  1.4678  0.1373  0.2942
 8092TIP3   OH245690   0.779   6.324   5.695 -0.7348  0.1139  0.2978
 8092TIP3    H145691   0.854   6.382   5.679 -0.6747  0.5266  1.9622
 8092TIP3    H245692   0.705   6.382   5.709 -1.1339 -0.2720 -0.1592
 8093TIP3   OH245693   4.572   2.281   2.358 -0.5145  0.1662  0.0314
 8093TIP3    H145694   4.498   2.225   2.381  0.9402 -1.6085  0.4641
 8093TIP3    H245695   4.546   2.368   2.391 -3.5440  0.1971 -2.2335
 8094TIP3   OH245696   6.055   4.665   5.268  0.2261  0.2096 -0.1591
 8094TIP3    H145697   5.996   4.591   5.282 -0.3036  1.1445  2.9827
 8094TIP3    H245698   6.129   4.628   5.221 -1.1737 -1.7559 -0.8949
 8095TIP3   OH245699   6.659   3.482   0.999 -0.3766 -0.2197  0.3193
 8095TIP3    H145700   6.691   3.394   0.980 -0.0175  0.0442 -0.3379
 8095TIP3    H245701   6.572   3.469   1.036 -0.0550 -0.8825  0.8518
 8096TIP3   OH245702   1.362   6.177   3.736  0.1736 -0.2306 -0.5649
 8096TIP3    H145703   1.404   6.249   3.690 -1.2068 -0.2354 -1.8876
 8096TIP3    H245704   1.270   6.182   3.710 -0.1793 -1.7105  0.3122
 8097TIP3   OH245705   6.206   5.345   4.615 -0.2780 -0.4429  0.5358
 8097TIP3    H145706   6.246   5.259   4.629  1.4829  0.3779  0.7127
 8097TIP3    H245707   6.169   5.340   4.527  1.9691 -0.5888 -0.4267
 8098TIP3   OH245708   1.214   4.859  16.963  0.2997 -0.0264 -0.0694
 8098TIP3    H145709   1.136   4.839  17.013 -1.6970  1.9878 -2.2357
 8098TIP3    H245710   1.271   4.904  17.025 -0.9126 -0.0989  1.1246
 8099TIP3   OH245711   0.404   4.102  12.436 -0.0070 -1.2508  0.1504
 8099TIP3    H145712   0.392   4.090  12.531  0.4510 -1.4322  0.1846
 8099TIP3    H245713   0.364   4.025  12.397 -1.3518 -0.5598  0.1238
 8100TIP3   OH245714   3.741   4.207   0.915  0.2960 -0.2599 -0.3678
 8100TIP3    H145715   3.685   4.144   0.959 -1.1105  0.1883 -1.4665
 8100TIP3    H245716   3.818   4.157   0.889  0.2283 -0.9812  0.7772
 8101TIP3   OH245717   4.572   5.851   0.804  0.4303 -0.3473  0.0004
 8101TIP3    H145718   4.594   5.757   0.810  0.3442 -0.3062  0.9469
 8101TIP3    H245719   4.632   5.884   0.737  1.1689 -0.8716  0.3903
 8102TIP3   OH245720   3.135   2.084  13.162  0.4842 -0.6391 -0.1061
 8102TIP3    H145721   3.155   2.117  13.074 -0.9416 -2.3519 -1.1145
 8102TIP3    H245722   3.155   1.990  13.157 -1.9502 -1.2269  0.6484
 8103TIP3   OH245723   2.287   2.802  16.184  0.1056  0.3742  0.1246
 8103TIP3    H145724   2.372   2.783  16.145  1.0948  2.2368  1.2524
 8103TIP3    H245725   2.307   2.821  16.276 -1.4729  1.1771  0.3221
 8104TIP3   OH245726   2.051   3.837  15.974 -0.0327  0.0157  0.3031
 8104TIP3    H145727   2.106   3.915  15.969 -0.3332  0.3432  1.9658
 8104TIP3    H245728   2.113   3.764  15.962  0.1788  0.4927 -1.7140
 8105TIP3   OH245729   1.786   5.898  14.351 -0.1209 -0.1420 -0.2786
 8105TIP3    H145730   1.798   5.825  14.412 -1.9220 -1.7338 -1.7791
 8105TIP3    H245731   1.745   5.966  14.404 -0.1285 -0.8847  0.6960
 8106TIP3   OH245732   1.457   5.165  12.059 -0.1978 -0.2242 -0.1410
 8106TIP3    H145733   1.469   5.259  12.076  1.6544 -0.2754 -1.0124
 8106TIP3    H245734   1.494   5.152  11.971 -1.8479 -1.4961 -0.6674
 8107TIP3   OH245735   5.236   0.100  12.807  0.3652 -0.0540 -0.0454
 8107TIP3    H145736   5.160   0.156  12.824  0.0730 -0.4575  0.0020
 8107TIP3    H245737   5.198   0.017  12.778  0.8437  0.3441 -1.8576
 8108TIP3   OH245738   4.256   5.023   6.487  0.2267 -0.0530  0.2640
 8108TIP3    H145739   4.289   5.034   6.576  1.5502 -0.0902 -0.2147
 8108TIP3    H245740   4.327   4.981   6.440 -0.3461  0.2552 -0.8926
 8109TIP3   OH245741   4.061   6.529  14.112  0.3421  0.3536  0.3835
 8109TIP3    H145742   4.044   6.572  14.195  0.4285  1.6651 -0.2686
 8109TIP3    H245743   4.102   6.596  14.058  2.8602 -1.2658  0.1989
 8110TIP3   OH245744   5.141   5.112  16.882 -0.2470 -0.5229 -0.5253
 8110TIP3    H145745   5.169   5.182  16.823  0.1242 -0.4068 -0.2093
 8110TIP3    H245746   5.175   5.032  16.842 -0.6568 -0.5214 -0.8771
 8111TIP3   OH245747   3.601   4.813  15.587 -0.5768  0.2610  0.2330
 8111TIP3    H145748   3.565   4.877  15.524  2.1706  2.0842  0.4070
 8111TIP3    H245749   3.561   4.837  15.670 -2.7206 -0.9056 -0.4256
 8112TIP3   OH245750   2.141   2.980  12.913 -0.8742 -0.1083 -0.4463
 8112TIP3    H145751   2.152   2.888  12.887 -1.0341 -0.1492 -0.3739
 8112TIP3    H245752   2.136   2.976  13.009 -1.2704 -0.0647 -0.4646
 8113TIP3   OH245753   4.416   3.559  11.717 -0.0756  0.6524 -0.0046
 8113TIP3    H145754   4.485   3.578  11.653  0.4004  2.7966  1.1118
 8113TIP3    H245755   4.335   3.588  11.675 -0.0621 -0.0172 -0.5080
 8114TIP3   OH245756   2.519   3.997   5.995 -0.1310 -0.2319 -0.3050
 8114TIP3    H145757   2.445   4.004   6.055  0.2400 -1.7082  0.3547
 8114TIP3    H245758   2.589   4.046   6.037  0.5640 -2.4350  1.2046
 8115TIP3   OH245759   2.435   0.356   1.236 -0.5243 -0.4408 -0.4881
 8115TIP3    H145760   2.391   0.383   1.317 -0.6146  1.7599 -1.2604
 8115TIP3    H245761   2.431   0.432   1.179  1.0691 -1.4125 -1.9548
 8116TIP3   OH245762   1.772   3.415   5.101  0.0869  0.2637 -0.3279
 8116TIP3    H145763   1.810   3.370   5.025 -1.0028 -0.2965 -0.5466
 8116TIP3    H245764   1.693   3.457   5.067 -0.8167 -0.6141  0.6535
 8117TIP3   OH245765   1.004   4.006   1.896 -0.4333 -0.3272  0.0078
 8117TIP3    H145766   1.015   4.066   1.970 -2.0701  0.5662 -0.4507
 8117TIP3    H245767   1.063   3.933   1.916  1.1406  1.1327  0.8647
 8118TIP3   OH245768   2.001   1.446  10.361  0.2758  0.2273 -0.3640
 8118TIP3    H145769   1.980   1.396  10.440  0.4904  1.5640  0.5465
 8118TIP3    H245770   2.081   1.405  10.327  0.0365 -0.5148 -0.0422
 8119TIP3   OH245771   4.145   4.134  15.775  0.5975  0.2507  0.6095
 8119TIP3    H145772   4.060   4.095  15.754  0.4147  0.3534  1.1389
 8119TIP3    H245773   4.137   4.225  15.745  0.1627  0.5297  1.5507
 8120TIP3   OH245774   1.512   0.304   1.974  0.3429 -0.0318  1.0946
 8120TIP3    H145775   1.583   0.294   1.911  1.0392 -0.6528  1.9639
 8120TIP3    H245776   1.550   0.355   2.045 -0.4917  0.8123  0.9375
 8121TIP3   OH245777   0.167   5.091  12.538  0.6647 -0.2495 -0.1770
 8121TIP3    H145778   0.131   5.122  12.455 -0.0899  0.8877  0.5569
 8121TIP3    H245779   0.150   4.997  12.538  0.6264 -0.2450 -1.2845
 8122TIP3   OH245780   5.598   4.112  16.841 -0.0860 -0.0248  0.3414
 8122TIP3    H145781   5.571   4.179  16.779 -1.8858 -1.4796 -0.4931
 8122TIP3    H245782   5.569   4.146  16.927  0.4324  0.9813  0.1215
 8123TIP3   OH245783   3.601   3.160   1.466 -0.5382 -0.2278  0.2583
 8123TIP3    H145784   3.511   3.170   1.498  0.0585  1.0154  1.5992
 8123TIP3    H245785   3.641   3.097   1.526 -0.7729 -1.5419 -0.9297
 8124TIP3   OH245786   4.200   3.855   1.507  0.1866 -0.5110 -0.7275
 8124TIP3    H145787   4.115   3.863   1.549  1.0511  0.8254  0.8292
 8124TIP3    H245788   4.190   3.901   1.423 -0.5986 -0.3162 -0.5309
 8125TIP3   OH245789   2.252   4.846   3.547 -0.6748  0.8273  0.2041
 8125TIP3    H145790   2.228   4.786   3.476  0.9729 -0.1263  0.4370
 8125TIP3    H245791   2.246   4.933   3.507 -0.2874  0.3349 -0.9691
 8126TIP3   OH245792   0.493   4.245   0.940  0.4717  0.1301  0.1028
 8126TIP3    H145793   0.408   4.281   0.913  0.8485  2.2149  1.5505
 8126TIP3    H245794   0.516   4.183   0.872 -2.6471 -1.1223  0.1187
 8127TIP3   OH245795   2.502   5.442   0.001  0.2153  0.2115 -0.6034
 8127TIP3    H145796   2.473   5.351   0.010 -2.0434  0.8996 -0.4640
 8127TIP3    H245797   2.475   5.467  -0.087 -0.0876  1.0375 -0.2852
 8128TIP3   OH245798   0.574   6.032  13.249  0.1723  0.0414  0.3762
 8128TIP3    H145799   0.482   6.054  13.237  0.4824  1.7634  0.9727
 8128TIP3    H245800   0.592   6.052  13.341  0.7692 -1.7426  0.6650
 8129TIP3   OH245801   2.163   1.820   6.030 -0.2299 -0.0156  0.7110
 8129TIP3    H145802   2.236   1.869   6.068  0.0436 -1.4332  2.1201
 8129TIP3    H245803   2.162   1.844   5.938  0.3558  2.0287  1.2284
 8130TIP3   OH245804   4.994   6.299   2.169  0.0792  0.1510  1.0251
 8130TIP3    H145805   5.006   6.394   2.176  0.9518  0.4000 -2.8287
 8130TIP3    H245806   5.083   6.264   2.167 -0.2312 -0.6449  1.1021
 8131TIP3   OH245807   2.629   0.736  16.803  0.5001  0.4304  0.3389
 8131TIP3    H145808   2.680   0.701  16.876  1.4630  0.7540 -0.1806
 8131TIP3    H245809   2.560   0.671  16.788 -0.4390  0.9152  2.3128
 8132TIP3   OH245810   5.310   0.265   2.622 -0.4026  0.1419  0.1676
 8132TIP3    H145811   5.232   0.318   2.635 -1.0900 -0.7448 -0.2509
 8132TIP3    H245812   5.278   0.186   2.579  0.7424 -0.1881 -0.0977
 8133TIP3   OH245813   1.125   2.364  13.289 -0.1985 -0.4665 -0.1299
 8133TIP3    H145814   1.205   2.312  13.285  0.5855  0.7182  0.0169
 8133TIP3    H245815   1.070   2.330  13.219  0.6139 -0.9723 -0.5227
 8134TIP3   OH245816   5.188   1.918  14.755  0.1862  0.2015 -0.6528
 8134TIP3    H145817   5.221   1.946  14.670  0.2417  1.1557 -0.3232
 8134TIP3    H245818   5.200   1.994  14.812 -1.5308  0.2007 -0.2543
 8135TIP3   OH245819   1.917   1.111  13.608  0.4430  0.0017 -0.3360
 8135TIP3    H145820   1.892   1.057  13.683 -0.1016 -1.1212 -1.2971
 8135TIP3    H245821   1.852   1.181  13.605 -0.7404 -1.0839 -0.9114
 8136TIP3   OH245822   2.115   0.479   2.030  0.6146 -0.0765  0.3030
 8136TIP3    H145823   2.186   0.503   1.969  0.4431  0.7620  0.4284
 8136TIP3    H245824   2.123   0.541   2.102 -0.6722  0.4774 -0.0072
 8137TIP3   OH245825   4.559   5.992   3.778  0.3683 -0.1042  0.9274
 8137TIP3    H145826   4.648   6.019   3.799  0.2867  0.3323  0.7075
 8137TIP3    H245827   4.555   5.994   3.682  0.3254 -0.7764  0.9122
 8138TIP3   OH245828   6.434   6.013   3.567  0.1013 -0.1763 -0.0913
 8138TIP3    H145829   6.370   5.943   3.561 -0.2759  0.1427  0.1187
 8138TIP3    H245830   6.451   6.022   3.661 -1.1588  1.1667  0.0205
 8139TIP3   OH245831   1.452   5.897   2.599 -0.1021 -0.2471 -0.0139
 8139TIP3    H145832   1.523   5.935   2.650 -0.0556  0.4852 -0.6129
 8139TIP3    H245833   1.450   5.804   2.625  0.5557 -0.0983  0.5752
 8140TIP3   OH245834   4.574   4.563   4.289  0.4588  0.4953 -0.0562
 8140TIP3    H145835   4.486   4.582   4.256 -1.0339 -0.4277  3.1923
 8140TIP3    H245836   4.583   4.468   4.279  1.0409  0.5690 -0.2349
 8141TIP3   OH245837   1.114   6.432   0.285 -0.1783  0.1658 -0.0879
 8141TIP3    H145838   1.030   6.385   0.285 -0.0924 -0.0321 -1.8861
 8141TIP3    H245839   1.123   6.465   0.374 -3.1945  1.9613 -0.3719
 8142TIP3   OH245840   2.416   5.335   0.902 -0.5628 -0.0823  0.5123
 8142TIP3    H145841   2.325   5.344   0.873 -0.5726  0.7918  0.7880
 8142TIP3    H245842   2.449   5.425   0.901 -0.5037 -0.0629  3.0119
 8143TIP3   OH245843   5.981   3.425   4.483  0.4003  0.0687 -0.2160
 8143TIP3    H145844   5.944   3.357   4.426  0.7262 -0.2988  0.0045
 8143TIP3    H245845   6.023   3.376   4.554  0.8492  0.4974 -0.1838
 8144TIP3   OH245846   6.503   2.945   4.512  0.1748 -0.5587 -0.2436
 8144TIP3    H145847   6.566   2.913   4.447  0.8325  0.3941 -0.0749
 8144TIP3    H245848   6.419   2.944   4.467  0.2489 -2.1320 -0.3762
 8145TIP3   OH245849   6.531   3.839   4.641 -0.2671 -0.1764 -0.1262
 8145TIP3    H145850   6.608   3.794   4.677 -0.7632 -0.4493  0.6000
 8145TIP3    H245851   6.529   3.812   4.549  1.7431  1.5391 -0.7063
 8146TIP3   OH245852   5.564   6.476   2.066  0.3983  0.0724 -0.6095
 8146TIP3    H145853   5.646   6.440   2.031  0.1147  0.3024 -1.5274
 8146TIP3    H245854   5.539   6.415   2.136  0.8230 -0.5622 -1.0032
 8147TIP3   OH245855   2.959   0.194   3.537  0.4163  0.2097 -0.1480
 8147TIP3    H145856   3.032   0.136   3.559 -0.2484  0.1683  2.1130
 8147TIP3    H245857   3.000   0.280   3.524  1.1114 -0.2577 -1.1277
 8148TIP3   OH245858   5.709   5.451  15.768  0.1752 -0.0564 -0.4772
 8148TIP3    H145859   5.736   5.520  15.708  1.2963 -0.9538 -1.0177
 8148TIP3    H245860   5.710   5.492  15.854 -4.1707  2.0507 -1.2931
 8149TIP3   OH245861   5.012   5.188  13.764 -0.2705  0.3635 -0.2302
 8149TIP3    H145862   4.993   5.281  13.762 -0.3859  0.3392 -0.3060
 8149TIP3    H245863   5.108   5.183  13.766 -0.2824  0.4941  0.9618
 8150TIP3   OH245864   0.985   1.557  13.111 -0.1422  0.0017  0.4269
 8150TIP3    H145865   0.907   1.607  13.134  0.5507  0.0732  2.7681
 8150TIP3    H245866   0.958   1.465  13.120 -0.6940 -0.0240 -1.3782
 8151TIP3   OH245867   2.429   2.013  16.677 -0.2354 -0.6080  0.0741
 8151TIP3    H145868   2.398   1.995  16.766 -1.4206 -0.0619 -0.2208
 8151TIP3    H245869   2.512   2.059  16.689 -0.9619  0.4760  0.9034
 8152TIP3   OH245870   5.327   1.875   6.049  0.2238 -0.0445 -0.0615
 8152TIP3    H145871   5.249   1.828   6.018 -0.1460  0.7042 -0.2934
 8152TIP3    H245872   5.383   1.807   6.087 -1.1577 -0.4105  1.3740
 8153TIP3   OH245873   0.307   3.087   5.557 -0.3306  0.2498 -0.1493
 8153TIP3    H145874   0.253   3.079   5.479 -0.7256 -0.0077  0.1526
 8153TIP3    H245875   0.334   2.997   5.578 -0.6853  0.2515  0.3355
 8154TIP3   OH245876   2.254   0.088  12.548 -0.0849  0.3499 -0.6112
 8154TIP3    H145877   2.320   0.027  12.515 -1.0943 -0.0777 -1.8678
 8154TIP3    H245878   2.214   0.043  12.621  0.9301  0.5642  0.0868
 8155TIP3   OH245879   2.099   4.528  11.590 -0.8583 -0.2035  0.6468
 8155TIP3    H145880   2.064   4.454  11.540 -1.9554  1.2038 -0.7536
 8155TIP3    H245881   2.047   4.603  11.559  2.0933  1.6281 -0.0350
 8156TIP3   OH245882   4.225   2.185  12.538 -0.4334 -0.0889 -0.1116
 8156TIP3    H145883   4.155   2.123  12.558  0.4236 -0.5068  1.7501
 8156TIP3    H245884   4.297   2.159  12.597  0.0064  2.5424  0.5798
 8157TIP3   OH245885   4.870   6.753   0.147  0.2797  0.1896  0.1385
 8157TIP3    H145886   4.868   6.689   0.218 -1.9715  1.3139  1.1332
 8157TIP3    H245887   4.911   6.830   0.187  0.0045  0.4563 -0.0986
 8158TIP3   OH245888   4.009   3.865  16.223 -0.0420  0.1418 -0.9164
 8158TIP3    H145889   4.003   3.775  16.191  1.3273 -0.3511  0.1400
 8158TIP3    H245890   4.042   3.915  16.148  0.5151 -0.4998 -1.1078
 8159TIP3   OH245891   1.924   5.634  13.054 -0.7007 -0.6011 -0.3044
 8159TIP3    H145892   1.877   5.709  13.018  1.6906  0.9108 -0.3689
 8159TIP3    H245893   1.995   5.672  13.105 -0.0074 -2.8292  0.4821
 8160TIP3   OH245894   4.868   6.669   3.331 -0.6468 -0.2546 -0.2101
 8160TIP3    H145895   4.813   6.602   3.291 -2.2621  2.3491 -2.5161
 8160TIP3    H245896   4.939   6.683   3.269 -0.9069  0.8981 -0.2719
 8161TIP3   OH245897   4.334   4.661   2.564 -0.3565  0.2308  0.3973
 8161TIP3    H145898   4.398   4.591   2.558 -0.9666 -0.4200  1.3325
 8161TIP3    H245899   4.254   4.618   2.595 -1.1085  1.1125 -0.3123
 8162TIP3   OH245900   5.515   3.674   2.760  0.5813  0.3005 -0.0127
 8162TIP3    H145901   5.582   3.626   2.808  0.7642  0.2275 -0.3437
 8162TIP3    H245902   5.463   3.716   2.829 -0.5018 -1.5797  0.3570
 8163TIP3   OH245903   5.314   2.212  10.643  0.0824  0.3609 -0.1526
 8163TIP3    H145904   5.234   2.247  10.603 -2.8598 -2.4491  2.8909
 8163TIP3    H245905   5.317   2.252  10.730  1.2353 -0.6241  0.2761
 8164TIP3   OH245906   5.270   3.095   1.846 -0.0768 -0.3910  0.8256
 8164TIP3    H145907   5.338   3.110   1.912 -0.0984  0.2006  0.7191
 8164TIP3    H245908   5.189   3.085   1.896  0.0663 -0.9909  0.9466
 8165TIP3   OH245909   4.949   0.565  12.269  0.5336 -0.2069  0.8398
 8165TIP3    H145910   4.906   0.622  12.333 -1.2045  1.7750 -1.9706
 8165TIP3    H245911   4.895   0.486  12.268 -1.5130  1.1328 -0.5811
 8166TIP3   OH245912   4.590   6.716   5.173 -0.0293 -0.4352 -0.1621
 8166TIP3    H145913   4.589   6.623   5.155 -0.0293 -0.1508 -1.6822
 8166TIP3    H245914   4.672   6.730   5.221 -1.7126 -1.7497  3.2880
 8167TIP3   OH245915   6.192   5.637   0.586 -0.3825  0.1179 -0.0708
 8167TIP3    H145916   6.207   5.660   0.494 -2.1444 -1.2866 -0.7418
 8167TIP3    H245917   6.146   5.713   0.622 -0.6046  0.2394 -0.6067
 8168TIP3   OH245918   4.573   6.750  11.714  0.2262  0.4331  0.9451
 8168TIP3    H145919   4.618   6.834  11.708 -0.8627  0.9956  0.4214
 8168TIP3    H245920   4.486   6.772  11.749 -0.3119 -0.3825  0.1471
 8169TIP3   OH245921   6.002   4.978  14.851 -0.2742 -0.4186 -0.4756
 8169TIP3    H145922   6.025   4.902  14.904 -0.7463  0.9842  1.7854
 8169TIP3    H245923   6.070   5.042  14.871 -1.4480  0.7556 -0.1876
 8170TIP3   OH245924   2.631   5.511  12.432 -0.2689  0.0853 -0.0150
 8170TIP3    H145925   2.723   5.491  12.412 -0.5214  0.2455 -1.3509
 8170TIP3    H245926   2.582   5.437  12.397 -0.6449 -0.1227  0.9227
 8171TIP3   OH245927   5.420   2.243  11.350 -0.1707  0.0632  0.0730
 8171TIP3    H145928   5.414   2.157  11.391  0.7532 -0.0946 -0.0966
 8171TIP3    H245929   5.455   2.300  11.418  0.6782 -0.0410 -0.2616
 8172TIP3   OH245930   6.782   6.276   5.617 -0.4348 -0.7054 -0.3929
 8172TIP3    H145931   6.805   6.189   5.652  0.5166 -0.6003 -0.7295
 8172TIP3    H245932   6.784   6.264   5.522  2.7969  0.4306 -0.5107
 8173TIP3   OH245933   4.969   1.859  16.517  0.4129  0.6925  0.0934
 8173TIP3    H145934   5.058   1.848  16.485  0.0210 -1.2505 -0.4204
 8173TIP3    H245935   4.960   1.794  16.587 -1.1230 -0.4086 -1.0598
 8174TIP3   OH245936   3.407   5.766  16.429  0.2073 -0.4777  0.8425
 8174TIP3    H145937   3.479   5.828  16.424 -1.2754  1.4177  1.8923
 8174TIP3    H245938   3.370   5.781  16.517 -3.0173  0.4435 -0.6025
 8175TIP3   OH245939   2.883   3.241   0.916 -0.4716  0.4349 -0.4559
 8175TIP3    H145940   2.863   3.296   0.841 -0.2374  1.0128 -0.0985
 8175TIP3    H245941   2.953   3.287   0.962 -0.7431  0.1886  0.2216
 8176TIP3   OH245942   3.563   4.479   3.673  0.3872  0.2591  0.2080
 8176TIP3    H145943   3.623   4.534   3.722  1.6650 -0.8258 -0.1231
 8176TIP3    H245944   3.530   4.416   3.738  0.0754  0.4503  0.2414
 8177TIP3   OH245945   4.212   4.402  14.633 -0.2375  0.6361 -0.5322
 8177TIP3    H145946   4.207   4.334  14.566  0.1914  1.8193 -1.8035
 8177TIP3    H245947   4.167   4.365  14.709 -0.8053 -0.6931 -1.5026
 8178TIP3   OH245948   0.075   5.660  16.051 -0.9036  0.9707  0.1121
 8178TIP3    H145949  -0.013   5.658  16.088 -0.7962  1.6569  0.4081
 8178TIP3    H245950   0.133   5.674  16.126 -0.4630 -0.3748  0.0353
 8179TIP3   OH245951   3.293   4.142  13.401 -0.0033  0.4092  0.1441
 8179TIP3    H145952   3.298   4.237  13.389 -0.4510  0.8034  2.6626
 8179TIP3    H245953   3.219   4.115  13.348 -0.5847  1.6535  0.3018
 8180TIP3   OH245954   0.588   0.772   0.131  0.3292 -1.1792 -0.1255
 8180TIP3    H145955   0.602   0.860   0.096 -0.8915 -0.7103  0.5216
 8180TIP3    H245956   0.510   0.741   0.086 -0.4432 -1.1083  1.1291
 8181TIP3   OH245957   1.341   3.806   4.358  0.6881  0.3630 -0.1197
 8181TIP3    H145958   1.403   3.734   4.367  0.7324  0.2014 -1.5565
 8181TIP3    H245959   1.396   3.885   4.364  0.7816  0.2594  0.4031
 8182TIP3   OH245960   0.639   0.359   0.789 -0.3016  0.0783  0.5291
 8182TIP3    H145961   0.599   0.339   0.874  0.7568  0.2245  1.0790
 8182TIP3    H245962   0.568   0.348   0.726 -1.3457  0.8403  1.5298
 8183TIP3   OH245963   1.996   3.387  11.820  0.2721 -0.0761 -0.3406
 8183TIP3    H145964   2.086   3.386  11.853  1.2255  0.9451 -2.8239
 8183TIP3    H245965   1.975   3.295  11.802 -0.0741 -0.5903  2.4898
 8184TIP3   OH245966   5.948   2.882   3.177 -0.0166 -0.3008 -0.1137
 8184TIP3    H145967   5.973   2.968   3.212  0.3378  0.3904 -1.9978
 8184TIP3    H245968   6.022   2.825   3.198  0.5607  0.3128 -0.4681
 8185TIP3   OH245969   0.225   1.730  10.158 -0.2703  0.5599 -0.3158
 8185TIP3    H145970   0.290   1.705  10.092 -0.2458 -2.9206  0.9515
 8185TIP3    H245971   0.270   1.720  10.242 -1.3233  1.6954  0.3991
 8186TIP3   OH245972   5.697   1.599   0.169 -0.7028  0.0732  0.7682
 8186TIP3    H145973   5.784   1.626   0.198 -0.1655  0.9132 -1.5390
 8186TIP3    H245974   5.668   1.535   0.235  1.2549  0.4801  2.0477
 8187TIP3   OH245975   1.215   3.514  13.248  0.1724  0.5050 -0.0179
 8187TIP3    H145976   1.154   3.474  13.187  1.6644 -1.2739 -0.3768
 8187TIP3    H245977   1.297   3.521  13.199 -0.0587  4.1308 -0.0078
 8188TIP3   OH245978   2.960   6.630   5.388  0.1996 -0.2397  0.0588
 8188TIP3    H145979   2.959   6.652   5.481  2.2994  1.6125 -0.3235
 8188TIP3    H245980   2.994   6.540   5.385 -0.3883 -0.5027  1.0950
 8189TIP3   OH245981   1.118   4.884  16.649 -0.3482  0.3615 -0.6007
 8189TIP3    H145982   1.166   4.816  16.601  0.9338 -0.0659  1.2562
 8189TIP3    H245983   1.079   4.839  16.724 -2.3009  1.0377 -1.1638
 8190TIP3   OH245984   5.107   4.052  11.067 -0.0331  0.1439  0.0887
 8190TIP3    H145985   5.192   4.072  11.030  0.1168 -0.1683  0.2590
 8190TIP3    H245986   5.053   4.129  11.049 -0.5040 -0.7172 -2.3907
 8191TIP3   OH245987   5.380   2.626   3.229 -0.7307  0.1939 -0.0623
 8191TIP3    H145988   5.428   2.632   3.312  0.8731 -1.4585 -0.8230
 8191TIP3    H245989   5.341   2.712   3.218  1.4852  1.3812  0.9658
 8192TIP3   OH245990   5.927   2.896   0.187 -0.1597 -0.2206 -0.2169
 8192TIP3    H145991   5.856   2.880   0.126  0.5922  1.1647 -1.4876
 8192TIP3    H245992   5.907   2.841   0.263 -1.3680 -1.5447 -1.4843
 8193TIP3   OH245993   2.196   4.213   6.503 -0.2348  0.3164 -0.1284
 8193TIP3    H145994   2.172   4.159   6.428  0.7649 -0.6501  0.2429
 8193TIP3    H245995   2.143   4.292   6.493 -0.3892  0.0367 -1.6486
 8194TIP3   OH245996   6.734   5.748  10.628 -0.0418 -0.0829 -0.3692
 8194TIP3    H145997   6.683   5.814  10.676 -1.8145 -0.3435 -1.8325
 8194TIP3    H245998   6.778   5.697  10.697 -3.7438 -1.4434  1.1596
 8195TIP3   OH245999   5.496   3.980   1.279 -0.0036  0.0617 -0.3995
 8195TIP3    H146000   5.532   4.059   1.319  0.1278 -0.4679  0.5255
 8195TIP3    H246001   5.542   3.972   1.195  1.0052  0.1606  0.1498
 8196TIP3   OH246002   6.209   2.605  16.064 -0.0882 -0.0736  0.4387
 8196TIP3    H146003   6.143   2.542  16.093 -2.1785  2.2890  1.0521
 8196TIP3    H246004   6.207   2.600  15.969 -2.4057  1.1426  0.3856
 8197TIP3   OH246005   5.679   1.705   1.161  0.4104 -0.8150 -0.5682
 8197TIP3    H146006   5.611   1.722   1.226 -0.5612 -0.9335 -1.5323
 8197TIP3    H246007   5.714   1.619   1.184 -0.7006 -1.3525 -0.8553
 8198TIP3   OH246008   3.277   1.570   4.930  0.4932 -0.3836  0.2322
 8198TIP3    H146009   3.239   1.608   4.851 -1.2488 -2.4482  0.0304
 8198TIP3    H246010   3.211   1.582   4.998  1.0388 -0.6450  0.8208
 8199TIP3   OH246011   2.225   0.414  16.288  0.4789 -0.2385  0.2052
 8199TIP3    H146012   2.145   0.383  16.330  0.7723 -0.3808  0.6736
 8199TIP3    H246013   2.220   0.383  16.198  0.5682 -1.2747  0.5518
 8200TIP3   OH246014   0.290   6.631  13.014 -0.4796 -1.0538  0.5099
 8200TIP3    H146015   0.331   6.569  13.073  0.3428  0.1613  1.2319
 8200TIP3    H246016   0.235   6.685  13.070 -0.1988 -0.3133  0.0790
 8201TIP3   OH246017   3.751   2.003   6.691  0.2984 -0.3525 -0.2968
 8201TIP3    H146018   3.821   2.064   6.714 -0.0295 -0.5287  1.2382
 8201TIP3    H246019   3.795   1.930   6.649  0.7492  0.7161 -1.7109
 8202TIP3   OH246020   2.110   3.895   2.725 -0.9709  0.2528 -0.2745
 8202TIP3    H146021   2.130   3.988   2.717 -0.0784 -0.0061 -1.1114
 8202TIP3    H246022   2.190   3.856   2.760 -0.8082 -0.4303 -1.3917
 8203TIP3   OH246023   4.379   1.292  11.659  0.5353 -0.0911  0.0311
 8203TIP3    H146024   4.402   1.276  11.751  2.8525 -1.9694 -0.8286
 8203TIP3    H246025   4.446   1.352  11.628  1.4495 -1.6699 -1.1502
 8204TIP3   OH246026   2.042   0.751  15.429  0.1172 -0.3136 -0.4166
 8204TIP3    H146027   2.064   0.799  15.508  1.1203  0.5100 -1.1779
 8204TIP3    H246028   2.106   0.781  15.364 -0.0258 -1.7541 -1.2452
 8205TIP3   OH246029   4.662   0.982   0.612  0.4022  0.9169  0.2969
 8205TIP3    H146030   4.684   0.950   0.699  0.1587  2.2471  0.8616
 8205TIP3    H246031   4.701   1.069   0.607 -1.7416  1.9015  0.0483
 8206TIP3   OH246032   6.028   3.849  13.886  0.6317 -0.4809 -0.3584
 8206TIP3    H146033   6.049   3.795  13.963 -2.1157 -0.3475  0.5331
 8206TIP3    H246034   5.994   3.930  13.922 -3.7130 -1.6011 -1.6048
 8207TIP3   OH246035   6.161   1.904   3.003  0.0769  0.0359 -0.4201
 8207TIP3    H146036   6.075   1.946   2.996 -0.6159 -1.3709 -0.4391
 8207TIP3    H246037   6.155   1.850   3.081  1.1685  0.4183 -0.0694
 8208TIP3   OH246038   3.204   5.358   1.032  0.0675  0.5519  0.0939
 8208TIP3    H146039   3.219   5.285   0.971  0.8891  1.9176 -1.3874
 8208TIP3    H246040   3.228   5.323   1.118 -2.6381 -1.9236 -0.0606
 8209TIP3   OH246041   2.142   3.347   2.793 -0.2591  0.0739 -0.2518
 8209TIP3    H146042   2.107   3.381   2.876 -1.6296  0.8972 -1.1533
 8209TIP3    H246043   2.074   3.287   2.761  0.1757 -0.0865 -0.8800
 8210TIP3   OH246044   2.926   0.499   4.578  0.3470 -0.2812 -0.5268
 8210TIP3    H146045   2.833   0.476   4.568  0.2626  0.4349 -1.4873
 8210TIP3    H246046   2.972   0.432   4.528  0.3306 -0.5547 -0.1703
 8211TIP3   OH246047   4.010   5.583  14.387  0.5213  0.2630  0.3384
 8211TIP3    H146048   4.100   5.557  14.366  0.1341 -0.5929 -0.2866
 8211TIP3    H246049   3.970   5.603  14.303  1.0242  3.7380  0.8644
 8212TIP3   OH246050   2.852   3.874   4.500  0.3528  0.2946 -0.0141
 8212TIP3    H146051   2.912   3.896   4.429 -2.1108  2.5844 -1.5341
 8212TIP3    H246052   2.853   3.779   4.505  1.3520  0.1446 -2.4767
 8213TIP3   OH246053   4.003   1.317  12.191  0.1163  0.4385  0.0363
 8213TIP3    H146054   3.934   1.353  12.248  0.2363  1.6233 -0.5533
 8213TIP3    H246055   3.980   1.349  12.104  1.0856  0.3467 -0.2510
 8214TIP3   OH246056   3.963   5.214  12.029 -0.5318 -0.1433 -0.5229
 8214TIP3    H146057   3.902   5.274  11.986  1.6207  0.6373 -2.6191
 8214TIP3    H246058   4.044   5.265  12.038  0.5672 -1.9323 -0.0471
 8215TIP3   OH246059   2.686   4.926  13.680  0.5564  0.3384 -0.7223
 8215TIP3    H146060   2.696   4.959  13.769 -0.5338 -0.9965 -0.0828
 8215TIP3    H246061   2.592   4.931  13.663  0.7277  0.3663 -1.7124
 8216TIP3   OH246062   0.329   6.361  14.960 -0.1571 -0.6781 -0.0343
 8216TIP3    H146063   0.361   6.289  15.013 -0.8005  0.1262  1.4902
 8216TIP3    H246064   0.379   6.356  14.879  0.7437 -2.0186  0.5972
 8217TIP3   OH246065   6.679   4.658   0.120 -0.0197 -0.2303 -0.2334
 8217TIP3    H146066   6.711   4.726   0.060  0.3838  0.1772  0.4499
 8217TIP3    H246067   6.585   4.674   0.126  0.1779  0.6562  0.4315
 8218TIP3   OH246068   5.072   1.712   3.632  0.5018 -0.2192  0.4331
 8218TIP3    H146069   5.088   1.807   3.631  2.0821 -0.4789 -0.7163
 8218TIP3    H246070   5.054   1.692   3.723 -0.7897  1.3307  0.5539
 8219TIP3   OH246071   3.055   3.164   0.005  0.6563 -0.8290 -0.2770
 8219TIP3    H146072   3.084   3.215   0.080  1.7567  0.5242 -1.5805
 8219TIP3    H246073   3.055   3.226  -0.068  0.2897 -2.2699 -1.5446
 8220TIP3   OH246074   3.041   2.413  16.858  0.2872 -0.6366 -0.0716
 8220TIP3    H146075   3.007   2.472  16.790 -1.2066 -0.4319  0.8282
 8220TIP3    H246076   3.136   2.417  16.848  0.0974 -0.3914 -1.9602
 8221TIP3   OH246077   1.063   4.051   0.257  0.5403  0.8490  0.2204
 8221TIP3    H146078   1.017   4.016   0.181  1.6163  0.7787 -0.4148
 8221TIP3    H246079   1.046   3.987   0.327 -1.9611  1.8356  0.5806
 8222TIP3   OH246080   2.354   5.714   1.030 -0.2932  0.2723 -0.1000
 8222TIP3    H146081   2.378   5.666   1.109 -1.5916 -0.3970 -0.0952
 8222TIP3    H246082   2.273   5.672   1.000 -0.7328  1.6220 -0.8319
 8223TIP3   OH246083   6.380   1.315   5.153 -0.0678  0.3995  0.0343
 8223TIP3    H146084   6.321   1.383   5.185  0.2369  1.0462 -0.7710
 8223TIP3    H246085   6.418   1.352   5.074 -0.3919 -0.9612 -0.7698
 8224TIP3   OH246086   3.376   5.565  14.216  0.0668  0.1564  0.2415
 8224TIP3    H146087   3.379   5.482  14.263 -0.5093 -0.3116 -0.5368
 8224TIP3    H246088   3.283   5.589  14.214  0.0788  0.1566 -0.6658
 8225TIP3   OH246089   6.260   0.851  16.524  0.0079 -0.0697 -0.2031
 8225TIP3    H146090   6.214   0.899  16.593  1.2925 -0.5300  0.9898
 8225TIP3    H246091   6.253   0.759  16.551  0.8118 -0.2206 -0.5112
 8226TIP3   OH246092   2.296   2.763   5.656  0.1633  0.1665  0.8035
 8226TIP3    H146093   2.252   2.681   5.634  1.2198 -0.1510 -0.1783
 8226TIP3    H246094   2.232   2.811   5.708 -1.3067 -0.3042 -0.5284
 8227TIP3   OH246095   6.122   0.918  11.467 -0.2194  0.0156  0.0083
 8227TIP3    H146096   6.158   0.889  11.551  1.0376  0.1276 -0.4899
 8227TIP3    H246097   6.033   0.947  11.489  0.2904  0.5809  1.4125
 8228TIP3   OH246098   1.286   3.513   1.461 -0.6518  0.5115 -0.3478
 8228TIP3    H146099   1.196   3.524   1.492 -1.1883 -3.6567 -0.0974
 8228TIP3    H246100   1.291   3.567   1.383 -3.2005  1.2759 -0.0405
 8229TIP3   OH246101   0.058   5.988  15.544 -0.0936 -0.1898  0.4176
 8229TIP3    H146102  -0.019   6.031  15.581  1.7587  4.5257 -0.8099
 8229TIP3    H246103   0.128   6.006  15.607  0.9378 -0.7402 -0.5618
 8230TIP3   OH246104   3.120   4.119  12.837  0.0840  0.6735  0.0148
 8230TIP3    H146105   3.100   4.205  12.800 -1.1296  0.4121  0.0197
 8230TIP3    H246106   3.174   4.076  12.771 -0.8796  0.7429 -0.8449
 8231TIP3   OH246107   1.601   6.294   4.607 -0.2513 -0.3046  0.6569
 8231TIP3    H146108   1.617   6.288   4.701 -1.3502 -1.9699  0.7657
 8231TIP3    H246109   1.557   6.212   4.585  0.2808 -0.0759 -1.3775
 8232TIP3   OH246110   1.426   2.858  12.494 -0.6460  0.4591  0.6806
 8232TIP3    H146111   1.349   2.914  12.496 -1.4116 -0.6057  1.5140
 8232TIP3    H246112   1.481   2.889  12.566 -1.1770 -0.0062  1.2908
 8233TIP3   OH246113   4.634   5.875   3.097  0.1739  0.2020 -0.3750
 8233TIP3    H146114   4.647   5.844   3.186  1.5915 -1.0817 -1.0175
 8233TIP3    H246115   4.552   5.925   3.100  0.9486  1.3784  1.9453
 8234TIP3   OH246116   2.217   0.044  16.414  0.4148 -0.4241 -0.3154
 8234TIP3    H146117   2.179   0.125  16.449 -0.5469 -1.0575  0.1030
 8234TIP3    H246118   2.308   0.067  16.398  0.0244  0.9201 -0.7225
 8235TIP3   OH246119   6.399   4.169   5.106 -0.0144 -0.5234  0.1518
 8235TIP3    H146120   6.355   4.087   5.129 -0.9318 -0.1395 -0.2150
 8235TIP3    H246121   6.376   4.184   5.014  0.7221 -0.2101  0.0122
 8236TIP3   OH246122   4.615   5.031  11.669  0.1780  0.0792 -0.1289
 8236TIP3    H146123   4.642   4.947  11.706  0.0660  0.0769 -0.0534
 8236TIP3    H246124   4.550   5.007  11.602  0.5906  0.0583 -0.5297
 8237TIP3   OH246125   1.590   4.126   3.110 -0.2554 -0.4202 -0.1576
 8237TIP3    H146126   1.635   4.053   3.152 -2.3548 -0.5312  1.9708
 8237TIP3    H246127   1.615   4.203   3.161 -2.8276 -0.5606  1.4134
 8238TIP3   OH246128   5.639   3.947  14.065  0.3800  0.9189 -0.6579
 8238TIP3    H146129   5.545   3.929  14.064 -0.3009  4.1074 -1.7250
 8238TIP3    H246130   5.660   3.972  13.975  2.7553 -1.9288 -0.9471
 8239TIP3   OH246131   3.721   1.755  14.737 -0.0449 -0.0551  0.0665
 8239TIP3    H146132   3.747   1.843  14.709 -1.7081  0.1393 -0.9365
 8239TIP3    H246133   3.630   1.765  14.766 -0.5396 -1.6190 -0.9130
 8240TIP3   OH246134   3.961   2.150   3.212  0.2402  0.3911  0.2947
 8240TIP3    H146135   4.009   2.130   3.132  0.5438 -0.5756  0.7167
 8240TIP3    H246136   4.010   2.106   3.281  0.6617  2.1921  1.1826
 8241TIP3   OH246137   2.061   0.026   3.868 -0.6390 -0.3439  0.2525
 8241TIP3    H146138   2.137   0.039   3.812 -0.7846 -0.7932 -0.0546
 8241TIP3    H246139   2.074  -0.061   3.907 -0.4342  0.0502  1.0794
 8242TIP3   OH246140   0.331   6.494   2.273  0.0264 -0.3389  0.1381
 8242TIP3    H146141   0.382   6.575   2.272  1.1130 -1.0070  1.2382
 8242TIP3    H246142   0.391   6.428   2.305 -1.1187 -1.4261  0.0813
 8243TIP3   OH246143   4.128   6.730  13.922 -0.1319 -0.4866  0.2551
 8243TIP3    H146144   4.215   6.692  13.913 -0.7556 -2.5327  2.4929
 8243TIP3    H246145   4.086   6.713  13.838  1.0082 -1.0613 -0.2155
 8244TIP3   OH246146   3.696   4.289   5.178 -0.2572 -0.7489  0.4252
 8244TIP3    H146147   3.757   4.215   5.185 -1.3235 -1.7707 -0.7565
 8244TIP3    H246148   3.621   4.263   5.231 -0.0077  0.1684  1.2430
 8245TIP3   OH246149   1.385   2.830   6.101 -0.0925  0.3476  0.3941
 8245TIP3    H146150   1.387   2.877   6.185  1.1430  0.4162  0.3429
 8245TIP3    H246151   1.315   2.872   6.052 -3.3849 -2.1398  2.7641
 8246TIP3   OH246152   0.094   6.276  11.746  0.0646  0.2674  0.4687
 8246TIP3    H146153   0.149   6.351  11.771  0.2188  0.3991 -0.2526
 8246TIP3    H246154   0.157   6.205  11.731 -0.0345  0.1628  0.5528
 8247TIP3   OH246155   4.095   5.530  16.055 -0.3938 -0.3445  0.0781
 8247TIP3    H146156   4.164   5.579  16.008 -0.0246  1.0358  1.9917
 8247TIP3    H246157   4.014   5.574  16.031 -0.0299  1.4862  2.0464
 8248TIP3   OH246158   6.389   5.497   0.738  0.5784  0.6642 -0.3284
 8248TIP3    H146159   6.352   5.524   0.654 -0.7898 -1.2580 -0.3728
 8248TIP3    H246160   6.438   5.574   0.768 -1.5284  2.4896 -1.3685
 8249TIP3   OH246161   3.489   1.731   1.444 -0.2586  0.2542 -0.0062
 8249TIP3    H146162   3.411   1.732   1.388  1.5951  0.4659 -2.6960
 8249TIP3    H246163   3.522   1.641   1.437 -1.0246 -0.2400  2.2862
 8250TIP3   OH246164   2.724   5.993  17.169  0.4289 -0.0181 -0.3964
 8250TIP3    H146165   2.690   5.911  17.206  1.5744  0.0999  0.9484
 8250TIP3    H246166   2.648   6.034  17.128 -0.1076 -1.8703 -1.2896
 8251TIP3   OH246167   5.153   5.423   5.397  0.1159 -0.0968  0.0819
 8251TIP3    H146168   5.238   5.421   5.352  0.7391 -1.9525  1.2621
 8251TIP3    H246169   5.151   5.341   5.447 -2.9397 -0.7013 -0.9320
 8252TIP3   OH246170   6.238   2.817  15.019  0.4362  0.1678 -0.3673
 8252TIP3    H146171   6.275   2.759  15.086 -0.0137  0.8370  0.4656
 8252TIP3    H246172   6.288   2.797  14.940 -0.5717 -2.2770 -0.4145
 8253TIP3   OH246173   6.488   0.245  12.425 -0.2419  0.0041 -0.3785
 8253TIP3    H146174   6.478   0.224  12.332 -0.2407  2.2126 -0.9123
 8253TIP3    H246175   6.408   0.212  12.466 -0.3522 -0.7740 -1.2012
 8254TIP3   OH246176   1.307   1.543   3.951  0.1854 -0.4095  0.4808
 8254TIP3    H146177   1.236   1.559   4.013  1.3017  1.9642  1.2026
 8254TIP3    H246178   1.384   1.528   4.005  0.9298  0.4953 -0.2943
 8255TIP3   OH246179   5.587   4.449  11.974  0.5716 -0.0470 -0.3614
 8255TIP3    H146180   5.674   4.426  11.942  1.1733 -0.6086  1.6259
 8255TIP3    H246181   5.570   4.535  11.935  0.9797 -0.9733 -2.6839
 8256TIP3   OH246182   2.250   0.868   4.934 -0.0215 -0.6301 -0.1631
 8256TIP3    H146183   2.269   0.849   4.843 -0.9620 -0.6520 -0.3623
 8256TIP3    H246184   2.319   0.929   4.961 -1.6105  2.0234 -1.8660
 8257TIP3   OH246185   6.561   5.293   5.733 -0.1436 -0.0479 -0.0078
 8257TIP3    H146186   6.466   5.290   5.724 -0.1704  0.4316  0.1012
 8257TIP3    H246187   6.576   5.279   5.827 -0.1015 -0.2258 -0.0405
 8258TIP3   OH246188   5.007   1.267  12.309  0.0421 -0.2478 -0.4064
 8258TIP3    H146189   5.009   1.354  12.268  1.7017  0.7193  1.5720
 8258TIP3    H246190   4.991   1.286  12.402  0.7671 -2.0303  0.0926
 8259TIP3   OH246191   0.453   6.197  14.755  0.2639 -0.3307  0.2413
 8259TIP3    H146192   0.412   6.182  14.670 -0.3054  0.1039  0.4326
 8259TIP3    H246193   0.394   6.155  14.818 -1.2816  2.4727  0.7668
 8260TIP3   OH246194   5.920   5.040  16.947 -0.7823  0.4523 -0.2261
 8260TIP3    H146195   6.000   4.988  16.957 -0.6726  0.5197 -0.7366
 8260TIP3    H246196   5.883   5.011  16.864 -0.8949  0.9640 -0.3536
 8261TIP3   OH246197   5.146   1.592   4.844  0.0214 -0.4105  0.2355
 8261TIP3    H146198   5.225   1.611   4.794  0.0416  1.2831  0.8509
 8261TIP3    H246199   5.076   1.590   4.779  0.2078  0.6838 -0.0178
 8262TIP3   OH246200   3.640   2.719  15.726  0.2953  0.1880  0.2317
 8262TIP3    H146201   3.578   2.784  15.693  1.2643  0.3016 -1.3955
 8262TIP3    H246202   3.717   2.769  15.750 -0.0212 -0.0210  1.7519
 8263TIP3   OH246203   2.752   5.771  11.200  0.7497  0.0961  0.0121
 8263TIP3    H146204   2.749   5.858  11.239  0.8539 -0.6552  1.7617
 8263TIP3    H246205   2.782   5.785  11.110 -1.1226  2.0518 -0.3451
 8264TIP3   OH246206   1.763   0.249  10.824 -0.0035  0.3386 -0.4755
 8264TIP3    H146207   1.826   0.302  10.874  1.2679 -0.9515 -0.6877
 8264TIP3    H246208   1.721   0.194  10.890  1.1555 -0.8465 -0.7135
 8265TIP3   OH246209   0.048   0.907  13.369  0.2396 -0.1072  0.6983
 8265TIP3    H146210   0.126   0.865  13.331 -0.0223  0.7391 -0.8118
 8265TIP3    H246211   0.040   0.989  13.322 -1.0761  0.2217  1.4716
 8266TIP3   OH246212   3.023   2.098  11.048  0.1228 -0.1602  0.5818
 8266TIP3    H146213   2.930   2.117  11.037  0.6877  1.5163 -1.5704
 8266TIP3    H246214   3.044   2.037  10.978  0.3097 -1.8633  2.0780
 8267TIP3   OH246215   6.600   4.337  11.350 -0.2774  0.0382 -0.1876
 8267TIP3    H146216   6.514   4.299  11.333 -0.8473  1.1941  0.1003
 8267TIP3    H246217   6.633   4.290  11.426 -1.2892  0.6108  0.6102
 8268TIP3   OH246218   5.059   2.399  13.865  0.0951  0.3191 -0.0311
 8268TIP3    H146219   5.059   2.329  13.930  2.1148  0.7170  0.4515
 8268TIP3    H246220   5.092   2.357  13.786  1.4209  0.7177  0.2912
 8269TIP3   OH246221   4.204   3.742   6.538 -0.0911 -0.1241 -0.4699
 8269TIP3    H146222   4.226   3.672   6.476 -0.1628 -1.3324  0.8433
 8269TIP3    H246223   4.277   3.803   6.532  1.6327 -1.9848  0.7644
 8270TIP3   OH246224   1.550   0.792   5.727  0.5247  0.3480  0.4069
 8270TIP3    H146225   1.524   0.874   5.769  0.6023 -0.0399  1.2175
 8270TIP3    H246226   1.634   0.811   5.687 -0.0950  1.0601 -0.5835
 8271TIP3   OH246227   1.737   5.567  13.267  1.1853  0.2201 -0.5137
 8271TIP3    H146228   1.654   5.556  13.221  0.9183 -1.0053  0.2236
 8271TIP3    H246229   1.803   5.554  13.199  0.7708  1.6203 -1.1837
 8272TIP3   OH246230   6.580   6.415  12.803  0.0841  0.5172  0.6499
 8272TIP3    H146231   6.592   6.509  12.817  2.6384 -0.0202  2.3021
 8272TIP3    H246232   6.619   6.399  12.717 -0.3033  0.9460  0.3895
 8273TIP3   OH246233   5.643   4.306   2.992  0.4773  0.6726  0.6046
 8273TIP3    H146234   5.610   4.232   3.043  0.6280 -0.1273 -0.4409
 8273TIP3    H246235   5.654   4.377   3.056 -2.8459  0.8385  1.0631
 8274TIP3   OH246236   0.185   2.973   4.933 -0.0340  0.0282 -0.8162
 8274TIP3    H146237   0.163   2.977   4.840 -0.3736 -0.1330 -0.7450
 8274TIP3    H246238   0.206   2.881   4.948  3.3565  0.6208 -1.4723
 8275TIP3   OH246239   1.433   4.679  14.263 -0.4994 -0.1158 -0.5263
 8275TIP3    H146240   1.365   4.695  14.329  0.3547 -0.8516  0.5483
 8275TIP3    H246241   1.466   4.592  14.283  1.5339  0.6654 -0.3423
 8276TIP3   OH246242   1.058   1.356   3.445 -0.1282  0.3519 -0.3263
 8276TIP3    H146243   1.059   1.445   3.481  2.0376  0.0848  0.3315
 8276TIP3    H246244   1.023   1.303   3.516  0.9909  0.3209  0.2164
 8277TIP3   OH246245   5.963   6.213  17.186 -0.3994 -0.1560  0.2105
 8277TIP3    H146246   5.972   6.223  17.091  1.0526  0.2912  0.3796
 8277TIP3    H246247   5.949   6.303  17.217  2.7525  0.2040  0.7541
 8278TIP3   OH246248   1.911   1.940  11.508  0.5205 -0.0493 -0.5576
 8278TIP3    H146249   1.863   1.891  11.575  1.5310  0.3492  0.4874
 8278TIP3    H246250   2.000   1.905  11.512  1.0624  1.3109 -0.3216
 8279TIP3   OH246251   1.506   6.416   0.028  0.1156  0.0950 -0.1701
 8279TIP3    H146252   1.413   6.398   0.041  0.6269 -0.0745  3.5628
 8279TIP3    H246253   1.507   6.496  -0.024 -2.1527  1.3200  1.5850
 8280TIP3   OH246254   4.964   4.618  16.047  0.3596 -0.1670  0.4691
 8280TIP3    H146255   4.917   4.618  15.963 -1.0011 -0.1592  1.2074
 8280TIP3    H246256   4.994   4.528  16.057 -0.0208 -0.3190  0.2668
 8281TIP3   OH246257   2.082   5.662   3.039 -0.0813 -0.4094  0.2506
 8281TIP3    H146258   2.023   5.607   2.988  1.4368 -0.1188 -1.9169
 8281TIP3    H246259   2.024   5.723   3.085 -1.4981 -0.0336 -1.9308
 8282TIP3   OH246260   3.278   6.694  13.552 -0.0023 -0.7655 -0.0218
 8282TIP3    H146261   3.224   6.653  13.620 -0.6603 -1.7903 -1.1327
 8282TIP3    H246262   3.291   6.784  13.581 -2.1157 -0.5777  0.3845
 8283TIP3   OH246263   1.350   1.841  12.203 -0.1150  0.4456 -0.0054
 8283TIP3    H146264   1.414   1.868  12.137  0.3566  2.3826  1.1877
 8283TIP3    H246265   1.402   1.811  12.277 -0.6443 -2.1728 -0.6371
 8284TIP3   OH246266   0.208   5.566  14.409  0.3315 -0.2188 -0.3782
 8284TIP3    H146267   0.213   5.485  14.357 -1.6411 -0.9760  0.5419
 8284TIP3    H246268   0.208   5.535  14.500 -1.2651  0.7468 -0.0317
 8285TIP3   OH246269   4.286   4.531   4.924  0.3683 -0.3287  0.8737
 8285TIP3    H146270   4.300   4.497   5.012 -0.0521 -0.6534  0.8167
 8285TIP3    H246271   4.318   4.462   4.866 -1.0388 -0.9022  0.7476
 8286TIP3   OH246272   3.838   6.079   3.090  0.2933  0.1994 -0.0360
 8286TIP3    H146273   3.819   6.153   3.147  0.1668  0.9444 -1.0408
 8286TIP3    H246274   3.933   6.069   3.095  0.2570  0.0752  0.5213
 8287TIP3   OH246275   4.145   1.764  16.077  0.3303  0.9313 -0.4833
 8287TIP3    H146276   4.226   1.814  16.083  1.2698 -0.2435 -2.7590
 8287TIP3    H246277   4.127   1.758  15.983 -1.9303  0.4154 -0.0551
 8288TIP3   OH246278   0.291   4.846   5.094  0.1384  0.2057 -0.1024
 8288TIP3    H146279   0.309   4.859   5.001  2.7043  0.7126  0.4318
 8288TIP3    H246280   0.320   4.927   5.136 -1.7952  0.3258  1.0739
 8289TIP3   OH246281   3.203   3.440   0.224 -0.3768  0.5636  0.1713
 8289TIP3    H146282   3.113   3.440   0.257 -0.4983  1.1048 -0.1620
 8289TIP3    H246283   3.238   3.355   0.250 -1.6058 -0.4540 -1.4232
 8290TIP3   OH246284   4.114   5.417   4.718  0.0149 -0.2945 -0.2408
 8290TIP3    H146285   4.057   5.346   4.746 -0.1416 -0.0066  0.1715
 8290TIP3    H246286   4.203   5.381   4.724 -0.0618 -0.4363  0.0216
 8291TIP3   OH246287   4.380   0.735   1.274 -0.3635  0.2057  0.1809
 8291TIP3    H146288   4.345   0.732   1.363  1.6442  2.3379  1.1025
 8291TIP3    H246289   4.433   0.656   1.267 -0.2876  0.1802  0.9965
 8292TIP3   OH246290   4.038   2.873  15.563 -0.7572 -0.5681  0.1431
 8292TIP3    H146291   4.008   2.963  15.552  0.6754 -0.2833 -1.7698
 8292TIP3    H246292   4.118   2.881  15.616 -0.6681 -0.7310  0.0328
 8293TIP3   OH246293   0.761   1.113   2.653 -0.2117  0.2317  0.0313
 8293TIP3    H146294   0.671   1.106   2.623  0.0395 -0.8748 -0.5036
 8293TIP3    H246295   0.771   1.205   2.680 -1.1571  0.6357 -0.9681
 8294TIP3   OH246296   5.966   1.496  12.927  0.5961 -0.2735 -0.6978
 8294TIP3    H146297   5.983   1.570  12.868  0.6031  0.2589 -0.0357
 8294TIP3    H246298   6.047   1.488  12.978  0.2372 -0.1150 -0.1035
 8295TIP3   OH246299   2.600   1.171   0.180  0.2948 -0.2208 -0.1282
 8295TIP3    H146300   2.670   1.121   0.222  1.3091  1.8916  0.7993
 8295TIP3    H246301   2.523   1.153   0.232  0.1829 -2.3297 -0.9723
 8296TIP3   OH246302   4.318   2.066  12.175 -0.2739 -0.1475 -0.4635
 8296TIP3    H146303   4.314   2.159  12.151  1.2769 -0.0318 -0.3227
 8296TIP3    H246304   4.407   2.054  12.209 -0.5898 -1.6036 -0.1224
 8297TIP3   OH246305   0.365   4.129  11.898  0.3129  0.0989 -0.0919
 8297TIP3    H146306   0.311   4.098  11.826 -1.5651 -0.3092  1.4506
 8297TIP3    H246307   0.404   4.049  11.935 -0.9740 -0.0032  1.0845
 8298TIP3   OH246308   5.415   3.957  12.537  0.8619 -0.0734 -0.4899
 8298TIP3    H146309   5.395   3.898  12.611  1.5937  1.0250  0.6120
 8298TIP3    H246310   5.454   4.034  12.579  3.2907 -0.3349 -2.1939
 8299TIP3   OH246311   0.370   6.161   0.838  0.1552 -0.1282 -0.0501
 8299TIP3    H146312   0.316   6.091   0.801  0.1519 -0.3111  0.2963
 8299TIP3    H246313   0.330   6.242   0.805  1.0143 -0.3230 -1.6164
 8300TIP3   OH246314   2.113   6.181  16.432  0.4080  0.2953  0.0868
 8300TIP3    H146315   2.127   6.250  16.367  2.8433  0.6424  0.9548
 8300TIP3    H246316   2.163   6.209  16.508 -1.2147 -0.8530  1.6203
 8301TIP3   OH246317   2.056   5.250   5.252  0.1074  0.0011 -0.5132
 8301TIP3    H146318   1.974   5.219   5.290  0.7454 -0.8546  0.1679
 8301TIP3    H246319   2.028   5.313   5.185 -0.9541  2.7683  2.4538
 8302TIP3   OH246320   4.002   3.373   4.461 -0.1569 -0.0388  0.2166
 8302TIP3    H146321   3.963   3.410   4.540 -0.4973 -0.8847  0.4557
 8302TIP3    H246322   4.057   3.301   4.493  0.1745  0.0035 -0.2611
 8303TIP3   OH246323   2.760   1.257   1.695  0.0922  0.6255 -0.3016
 8303TIP3    H146324   2.726   1.325   1.638  0.3690 -1.1501 -2.6394
 8303TIP3    H246325   2.836   1.222   1.649  0.4892 -0.6794  1.2870
 8304TIP3   OH246326   4.617   1.939   0.595 -0.3256  0.2848 -0.2587
 8304TIP3    H146327   4.681   1.877   0.632 -0.9113 -0.3058 -0.2340
 8304TIP3    H246328   4.587   1.990   0.670 -0.3246  0.1628 -0.1759
 8305TIP3   OH246329   5.029   2.646   4.263 -0.6021 -0.1287  0.0856
 8305TIP3    H146330   5.026   2.738   4.238  1.3496 -0.5250 -1.7601
 8305TIP3    H246331   5.085   2.644   4.341 -3.0328  0.5578  1.9144
 8306TIP3   OH246332   4.994   3.479   2.321  0.3761  0.3759  0.7251
 8306TIP3    H146333   4.946   3.561   2.336 -1.2166 -0.3044 -0.5173
 8306TIP3    H246334   4.960   3.420   2.388 -1.0678 -0.3200 -0.5972
 8307TIP3   OH246335   0.529   6.048   2.573 -0.5204 -0.1450 -0.1273
 8307TIP3    H146336   0.555   6.079   2.486 -1.9951  2.1792  0.1944
 8307TIP3    H246337   0.454   6.103   2.596  0.8703  0.4310  3.3316
 8308TIP3   OH246338   4.395   1.772   0.350 -0.1019 -0.2000  0.0521
 8308TIP3    H146339   4.349   1.692   0.328 -0.5440 -0.1813  0.8850
 8308TIP3    H246340   4.348   1.841   0.303  0.6684 -0.5066 -1.1717
 8309TIP3   OH246341   1.587   3.715   1.571  0.1862  0.7755 -0.4246
 8309TIP3    H146342   1.514   3.675   1.619  0.8420 -0.5189 -0.4619
 8309TIP3    H246343   1.561   3.709   1.479 -0.2834  1.6164 -0.3473
 8310TIP3   OH246344   6.286   1.925  12.047 -0.1504  0.4768 -0.2188
 8310TIP3    H146345   6.326   1.958  12.127  1.0144 -0.9735 -0.1673
 8310TIP3    H246346   6.360   1.913  11.987 -0.7041 -0.7275 -0.6737
 8311TIP3   OH246347   3.503   1.670   1.719  0.0411 -0.0607  0.2566
 8311TIP3    H146348   3.481   1.577   1.707 -0.1523  0.1093 -0.7246
 8311TIP3    H246349   3.508   1.705   1.630 -1.2064  1.1783  0.6662
 8312TIP3   OH246350   6.036   2.387   4.870  0.4371 -0.1957  0.1229
 8312TIP3    H146351   6.028   2.480   4.847 -0.3779  0.2333  2.0485
 8312TIP3    H246352   6.130   2.371   4.870  0.6778  1.0845  1.4553
 8313TIP3   OH246353   3.357   4.220  16.430  0.8344  0.0264  0.5523
 8313TIP3    H146354   3.277   4.225  16.377 -1.2099  1.0424  3.5853
 8313TIP3    H246355   3.367   4.126  16.449 -0.5535  0.0265  1.3975
 8314TIP3   OH246356   3.173   2.088  13.720  0.4926 -0.3816  0.6514
 8314TIP3    H146357   3.172   2.072  13.626 -0.8366 -1.2607  0.8005
 8314TIP3    H246358   3.098   2.144  13.736  1.1996  0.4575  1.0829
 8315TIP3   OH246359   5.526   6.306  10.926  0.1276  0.3493 -0.2755
 8315TIP3    H146360   5.563   6.230  10.882  1.4215  0.9036 -0.1929
 8315TIP3    H246361   5.453   6.272  10.977 -1.0011 -0.4048 -2.3320
 8316TIP3   OH246362   0.744   6.126  14.670  0.1169 -0.2675  0.2468
 8316TIP3    H146363   0.775   6.208  14.633  1.5042 -0.4436  1.0008
 8316TIP3    H246364   0.651   6.140  14.686 -0.1879  0.3426 -1.8337
 8317TIP3   OH246365   4.428   2.473   1.309  0.3562  1.0183 -0.5491
 8317TIP3    H146366   4.417   2.549   1.367  0.5949  1.3767 -0.9714
 8317TIP3    H246367   4.464   2.510   1.228 -1.6424  0.7701 -1.5849
 8318TIP3   OH246368   6.553   4.596  14.623  0.0391  0.1848  0.1268
 8318TIP3    H146369   6.612   4.654  14.575 -2.7952  0.7487 -2.9171
 8318TIP3    H246370   6.600   4.513  14.629  0.8311  0.3221 -3.1014
 8319TIP3   OH246371   0.634   4.836   3.020  0.1248 -0.1316  0.0736
 8319TIP3    H146372   0.579   4.790   2.957  0.9255  0.4916 -1.1079
 8319TIP3    H246373   0.697   4.770   3.050 -0.6224 -0.5797  0.6677
 8320TIP3   OH246374   4.151   5.163  15.518 -0.1718  0.1192 -0.4229
 8320TIP3    H146375   4.116   5.080  15.485 -1.4559  0.9516 -1.1794
 8320TIP3    H246376   4.246   5.152  15.514 -0.3228 -0.6978 -2.0775
 8321TIP3   OH246377   3.429   6.084  11.993  0.1076  0.3087 -0.1833
 8321TIP3    H146378   3.452   6.169  12.031 -0.6408  0.0691  0.8194
 8321TIP3    H246379   3.352   6.102  11.938  0.0945  0.3243 -0.1602
 8322TIP3   OH246380   6.074   4.927  16.701  0.0874  0.0195 -0.1153
 8322TIP3    H146381   6.081   4.963  16.613  0.0580 -0.3430 -0.2634
 8322TIP3    H246382   6.157   4.882  16.716  0.6910  1.3054  0.5851
 8323TIP3   OH246383   2.391   3.574  15.643  0.2012  0.1023 -0.0529
 8323TIP3    H146384   2.393   3.564  15.548  1.3910  3.2084 -0.4231
 8323TIP3    H246385   2.475   3.613  15.664 -0.6848  0.9372  2.0671
 8324TIP3   OH246386   2.979   2.395   5.858 -0.4517 -0.4128  0.8378
 8324TIP3    H146387   2.903   2.444   5.891  0.0043  0.0467  1.1999
 8324TIP3    H246388   3.032   2.378   5.935  0.6647  0.7485  0.3402
 8325TIP3   OH246389   2.342   0.695  11.025  0.7530  0.0750  0.4382
 8325TIP3    H146390   2.251   0.724  11.037  1.5251  2.0745  1.7647
 8325TIP3    H246391   2.375   0.684  11.114  1.9826 -0.1071 -0.0345
 8326TIP3   OH246392   1.368   1.700  12.993 -0.2928  0.5087 -0.2950
 8326TIP3    H146393   1.290   1.647  12.976 -1.8608  1.7815  2.6730
 8326TIP3    H246394   1.431   1.638  13.031 -1.0959  0.1663  0.5023
 8327TIP3   OH246395   5.648   1.736  15.564  0.1527 -0.2817 -0.1250
 8327TIP3    H146396   5.626   1.737  15.471  2.8642  1.6038 -0.8019
 8327TIP3    H246397   5.719   1.671  15.570 -0.7734 -1.2065  0.8163
 8328TIP3   OH246398   2.257   5.944  15.867  0.0918 -1.0097 -0.4766
 8328TIP3    H146399   2.318   6.004  15.825 -1.3885 -1.9774 -4.2130
 8328TIP3    H246400   2.305   5.862  15.876  0.3451 -0.8618 -0.4899
 8329TIP3   OH246401   3.330   2.435   2.362  0.0330 -0.3626  0.4722
 8329TIP3    H146402   3.268   2.477   2.302  1.0875  3.0248  1.6514
 8329TIP3    H246403   3.276   2.400   2.432 -0.8837 -1.0914 -0.5835
 8330TIP3   OH246404   0.582   6.126   4.980  0.2658  0.0139 -0.2577
 8330TIP3    H146405   0.650   6.105   5.044  0.8290 -0.5834 -1.0537
 8330TIP3    H246406   0.619   6.102   4.896  0.0723  2.1127 -0.9694
 8331TIP3   OH246407   3.044   1.332  11.790 -0.6106 -0.0194 -0.1082
 8331TIP3    H146408   2.994   1.396  11.841  0.1565  0.4140  0.1029
 8331TIP3    H246409   3.059   1.259  11.850  0.0008  0.3445  0.1799
 8332TIP3   OH246410   3.842   3.368  16.965  0.0887  0.3240  0.2937
 8332TIP3    H146411   3.821   3.461  16.961 -1.5289 -0.0893 -2.0387
 8332TIP3    H246412   3.783   3.327  16.901  2.3806 -1.9845 -0.4637
 8333TIP3   OH246413   6.224   4.256   0.147  0.3895 -0.1329 -0.1018
 8333TIP3    H146414   6.198   4.205   0.070 -0.7867 -0.3394  0.4271
 8333TIP3    H246415   6.278   4.327   0.112 -2.2870  1.3072 -1.4193
 8334TIP3   OH246416   5.625   3.895   1.864 -0.0634  0.2885 -0.1951
 8334TIP3    H146417   5.613   3.989   1.852 -0.4229  0.2435 -0.2218
 8334TIP3    H246418   5.632   3.860   1.775  2.1065  0.5276 -0.1416
 8335TIP3   OH246419   3.094   4.499   3.270 -0.0347 -0.2267  0.1139
 8335TIP3    H146420   3.182   4.470   3.293  0.9928  2.2036 -0.5652
 8335TIP3    H246421   3.047   4.502   3.354  1.3659  1.0985  0.8784
 8336TIP3   OH246422   2.930   1.457  16.735 -0.4739  0.2363 -0.2040
 8336TIP3    H146423   2.885   1.528  16.689 -1.1455 -0.8826 -1.3378
 8336TIP3    H246424   2.968   1.498  16.813 -1.9331  1.5637 -0.1728
 8337TIP3   OH246425   5.738   6.559   6.019  0.2552 -0.0496  0.3531
 8337TIP3    H146426   5.719   6.499   5.947  1.9855 -1.8135  1.3197
 8337TIP3    H246427   5.670   6.541   6.084  0.2686 -0.3611  0.2810
 8338TIP3   OH246428   0.681   4.311  11.720  0.1851  0.5237 -0.1033
 8338TIP3    H146429   0.747   4.293  11.654 -0.2431 -1.8448  0.0839
 8338TIP3    H246430   0.728   4.303  11.803  0.2714  1.5509 -0.0460
 8339TIP3   OH246431   1.992   4.746  13.346  0.2863  0.9567  0.0058
 8339TIP3    H146432   1.941   4.787  13.416  1.2456  1.8868  0.1683
 8339TIP3    H246433   1.933   4.742  13.272 -0.7526 -0.0394  0.8613
 8340TIP3   OH246434   3.438   3.228  13.397 -0.6381 -0.6521 -0.0867
 8340TIP3    H146435   3.528   3.196  13.406 -0.7453 -0.6244  1.1167
 8340TIP3    H246436   3.442   3.319  13.428 -0.3331  0.5650 -3.4764
 8341TIP3   OH246437   6.654   5.448  11.659 -0.0136  0.0062 -0.0937
 8341TIP3    H146438   6.605   5.368  11.636 -0.4363  0.4872 -0.8699
 8341TIP3    H246439   6.634   5.509  11.589  0.0493  0.9162  0.6769
 8342TIP3   OH246440   4.890   5.953   3.499 -0.3790 -0.8619 -0.0428
 8342TIP3    H146441   4.876   6.042   3.466 -0.8437 -0.4874  1.1407
 8342TIP3    H246442   4.882   5.961   3.594 -2.0655 -2.4418 -0.0089
 8343TIP3   OH246443   4.016   5.403   1.969 -0.1935  0.2320 -0.3769
 8343TIP3    H146444   4.038   5.458   1.895 -0.4110  0.1495 -0.5049
 8343TIP3    H246445   3.945   5.450   2.014 -1.3746 -0.6301 -1.3052
 8344TIP3   OH246446   2.568   1.827  10.649 -0.7590  0.2806  0.3591
 8344TIP3    H146447   2.623   1.901  10.625 -0.5755  0.4365  1.2284
 8344TIP3    H246448   2.576   1.766  10.576 -1.7264  1.5562 -0.8346
 8345TIP3   OH246449   5.489   3.742  15.838 -0.3641  0.4081  0.2802
 8345TIP3    H146450   5.400   3.762  15.808 -0.3097  0.1650 -0.0387
 8345TIP3    H246451   5.522   3.678  15.775  0.2906  1.0126 -0.0019
 8346TIP3   OH246452   3.823   5.250  16.797  0.2780 -0.4871 -0.4797
 8346TIP3    H146453   3.754   5.315  16.786  1.8664  1.4467  0.8462
 8346TIP3    H246454   3.866   5.273  16.878  2.0504 -2.1192 -0.9176
 8347TIP3   OH246455   0.707   1.474  14.856 -0.1271 -0.1520 -0.0711
 8347TIP3    H146456   0.632   1.439  14.807 -0.4737 -0.4954  0.7029
 8347TIP3    H246457   0.749   1.535  14.795 -1.6166  0.8085 -0.1732
 8348TIP3   OH246458   4.685   1.790  14.413  0.2531  0.0628  0.2267
 8348TIP3    H146459   4.701   1.884  14.417  1.5460 -0.0909 -1.1343
 8348TIP3    H246460   4.631   1.772  14.490 -1.1982  2.1475 -0.2554
 8349TIP3   OH246461   1.407   3.399  15.199  0.1786  0.1150 -0.3881
 8349TIP3    H146462   1.396   3.420  15.106  0.7624 -0.1224 -0.5138
 8349TIP3    H246463   1.361   3.316  15.210 -0.3104  0.3908 -0.3590
 8350TIP3   OH246464   0.106   6.454   6.259  0.2755 -0.4488  0.0697
 8350TIP3    H146465   0.107   6.480   6.167  1.5593 -2.8515 -0.6317
 8350TIP3    H246466   0.198   6.454   6.284 -0.0682  0.1469  1.3608
 8351TIP3   OH246467   3.465   0.823  12.017  0.1187  0.3429  0.3329
 8351TIP3    H146468   3.383   0.862  12.047  2.4511  3.5425  2.9234
 8351TIP3    H246469   3.464   0.835  11.922 -3.0688 -1.1227  0.1403
 8352TIP3   OH246470   6.206   3.399   1.294 -0.4745 -0.2426 -0.6194
 8352TIP3    H146471   6.194   3.307   1.318 -1.0416 -0.3492 -1.3074
 8352TIP3    H246472   6.117   3.432   1.280 -0.3104  0.5788  0.2318
 8353TIP3   OH246473   3.932   0.136  15.455  0.5276  0.2646  0.9543
 8353TIP3    H146474   3.972   0.121  15.369  4.6227  1.1658  2.6261
 8353TIP3    H246475   3.934   0.231  15.467 -0.4744  0.1823  1.8755
 8354TIP3   OH246476   3.335   5.401  16.891 -0.1708  0.0251 -0.2366
 8354TIP3    H146477   3.251   5.440  16.914 -0.0745  0.2270 -0.2261
 8354TIP3    H246478   3.318   5.352  16.810  0.2335  2.0010 -1.5612
 8355TIP3   OH246479   0.217   5.143   6.704 -0.3022 -0.1858 -0.7636
 8355TIP3    H146480   0.272   5.094   6.642  0.9808  0.6927 -0.3490
 8355TIP3    H246481   0.212   5.086   6.781  0.7297  0.0817 -0.4898
 8356TIP3   OH246482   0.493   3.664  14.207 -0.2939  0.1560  0.3044
 8356TIP3    H146483   0.403   3.639  14.230 -0.3448 -0.9865 -1.0629
 8356TIP3    H246484   0.520   3.599  14.142  0.6457  1.9176 -1.1400
 8357TIP3   OH246485   2.455   2.300  10.935  0.5278 -0.3317  0.0578
 8357TIP3    H146486   2.380   2.241  10.933 -0.7041  1.2522 -0.7115
 8357TIP3    H246487   2.485   2.305  10.844  0.7961  0.0289  0.1637
 8358TIP3   OH246488   1.030   3.645  15.090 -0.7179  0.2076  0.9038
 8358TIP3    H146489   0.941   3.630  15.060 -1.1745  2.2493  1.1684
 8358TIP3    H246490   1.057   3.726  15.047  1.2714 -0.7320  0.3001
 8359TIP3   OH246491   1.169   0.933   0.775  0.3806  0.1406  0.6037
 8359TIP3    H146492   1.141   0.892   0.857  1.3141  0.4832  1.0970
 8359TIP3    H246493   1.185   1.024   0.799 -4.1346  1.4936 -1.0049
 8360TIP3   OH246494   2.923   4.987  16.758  0.4020  0.8116  0.3450
 8360TIP3    H146495   2.867   4.970  16.834 -1.7290 -0.7067 -1.4713
 8360TIP3    H246496   2.875   5.053  16.708  0.7273  0.2781 -0.6904
 8361TIP3   OH246497   2.346   2.926   3.646  0.9042 -0.1660 -0.3841
 8361TIP3    H146498   2.299   2.921   3.563 -1.3502  1.1216  0.7914
 8361TIP3    H246499   2.328   2.842   3.689  0.4248 -0.0192 -0.3055
 8362TIP3   OH246500   1.716   3.401   3.176  0.4004  0.6947 -0.3630
 8362TIP3    H146501   1.633   3.439   3.206 -0.8838 -0.7088 -2.0586
 8362TIP3    H246502   1.751   3.356   3.253 -2.4682 -2.2008 -0.6423
 8363TIP3   OH246503   0.566   5.406   4.871  0.4877  0.5527 -0.4502
 8363TIP3    H146504   0.514   5.326   4.871  1.1170  0.1281  0.7548
 8363TIP3    H246505   0.538   5.452   4.951  0.1761  1.5053 -1.0988
 8364TIP3   OH246506   3.342   5.461  14.685  0.1326  0.0467  0.3988
 8364TIP3    H146507   3.420   5.510  14.710 -1.0275  1.9902  0.2569
 8364TIP3    H246508   3.297   5.445  14.768  0.6154 -1.0083  0.4707
 8365TIP3   OH246509   4.004   4.170   1.450  0.2024  0.2080  0.4294
 8365TIP3    H146510   3.982   4.179   1.357 -0.8715 -0.6176  0.6016
 8365TIP3    H246511   4.087   4.218   1.459  0.3100  0.3088 -0.9464
 8366TIP3   OH246512   2.112   3.312   0.216  0.1811  0.5366  0.2120
 8366TIP3    H146513   2.111   3.310   0.120 -0.6928  1.3923  0.1947
 8366TIP3    H246514   2.202   3.288   0.240 -0.1458 -1.7940 -0.7533
 8367TIP3   OH246515   6.639   2.287   2.008 -0.2788  0.4394 -0.0163
 8367TIP3    H146516   6.691   2.361   2.040 -0.9118  0.7790  0.2244
 8367TIP3    H246517   6.703   2.230   1.966  0.3136  0.7916  0.3981
 8368TIP3   OH246518   5.025   4.532  11.663 -0.2111  0.3124  0.6600
 8368TIP3    H146519   4.943   4.497  11.628 -0.1985  1.4325 -0.5289
 8368TIP3    H246520   5.073   4.455  11.691 -0.4848 -0.5907 -1.2639
 8369TIP3   OH246521   4.428   2.448   5.433 -0.1750 -0.4697  0.3590
 8369TIP3    H146522   4.420   2.437   5.338  0.2060 -0.4771  0.3265
 8369TIP3    H246523   4.366   2.385   5.469  0.1663 -0.9438  0.1237
 8370TIP3   OH246524   2.725   2.483  10.425  0.2389  0.1053 -0.0777
 8370TIP3    H146525   2.726   2.401  10.474  1.3813 -0.6076 -1.2405
 8370TIP3    H246526   2.778   2.543  10.478 -1.3491  0.3751  1.2197
 8371TIP3   OH246527   1.838   6.340   1.424  0.3425  0.0781 -0.2790
 8371TIP3    H146528   1.777   6.274   1.457  2.0257  0.7540  4.5731
 8371TIP3    H246529   1.906   6.289   1.380 -0.6578 -1.0661 -0.5418
 8372TIP3   OH246530   5.313   3.292  16.546  0.1337  1.1584 -0.0831
 8372TIP3    H146531   5.268   3.290  16.462 -1.5767  3.3892  0.7252
 8372TIP3    H246532   5.399   3.329  16.527  1.0713 -1.5485 -1.3616
 8373TIP3   OH246533   6.753   3.172  16.572  0.0220  0.3835  0.2446
 8373TIP3    H146534   6.783   3.091  16.614 -1.4518 -0.0095  0.5760
 8373TIP3    H246535   6.658   3.169  16.579 -0.1172  1.5244 -0.9195
 8374TIP3   OH246536   4.201   0.463  11.432  0.0199 -0.2056 -0.3380
 8374TIP3    H146537   4.171   0.456  11.341 -0.9005 -0.8780  0.0208
 8374TIP3    H246538   4.144   0.405  11.481  0.2978  0.4169  0.7357
 8375TIP3   OH246539   1.792   1.256  16.593 -0.2631 -0.0548 -0.1358
 8375TIP3    H146540   1.760   1.284  16.507 -1.6207 -0.0241  0.3673
 8375TIP3    H246541   1.828   1.169  16.578  0.0837  0.2139 -0.8672
 8376TIP3   OH246542   6.394   4.663   5.486 -0.5440  0.1433  0.4338
 8376TIP3    H146543   6.407   4.719   5.562  0.2802 -0.6072  0.8562
 8376TIP3    H246544   6.315   4.697   5.444 -0.1392  1.5304  0.7545
 8377TIP3   OH246545   4.210   1.423   2.098  0.2966 -0.3527  0.0585
 8377TIP3    H146546   4.271   1.382   2.037  0.2062 -0.4363  0.0245
 8377TIP3    H246547   4.145   1.465   2.043 -0.8708 -2.0570  0.0974
 8378TIP3   OH246548   4.006   1.597  14.074 -0.0022 -0.0983  0.5089
 8378TIP3    H146549   4.074   1.611  14.009  1.5058 -0.2920  2.0222
 8378TIP3    H246550   3.987   1.504  14.070  0.2057 -0.1382  0.4762
 8379TIP3   OH246551   1.424   0.459  15.494  0.3770 -0.9697 -0.2461
 8379TIP3    H146552   1.475   0.494  15.421 -0.3211  0.1032 -0.2183
 8379TIP3    H246553   1.480   0.473  15.570 -0.0310  0.3705 -0.1905
 8380TIP3   OH246554   4.242   2.681  13.676  0.1653 -0.5870  0.6460
 8380TIP3    H146555   4.146   2.680  13.676  0.1619 -0.8736  1.8702
 8380TIP3    H246556   4.267   2.607  13.622 -0.3093 -1.2062  1.2599
 8381TIP3   OH246557   5.020   5.782  14.171  0.5938 -0.3858  0.1651
 8381TIP3    H146558   5.013   5.707  14.230  0.5396 -0.1080  0.5155
 8381TIP3    H246559   5.101   5.767  14.122  1.4992  0.1750  1.4404
 8382TIP3   OH246560   0.158   6.135   5.897  0.1724 -0.6892  0.1812
 8382TIP3    H146561   0.228   6.119   5.834  1.3541  0.0284  1.2804
 8382TIP3    H246562   0.204   6.154   5.979 -1.2901  0.9067  0.6565
 8383TIP3   OH246563   2.398   0.733  12.477 -0.2787 -0.2879  0.0170
 8383TIP3    H146564   2.456   0.755  12.403 -0.6582 -1.2806 -0.5837
 8383TIP3    H246565   2.448   0.760  12.554  0.7300 -0.5427 -0.5257
 8384TIP3   OH246566   0.783   6.328   2.154 -0.1152  0.6811 -0.2404
 8384TIP3    H146567   0.760   6.280   2.075  2.0455 -0.2773 -0.3241
 8384TIP3    H246568   0.821   6.410   2.122 -1.9264  1.5896 -0.1263
 8385TIP3   OH246569   4.003   5.168   5.288  0.4848 -0.0570  0.0712
 8385TIP3    H146570   4.061   5.201   5.356  1.2754  0.1351 -0.6855
 8385TIP3    H246571   3.975   5.247   5.241 -0.3822 -0.1493  0.4185
 8386TIP3   OH246572   1.525   4.015   1.532  0.1658 -0.0481  0.1016
 8386TIP3    H146573   1.436   4.049   1.544 -0.1404 -1.0930  0.9051
 8386TIP3    H246574   1.514   3.940   1.473  0.3848 -0.7297  0.9218
 8387TIP3   OH246575   1.034   1.195   1.374 -0.2580  0.1352  0.3355
 8387TIP3    H146576   0.951   1.199   1.422 -0.3909  0.4888  0.0751
 8387TIP3    H246577   1.016   1.139   1.299  0.1049 -0.8846  1.0005
 8388TIP3   OH246578   2.429   6.359   4.765 -0.2021  0.1737 -0.6916
 8388TIP3    H146579   2.406   6.329   4.677  0.3186  3.2485 -1.9345
 8388TIP3    H246580   2.349   6.347   4.816 -0.7575 -0.8640 -1.7918
 8389TIP3   OH246581   1.394   1.927   1.776  0.4607  0.1800 -0.0711
 8389TIP3    H146582   1.416   1.834   1.766 -0.0722 -0.2359  2.1977
 8389TIP3    H246583   1.344   1.931   1.858 -1.9141  2.0829 -1.5247
 8390TIP3   OH246584   3.541   6.474  15.705  0.1689 -0.0118  0.5819
 8390TIP3    H146585   3.482   6.400  15.688 -0.0032  0.1009  0.6976
 8390TIP3    H246586   3.628   6.437  15.693  0.0450  0.2337 -1.3227
 8391TIP3   OH246587   1.805   2.481  14.791  0.3422  0.5517 -0.3513
 8391TIP3    H146588   1.793   2.555  14.731  0.4273 -0.1002 -1.1798
 8391TIP3    H246589   1.717   2.445  14.802  0.7697 -1.4294 -2.8249
 8392TIP3   OH246590   1.872   3.473   2.144 -0.5135 -0.0065 -0.1714
 8392TIP3    H146591   1.824   3.430   2.073 -0.0629 -1.6491  0.5005
 8392TIP3    H246592   1.803   3.511   2.199 -0.8690  1.1476 -1.3873
 8393TIP3   OH246593   5.251   0.013   2.845  0.4700 -0.2627  0.5034
 8393TIP3    H146594   5.224   0.102   2.868  0.0569 -0.1684 -0.3289
 8393TIP3    H246595   5.345   0.010   2.866  0.4743  0.3553  0.5793
 8394TIP3   OH246596   0.186   3.395   2.756  0.3250  0.5819 -0.4158
 8394TIP3    H146597   0.136   3.469   2.721 -0.5951 -0.3493 -1.0731
 8394TIP3    H246598   0.121   3.337   2.795  0.9098 -0.5258 -1.0656
 8395TIP3   OH246599   1.820   0.272  11.905 -0.0193 -0.1780  0.4971
 8395TIP3    H146600   1.881   0.263  11.831 -0.6531 -0.8270  0.0470
 8395TIP3    H246601   1.868   0.240  11.980 -0.0890 -1.4898 -0.0053
 8396TIP3   OH246602   3.561   1.379   5.492  0.0496 -0.2977 -0.6315
 8396TIP3    H146603   3.584   1.470   5.512 -1.7351 -0.2254  1.2339
 8396TIP3    H246604   3.569   1.334   5.576 -1.0539 -1.4340 -1.1302
 8397TIP3   OH246605   1.393   3.979   0.465  0.4566 -0.2833 -0.1939
 8397TIP3    H146606   1.450   4.027   0.405 -0.8874 -0.2821 -1.5022
 8397TIP3    H246607   1.431   3.892   0.469  0.5031 -0.3184 -1.1532
 8398TIP3   OH246608   1.638   3.723   0.121 -0.3459 -0.2039 -0.1810
 8398TIP3    H146609   1.608   3.645   0.167  1.9648 -1.4724 -0.7893
 8398TIP3    H246610   1.587   3.724   0.040 -0.6097 -0.8963 -0.0266
 8399TIP3   OH246611   1.558   4.917   2.270 -0.5777 -0.6132  0.0748
 8399TIP3    H146612   1.579   4.825   2.252 -1.1656 -0.8594  0.6264
 8399TIP3    H246613   1.466   4.916   2.296 -1.5050  0.5023 -2.8496
 8400TIP3   OH246614   1.111   4.781   2.322 -0.5636 -0.8290 -0.0725
 8400TIP3    H146615   1.060   4.858   2.298  0.8888  0.2689  0.2582
 8400TIP3    H246616   1.062   4.741   2.394 -0.6855  0.5090  0.6033
 8401TIP3   OH246617   0.446   1.250  15.390  0.1148  0.2346 -0.2187
 8401TIP3    H146618   0.417   1.215  15.474  0.1730  0.4157 -0.1245
 8401TIP3    H246619   0.522   1.305  15.412  0.2926  0.0709 -0.4191
 8402TIP3   OH246620   3.388   1.257   4.307 -0.2531  0.0763 -0.5867
 8402TIP3    H146621   3.445   1.298   4.373 -0.8147  1.5010 -0.9739
 8402TIP3    H246622   3.445   1.193   4.263  0.2214 -0.6472  1.0391
 8403TIP3   OH246623   6.285   1.430  13.685 -0.0846  0.5984 -0.1322
 8403TIP3    H146624   6.222   1.464  13.622 -0.9214  0.2466  0.5016
 8403TIP3    H246625   6.370   1.452  13.649 -0.5412 -0.1328 -1.6780
 8404TIP3   OH246626   4.535   4.955   0.445  0.1800  0.0030 -0.0544
 8404TIP3    H146627   4.591   4.901   0.390 -0.4062 -0.1055 -0.5550
 8404TIP3    H246628   4.446   4.929   0.421 -0.0929  0.6125  0.2803
 8405TIP3   OH246629   1.243   0.632  12.238  0.2763 -0.2205 -0.2018
 8405TIP3    H146630   1.254   0.684  12.159 -1.0511 -0.7747 -0.7533
 8405TIP3    H246631   1.317   0.658  12.294  0.5306  1.0576 -1.1175
 8406TIP3   OH246632   6.245   2.255  11.930 -0.0582 -0.9067  0.1523
 8406TIP3    H146633   6.150   2.256  11.919 -0.0166 -3.1190 -0.4530
 8406TIP3    H246634   6.258   2.249  12.025 -0.4873  0.2899  0.3047
 8407TIP3   OH246635   1.751   3.303  10.208  0.1077 -0.2374 -0.3201
 8407TIP3    H146636   1.767   3.261  10.293 -0.7681  2.9399  1.5211
 8407TIP3    H246637   1.659   3.286  10.190 -0.0439  0.1743  0.0408
 8408TIP3   OH246638   3.482   5.194   3.109  0.4038 -0.3695 -0.6307
 8408TIP3    H146639   3.565   5.223   3.147 -0.5944  0.3334  1.0343
 8408TIP3    H246640   3.437   5.150   3.181 -0.7192 -0.6648 -1.5045
 8409TIP3   OH246641   1.041   1.746  11.961 -0.7786 -0.0690  0.7080
 8409TIP3    H146642   1.085   1.665  11.938  2.4238  2.7318 -4.0731
 8409TIP3    H246643   0.951   1.734  11.931  0.0582 -1.3580 -1.3692
 8410TIP3   OH246644   3.753   1.560   2.816  0.0265 -0.7068  0.3359
 8410TIP3    H146645   3.675   1.545   2.762 -0.1336  1.6136 -0.1433
 8410TIP3    H246646   3.724   1.544   2.905 -0.9148 -0.2527  0.1181
 8411TIP3   OH246647   1.731   1.353  15.732 -1.0846 -0.0083 -0.5585
 8411TIP3    H146648   1.728   1.389  15.643 -0.3602 -1.5286 -1.2153
 8411TIP3    H246649   1.726   1.430  15.789  0.7473  1.1532 -1.9295
 8412TIP3   OH246650   4.609   3.050  14.054  0.7749 -0.2269 -0.4434
 8412TIP3    H146651   4.529   3.102  14.041  0.8808  0.2234  0.6828
 8412TIP3    H246652   4.579   2.971  14.099  0.8877 -0.3090 -0.5115
 8413TIP3   OH246653   0.409   6.397  15.701  0.0290 -0.0291 -0.2249
 8413TIP3    H146654   0.476   6.390  15.769 -1.9861  0.8037  1.9303
 8413TIP3    H246655   0.381   6.307  15.686 -1.1102 -0.0241  1.7415
 8414TIP3   OH246656   2.127   6.218  12.014 -0.3748 -0.3538  0.8956
 8414TIP3    H146657   2.071   6.146  11.986  1.4160 -1.2442 -0.5167
 8414TIP3    H246658   2.094   6.294  11.967 -1.0530 -0.6387  0.9018
 8415TIP3   OH246659   4.278   1.918  14.047 -0.4804 -0.6992  0.0885
 8415TIP3    H146660   4.205   1.870  14.085 -0.9960 -1.3529 -1.6609
 8415TIP3    H246661   4.257   2.010  14.063 -1.8815 -0.8690 -0.7042
 8416TIP3   OH246662   3.603   5.997  12.416  0.2083  0.9560  0.3593
 8416TIP3    H146663   3.573   5.966  12.330 -0.0772  1.9723  0.0885
 8416TIP3    H246664   3.690   5.958  12.426 -2.0559 -4.1063  2.2465
 8417TIP3   OH246665   6.175   5.452   0.953 -0.3668  0.3759  0.4080
 8417TIP3    H146666   6.210   5.486   0.870 -1.7253  0.4474 -0.1382
 8417TIP3    H246667   6.175   5.356   0.941 -1.0349  0.4061  0.1194
 8418TIP3   OH246668   4.111   1.442  10.936 -0.2505  0.7484  0.3941
 8418TIP3    H146669   4.121   1.503  10.863 -0.2342  1.2680  0.8223
 8418TIP3    H246670   4.182   1.466  10.997 -0.2423  0.3001  0.5647
 8419TIP3   OH246671   4.311   5.281   0.087 -0.4142 -0.4445 -0.0729
 8419TIP3    H146672   4.232   5.302   0.137 -0.7794  0.8312 -1.1714
 8419TIP3    H246673   4.312   5.186   0.083 -0.9063 -0.5347  1.5183
 8420TIP3   OH246674   6.543   0.195   5.101  0.4024  0.8045  0.0209
 8420TIP3    H146675   6.481   0.229   5.166 -1.9193 -0.1040 -1.6705
 8420TIP3    H246676   6.563   0.106   5.132  1.9369  1.5883  1.3030
 8421TIP3   OH246677   0.091   0.890  11.632 -0.3284  0.4423 -0.0617
 8421TIP3    H146678   0.169   0.937  11.662 -0.1041  0.6739 -0.9946
 8421TIP3    H246679   0.017   0.943  11.662 -0.1166  0.5326  0.3033
 8422TIP3   OH246680   6.357   4.817   1.203  0.7433 -0.1298 -0.2178
 8422TIP3    H146681   6.288   4.877   1.232  1.0586 -0.3789  1.1047
 8422TIP3    H246682   6.326   4.784   1.119  0.4320  1.6671 -0.8307
 8423TIP3   OH246683   6.011   1.275   0.448  0.4106  0.2346 -0.1969
 8423TIP3    H146684   6.045   1.365   0.446  1.3699 -0.1062  0.5923
 8423TIP3    H246685   5.923   1.284   0.485  0.5261  0.8417 -0.0597
 8424TIP3   OH246686   3.615   2.178   1.570  0.1604 -0.4599 -0.0565
 8424TIP3    H146687   3.633   2.226   1.651  2.3894  0.0748 -0.8075
 8424TIP3    H246688   3.622   2.086   1.594  3.5381 -0.3035 -0.1146
 8425TIP3   OH246689   2.051   5.660   2.518  0.0750 -0.3097  0.1048
 8425TIP3    H146690   1.999   5.723   2.567 -0.2384 -0.3184 -0.2144
 8425TIP3    H246691   1.997   5.638   2.442  1.1012  0.7048 -0.9359
 8426TIP3   OH246692   6.034   1.572   3.989  0.4674 -0.4044 -0.1880
 8426TIP3    H146693   6.076   1.497   3.946  0.2212 -0.8643  0.3698
 8426TIP3    H246694   5.984   1.615   3.919 -1.2797 -2.1073  0.0033
 8427TIP3   OH246695   3.115   5.015   3.062 -0.0730  0.2153  0.5747
 8427TIP3    H146696   3.045   5.059   3.110  0.5188  1.8280  0.0026
 8427TIP3    H246697   3.193   5.033   3.115  0.2638  0.3720  0.0246
 8428TIP3   OH246698   2.449   0.012  16.855 -0.0690  0.5780  0.2340
 8428TIP3    H146699   2.531   0.009  16.806 -1.1157  1.8206 -1.6392
 8428TIP3    H246700   2.426  -0.080  16.869  1.2323  0.2235  0.1111
 8429TIP3   OH246701   6.710   1.209   2.380  0.0018  0.4885 -0.1463
 8429TIP3    H146702   6.635   1.172   2.426  0.1642  0.5431  0.1597
 8429TIP3    H246703   6.780   1.211   2.444 -0.0004  1.2986 -0.1643
 8430TIP3   OH246704   2.456   5.320  11.668  0.2753  0.0298  0.0273
 8430TIP3    H146705   2.458   5.403  11.714 -0.5509 -0.5507  1.1302
 8430TIP3    H246706   2.511   5.333  11.591 -0.1805  1.7177 -0.0158
 8431TIP3   OH246707   1.424   6.209   4.972  0.3871 -0.1601 -0.3299
 8431TIP3    H146708   1.366   6.266   4.921  1.1982  0.1293 -0.9292
 8431TIP3    H246709   1.406   6.232   5.063 -0.9223 -0.5430 -0.4802
 8432TIP3   OH246710   4.493   5.236   3.460  0.1799  0.2292 -0.1584
 8432TIP3    H146711   4.540   5.221   3.378 -0.5989 -1.0358 -0.3844
 8432TIP3    H246712   4.403   5.253   3.434  0.1935  1.1400  0.3629
 8433TIP3   OH246713   0.275   2.147  10.866 -0.4762 -0.4726  0.2065
 8433TIP3    H146714   0.219   2.081  10.825 -0.7227 -0.1180 -0.0328
 8433TIP3    H246715   0.328   2.180  10.794  2.0652 -2.8064  0.9215
 8434TIP3   OH246716   5.917   3.089  13.026  0.3431 -0.0929 -0.0928
 8434TIP3    H146717   5.976   3.050  13.091 -1.9795 -2.2503  0.8137
 8434TIP3    H246718   5.959   3.071  12.942  1.3344 -0.9592  0.5737
 8435TIP3   OH246719   5.623   6.139  11.496  0.1256  0.1122  0.0447
 8435TIP3    H146720   5.561   6.176  11.432 -0.6647  1.6296  1.6358
 8435TIP3    H246721   5.570   6.126  11.575  1.3681 -0.5807  0.7753
 8436TIP3   OH246722   2.125   3.095   0.541  0.6646 -0.1629  0.3682
 8436TIP3    H146723   2.099   3.185   0.522  0.5985  0.3864  2.9778
 8436TIP3    H246724   2.085   3.044   0.470 -0.3618  1.6894 -0.4333
 8437TIP3   OH246725   3.294   3.082   4.785  0.1074  0.0489  0.4548
 8437TIP3    H146726   3.268   3.110   4.872 -1.0999  0.0476  0.0929
 8437TIP3    H246727   3.372   3.029   4.799  0.0194  0.2006  1.5123
 8438TIP3   OH246728   3.787   2.408   4.384 -0.2600  0.0066 -0.1115
 8438TIP3    H146729   3.703   2.426   4.427 -0.9730 -2.0921 -0.5697
 8438TIP3    H246730   3.801   2.314   4.397  2.4619  0.4819  0.7013
 8439TIP3   OH246731   2.201   1.739   3.791 -0.2576 -0.6984 -0.2597
 8439TIP3    H146732   2.151   1.711   3.868 -1.6935 -1.0656 -1.2984
 8439TIP3    H246733   2.273   1.790   3.827 -3.1368  2.5970  1.1355
 8440TIP3   OH246734   3.731   2.964   0.033  0.5826  0.2417 -0.8581
 8440TIP3    H146735   3.819   2.987   0.003  1.7158 -2.0426  0.5856
 8440TIP3    H246736   3.724   3.002   0.120  0.0424  0.6431 -1.0755
 8441TIP3   OH246737   2.865   1.643   0.046  0.3916 -0.0860 -0.0511
 8441TIP3    H146738   2.829   1.571   0.098  0.4002 -1.0846 -1.3949
 8441TIP3    H246739   2.791   1.672  -0.008  0.7494  0.0390 -0.4666
 8442TIP3   OH246740   3.136   1.598  12.243 -0.2006 -0.1404 -0.5865
 8442TIP3    H146741   3.052   1.621  12.203  0.0248  1.1374 -0.3697
 8442TIP3    H246742   3.179   1.683  12.257  0.0367 -0.6168  1.6866
 8443TIP3   OH246743   0.126   1.360  16.112  0.2691 -0.0968  0.5215
 8443TIP3    H146744   0.047   1.374  16.060  1.2860  0.0751 -0.9980
 8443TIP3    H246745   0.141   1.444  16.156  0.5797  0.4071 -0.5419
 8444TIP3   OH246746   6.754   1.855   5.001  0.2040  0.0446  0.5869
 8444TIP3    H146747   6.729   1.923   4.938 -2.2420  0.0221  1.4835
 8444TIP3    H246748   6.740   1.773   4.954  0.3513  0.0774  0.4839
 8445TIP3   OH246749   0.344   3.878   1.232  0.0058 -0.1001  0.5666
 8445TIP3    H146750   0.338   3.923   1.317 -0.4114 -0.1082  0.5401
 8445TIP3    H246751   0.271   3.913   1.181 -0.4120 -0.9236  0.5963
 8446TIP3   OH246752   4.861   3.402   2.585  0.1386 -0.2925  0.0089
 8446TIP3    H146753   4.885   3.393   2.677 -1.9136 -3.6115  0.2881
 8446TIP3    H246754   4.803   3.478   2.582  1.7071  0.9841  1.1077
 8447TIP3   OH246755   2.010   4.414   1.117  0.2788 -0.0154  0.0486
 8447TIP3    H146756   2.046   4.490   1.071 -0.1826  0.5884  0.6819
 8447TIP3    H246757   1.918   4.436   1.132  0.4531 -0.1604  1.3533
 8448TIP3   OH246758   6.743   0.145  10.879 -0.2698 -0.4748  0.4779
 8448TIP3    H146759   6.799   0.208  10.833  1.3571 -1.6346  0.7970
 8448TIP3    H246760   6.802   0.072  10.899 -2.1844 -2.2191 -0.1518
 8449TIP3   OH246761   0.142   6.045   5.502 -0.5258  0.0021  0.2731
 8449TIP3    H146762   0.103   6.048   5.414 -1.2293 -0.2055  0.5740
 8449TIP3    H246763   0.077   5.998   5.555  0.4236 -0.9122  0.6355
 8450TIP3   OH246764   6.047   5.362   2.599 -0.3584  0.0487 -0.2648
 8450TIP3    H146765   6.071   5.393   2.687 -0.7355 -0.9264  0.1936
 8450TIP3    H246766   6.129   5.329   2.562 -0.2870  0.0365 -0.0990
 8451TIP3   OH246767   0.963   0.617  15.825  0.1377 -0.2273  0.5744
 8451TIP3    H146768   0.936   0.700  15.786 -1.3992 -1.4017 -0.9654
 8451TIP3    H246769   1.058   0.614  15.813  0.1222  1.0229  0.0796
 8452TIP3   OH246770   0.342   3.915   6.564  0.6686  0.0626 -0.1977
 8452TIP3    H146771   0.368   3.823   6.567 -0.0710 -0.1514 -0.2905
 8452TIP3    H246772   0.292   3.923   6.483 -1.0150  0.0763  0.8057
 8453TIP3   OH246773   4.590   4.441  11.404 -0.3870  0.7784  0.3908
 8453TIP3    H146774   4.524   4.500  11.367 -0.7058  0.1937  0.0284
 8453TIP3    H246775   4.546   4.356  11.410  0.6814  0.0966 -0.9474
 8454TIP3   OH246776   0.663   0.244  11.326  0.3940  0.6889  0.2350
 8454TIP3    H146777   0.715   0.227  11.405 -1.8555  1.0971  1.8380
 8454TIP3    H246778   0.582   0.195  11.340 -0.6075  1.9206 -1.1894
 8455TIP3   OH246779   5.235   3.626  12.366 -0.0649  0.0172  0.5784
 8455TIP3    H146780   5.187   3.572  12.303  0.8593 -0.3813  0.2079
 8455TIP3    H246781   5.305   3.667  12.314  0.5743 -0.1501  1.2997
 8456TIP3   OH246782   2.198   5.218  13.831  0.1272  0.3174 -0.1248
 8456TIP3    H146783   2.113   5.197  13.793  0.2363 -0.5702  0.1016
 8456TIP3    H246784   2.176   5.261  13.914 -0.1161 -0.6911  0.3511
 8457TIP3   OH246785   6.677   6.563  15.431  0.1412  0.7810  0.6802
 8457TIP3    H146786   6.627   6.509  15.492 -0.7419  1.6728  0.7564
 8457TIP3    H246787   6.626   6.644  15.423  1.3618  1.5345  0.4413
 8458TIP3   OH246788   6.254   0.014   6.450 -0.2310 -0.3443  0.2156
 8458TIP3    H146789   6.261  -0.081   6.436 -0.7447 -0.3099 -0.2661
 8458TIP3    H246790   6.161   0.028   6.468  0.2917 -0.3281  3.1422
 8459TIP3   OH246791   4.524   3.612  13.545  0.1216  0.4883 -0.0540
 8459TIP3    H146792   4.439   3.593  13.507  0.8576  1.1089 -2.0986
 8459TIP3    H246793   4.572   3.530  13.540 -0.2560  0.2021  0.8757
 8460TIP3   OH246794   0.777   6.327  13.517  0.5047  0.0206 -0.1263
 8460TIP3    H146795   0.793   6.309  13.609 -1.1869  1.0863  0.4025
 8460TIP3    H246796   0.687   6.297  13.502  0.2785  1.1241 -1.0746
 8461TIP3   OH246797   5.053   4.297  13.998 -0.1841 -0.4404 -0.2888
 8461TIP3    H146798   5.086   4.349  14.070  0.9810  0.5747 -1.5322
 8461TIP3    H246799   4.973   4.342  13.971 -0.6159 -0.8159  0.3522
 8462TIP3   OH246800   2.173   2.553   2.312  0.5595  0.0713 -0.1219
 8462TIP3    H146801   2.200   2.556   2.220  0.8871 -1.2672 -0.0886
 8462TIP3    H246802   2.244   2.596   2.359 -0.5955  2.6804 -0.6745
 8463TIP3   OH246803   3.870   0.938  14.350 -0.1103  0.0148  0.7578
 8463TIP3    H146804   3.790   0.986  14.330 -0.5034 -0.6919  0.5883
 8463TIP3    H246805   3.932   0.964  14.282  0.7808  2.7998  2.5583
 8464TIP3   OH246806   6.329   5.166   5.674 -0.1705 -0.4142 -0.1546
 8464TIP3    H146807   6.293   5.123   5.751  2.6592 -2.9328 -0.1241
 8464TIP3    H246808   6.273   5.135   5.602 -1.7361  0.5507  0.6122
 8465TIP3   OH246809   6.143   3.367  14.979 -0.5493 -0.3329 -0.3608
 8465TIP3    H146810   6.150   3.279  14.942  0.7219 -0.1261 -0.6117
 8465TIP3    H246811   6.095   3.354  15.060  0.2298 -1.3606 -0.0480
 8466TIP3   OH246812   3.119   6.654  13.793  0.0348  0.1555 -0.4109
 8466TIP3    H146813   3.126   6.716  13.865  0.8622 -0.6097  0.1845
 8466TIP3    H246814   3.029   6.621  13.799 -0.2568  0.9371 -0.4350
 8467TIP3   OH246815   5.081   2.530   3.559  0.3580 -0.0865  0.2635
 8467TIP3    H146816   5.060   2.440   3.585  1.5191 -0.1836  0.8468
 8467TIP3    H246817   5.166   2.523   3.516  1.1498  0.9787  1.6626
 8468TIP3   OH246818   0.127   6.528  16.174 -0.1043  0.1102  0.3165
 8468TIP3    H146819   0.060   6.515  16.107 -0.0427  1.2457  0.0348
 8468TIP3    H246820   0.085   6.585  16.239 -0.2686 -1.2162  1.4151
 8469TIP3   OH246821   1.182   3.207  16.063  0.4226  0.2830  0.0846
 8469TIP3    H146822   1.220   3.166  15.985 -1.0311  0.8625 -0.9364
 8469TIP3    H246823   1.258   3.229  16.117  1.5634  1.3075 -1.8705
 8470TIP3   OH246824   1.417   4.964   5.788 -0.1770 -0.0923  0.3981
 8470TIP3    H146825   1.355   4.992   5.721 -0.9173 -0.8245  0.7750
 8470TIP3    H246826   1.394   4.873   5.806  0.6199 -0.1862  0.9743
 8471TIP3   OH246827   0.271   0.173  16.972  0.6419  0.2423  0.4042
 8471TIP3    H146828   0.293   0.239  16.907  0.7854  0.8714  1.0884
 8471TIP3    H246829   0.284   0.090  16.927 -2.0297  0.6813 -1.2605
 8472TIP3   OH246830   6.773   0.599  11.718  0.3122  0.8444  0.2774
 8472TIP3    H146831   6.700   0.624  11.775  0.2646  3.0728 -0.7257
 8472TIP3    H246832   6.800   0.681  11.676  2.3752 -0.2288 -0.5503
 8473TIP3   OH246833   6.712   3.110   4.878  0.1361  0.0987 -0.6611
 8473TIP3    H146834   6.632   3.066   4.849 -0.0307  1.5848 -2.5551
 8473TIP3    H246835   6.780   3.074   4.821  0.6081 -0.2042  0.0821
 8474TIP3   OH246836   4.572   5.256   2.930  0.3118  0.6431  0.3138
 8474TIP3    H146837   4.525   5.326   2.886 -0.6675  0.6851  1.4155
 8474TIP3    H246838   4.646   5.237   2.872 -0.1341  1.6951 -0.6177
 8475TIP3   OH246839   5.080   2.054   2.357 -0.1623 -0.2266  0.0113
 8475TIP3    H146840   5.120   2.132   2.317 -0.0345  0.6389  1.7630
 8475TIP3    H246841   5.134   2.038   2.435 -0.6298 -1.6458  0.0433
 8476TIP3   OH246842   1.070   2.399   2.497 -0.0267 -0.1303 -0.5271
 8476TIP3    H146843   1.091   2.319   2.545  0.0086 -0.8469 -1.7019
 8476TIP3    H246844   1.000   2.373   2.437 -0.9608  1.0675  0.0265
 8477TIP3   OH246845   6.540   2.218   4.954 -0.2279  0.3140 -0.4548
 8477TIP3    H146846   6.511   2.141   4.906 -1.0089  0.0352  0.4475
 8477TIP3    H246847   6.590   2.182   5.028  0.5926  0.7184 -0.8105
 8478TIP3   OH246848   4.064   6.745  14.330 -0.9250 -0.1568  0.7139
 8478TIP3    H146849   4.095   6.812  14.391 -1.7291  0.6215  0.2820
 8478TIP3    H246850   4.036   6.794  14.252  2.5016 -1.2983 -1.3481
 8479TIP3   OH246851   1.873   1.997   0.059 -0.5682 -0.2201  0.0446
 8479TIP3    H146852   1.814   2.044   0.117 -1.3091  0.4913 -1.2721
 8479TIP3    H246853   1.960   2.031   0.081 -1.0762  1.7230 -0.8086
 8480TIP3   OH246854   2.235   6.067   6.170 -0.3599 -0.0291 -0.3285
 8480TIP3    H146855   2.209   6.125   6.241 -0.1960 -1.6963  1.1221
 8480TIP3    H246856   2.329   6.083   6.160 -0.1985 -0.4544  0.4631
 8481TIP3   OH246857   2.916   2.145  12.907 -0.4724 -0.3058 -0.1368
 8481TIP3    H146858   2.903   2.222  12.963 -2.4842  0.3307 -1.4232
 8481TIP3    H246859   3.005   2.116  12.926 -0.1034  1.6368  1.2320
 8482TIP3   OH246860   6.643   1.403   5.718  0.0474 -0.1194 -0.6330
 8482TIP3    H146861   6.663   1.315   5.688  1.3419 -0.0568  0.0066
 8482TIP3    H246862   6.654   1.399   5.813  2.0797  1.2191 -0.7854
 8483TIP3   OH246863   4.763   3.712   1.055 -0.2139  0.3009  0.2169
 8483TIP3    H146864   4.856   3.707   1.076 -0.0849  2.8424  0.4238
 8483TIP3    H246865   4.719   3.686   1.136  0.3171  0.5118  0.5780
 8484TIP3   OH246866   3.729   3.894  14.478 -0.0793  0.0866 -0.3249
 8484TIP3    H146867   3.749   3.905  14.385 -1.7014 -0.4884 -0.7636
 8484TIP3    H246868   3.637   3.922  14.486 -0.5882 -1.8276  0.7030
 8485TIP3   OH246869   5.295   2.783   6.210 -0.8298 -0.5429 -0.4489
 8485TIP3    H146870   5.333   2.731   6.139 -2.2079 -2.0123 -0.1518
 8485TIP3    H246871   5.347   2.759   6.287 -0.0125  0.2513 -0.7442
 8486TIP3   OH246872   5.461   3.391  16.791 -0.1118  0.1682  0.1070
 8486TIP3    H146873   5.407   3.354  16.860 -1.4224  0.1310 -0.9167
 8486TIP3    H246874   5.442   3.338  16.714  0.4200  0.9535 -0.5776
 8487TIP3   OH246875   5.264   4.616   1.632  0.1761 -0.3372 -0.3280
 8487TIP3    H146876   5.235   4.636   1.543  0.3707 -0.0835 -0.3327
 8487TIP3    H246877   5.357   4.638   1.633  0.0946 -0.0066  0.0386
 8488TIP3   OH246878   5.656   1.654  13.084 -0.1564  0.2913  0.1146
 8488TIP3    H146879   5.630   1.596  13.013 -1.7277  0.9786  0.1099
 8488TIP3    H246880   5.656   1.598  13.162 -1.7849  0.2861  0.1333
 8489TIP3   OH246881   3.134   0.227   2.408  0.8880 -0.3081 -0.7270
 8489TIP3    H146882   3.177   0.160   2.355  1.6125  0.8825 -1.6526
 8489TIP3    H246883   3.177   0.222   2.493  0.7947 -1.1507 -0.7275
 8490TIP3   OH246884   5.191   5.895  11.644 -0.1480  0.4465  0.4337
 8490TIP3    H146885   5.230   5.982  11.630 -1.6988  1.0837 -0.0437
 8490TIP3    H246886   5.106   5.900  11.602 -0.2547 -1.3356  0.3994
 8491TIP3   OH246887   6.658   5.348   1.986 -0.9674  0.5460  0.2907
 8491TIP3    H146888   6.568   5.315   1.987 -0.6210 -0.4633 -0.7778
 8491TIP3    H246889   6.661   5.412   2.058 -2.9594  1.7551 -0.6567
 8492TIP3   OH246890   0.822   2.659   4.007  0.1156  0.0775 -0.0894
 8492TIP3    H146891   0.740   2.616   3.983  0.1392 -1.6606  2.7221
 8492TIP3    H246892   0.874   2.590   4.049  1.3060  2.1533  1.9768
 8493TIP3   OH246893   1.833   6.491  15.038  0.5333  0.6208  0.6315
 8493TIP3    H146894   1.894   6.493  14.964 -1.2638  2.4269 -0.8423
 8493TIP3    H246895   1.822   6.398  15.057  0.9555  0.1182 -1.4418
 8494TIP3   OH246896   1.672   1.911   0.403  0.5550 -0.5003 -0.3218
 8494TIP3    H146897   1.721   1.844   0.356  1.0372 -0.0723 -0.4364
 8494TIP3    H246898   1.605   1.940   0.342  0.2457 -0.9875 -0.2163
 8495TIP3   OH246899   1.384   5.216  15.843 -0.2096  0.1791 -0.3418
 8495TIP3    H146900   1.305   5.201  15.895  0.7828 -1.1501  0.8165
 8495TIP3    H246901   1.385   5.310  15.827 -1.1128  0.4449  1.0950
 8496TIP3   OH246902   1.686   6.407   2.122 -0.4437 -0.0949  0.2467
 8496TIP3    H146903   1.758   6.465   2.150 -1.3027  0.8068  0.6179
 8496TIP3    H246904   1.644   6.381   2.204 -2.9356  2.4965 -0.1377
 8497TIP3   OH246905   4.684   4.455   5.904 -0.6914 -0.0767 -0.6248
 8497TIP3    H146906   4.618   4.387   5.893 -1.0563 -0.4077  2.9411
 8497TIP3    H246907   4.636   4.537   5.887 -1.5289 -0.4206  0.0268
 8498TIP3   OH246908   0.609   6.786   6.562 -0.2801 -0.2526 -0.1063
 8498TIP3    H146909   0.552   6.828   6.627  1.0831  1.9007 -0.2615
 8498TIP3    H246910   0.686   6.759   6.611 -1.1943 -2.8001  0.0197
 8499TIP3   OH246911   0.170   4.502   0.033  0.0624  0.1193  0.5666
 8499TIP3    H146912   0.152   4.462  -0.052  0.9973 -1.5386  1.1203
 8499TIP3    H246913   0.266   4.509   0.036 -0.0409  1.3763  0.9466
 8500TIP3   OH246914   1.022   4.563  14.203 -0.2010  0.1607  0.0637
 8500TIP3    H146915   0.975   4.541  14.283 -0.6424 -1.1210 -0.5290
 8500TIP3    H246916   1.006   4.656  14.191  0.8911  0.6355  2.1234
 8501TIP3   OH246917   2.222   2.120   5.538 -0.1713 -0.1357  0.3213
 8501TIP3    H146918   2.181   2.200   5.572  0.0531  1.2356 -2.4551
 8501TIP3    H246919   2.162   2.090   5.469  1.1820 -0.7080 -0.6352
 8502TIP3   OH246920   1.270   6.539   4.924  0.4160 -0.4871  0.6851
 8502TIP3    H146921   1.214   6.463   4.907 -3.2315  2.1425  0.2554
 8502TIP3    H246922   1.261   6.555   5.018 -1.6415  1.3975  0.2159
 8503TIP3   OH246923   6.787   2.099  14.610  0.0454  0.6065 -0.0041
 8503TIP3    H146924   6.717   2.051  14.565  2.4926  0.2669 -3.5459
 8503TIP3    H246925   6.783   2.187  14.574  0.7845  0.8917  0.6053
 8504TIP3   OH246926   1.523   0.307  16.381  0.2848 -0.1293 -0.2490
 8504TIP3    H146927   1.484   0.393  16.363  0.4727 -0.1190 -0.6153
 8504TIP3    H246928   1.449   0.248  16.390  0.0810  0.3788  1.6494
 8505TIP3   OH246929   2.977   2.900   2.473  0.0013 -0.0198  0.3842
 8505TIP3    H146930   2.913   2.837   2.508 -0.3233  0.1389  0.0870
 8505TIP3    H246931   3.058   2.850   2.464 -0.7869 -0.9686 -1.8013
 8506TIP3   OH246932   6.352   0.504   3.554 -0.2846  0.5907 -0.0903
 8506TIP3    H146933   6.352   0.416   3.515 -0.6890 -0.1110  1.4414
 8506TIP3    H246934   6.277   0.548   3.514 -1.5312 -0.5891  0.8832
 8507TIP3   OH246935   3.793   1.522   6.212 -0.4093  0.3226 -0.0683
 8507TIP3    H146936   3.867   1.580   6.228  0.5031 -1.1832  1.3456
 8507TIP3    H246937   3.719   1.564   6.258  0.0707  0.7313  0.3339
 8508TIP3   OH246938   2.981   3.201   4.984  0.4406  0.5375 -0.0321
 8508TIP3    H146939   2.938   3.161   5.060 -0.7965  1.7637 -0.0592
 8508TIP3    H246940   3.074   3.183   4.996  0.1197 -0.3876  1.1100
 8509TIP3   OH246941   3.260   0.796   3.027  0.1232 -0.0343  0.2599
 8509TIP3    H146942   3.200   0.722   3.020  0.5518 -0.2907 -0.7166
 8509TIP3    H246943   3.210   0.871   2.996 -0.1611  0.0099  0.8185
 8510TIP3   OH246944   3.702   2.277  11.656  0.3574  0.3531 -0.5572
 8510TIP3    H146945   3.795   2.299  11.666  0.8641 -0.3334 -3.2581
 8510TIP3    H246946   3.688   2.276  11.562 -1.9483 -1.4085 -0.2460
 8511TIP3   OH246947   6.368   1.154   1.253  0.2836 -0.2936  0.3268
 8511TIP3    H146948   6.420   1.077   1.229  1.2404  0.3765  0.2375
 8511TIP3    H246949   6.424   1.204   1.312 -0.1656  0.5614  0.0380
 8512TIP3   OH246950   6.034   2.606  13.170 -0.1527  0.5917 -0.3979
 8512TIP3    H146951   5.955   2.627  13.219  0.9545  1.5119  1.0130
 8512TIP3    H246952   6.003   2.590  13.081 -2.2565 -1.6195  0.6717
 8513TIP3   OH246953   1.231   3.236  11.351 -0.5374 -0.4646  0.0841
 8513TIP3    H146954   1.276   3.165  11.305 -0.0096  1.1109 -1.8931
 8513TIP3    H246955   1.176   3.276  11.284  0.0917  1.7569  0.8569
 8514TIP3   OH246956   4.003   3.267   5.151  0.1874  0.4505 -0.0717
 8514TIP3    H146957   3.924   3.244   5.199 -0.5986  1.2266 -0.9752
 8514TIP3    H246958   4.055   3.319   5.213 -0.8024  1.4174 -0.0534
 8515TIP3   OH246959   3.980   0.583  13.028  0.2250 -0.1195  0.0142
 8515TIP3    H146960   3.979   0.640  12.951 -1.2390 -0.4408 -0.2225
 8515TIP3    H246961   3.937   0.635  13.096  0.3309 -0.3351  0.2463
 8516TIP3   OH246962   2.121   6.401  12.491 -0.0818  0.1082 -0.1625
 8516TIP3    H146963   2.064   6.425  12.564 -1.0683 -0.3731 -0.7518
 8516TIP3    H246964   2.206   6.385  12.531 -0.2776  1.1456  0.6961
 8517TIP3   OH246965   1.147   3.643   0.381  0.4750 -0.0324  0.1734
 8517TIP3    H146966   1.168   3.575   0.317  0.1808 -0.5890  0.6560
 8517TIP3    H246967   1.212   3.632   0.450  1.1571  0.9488 -0.2977
 8518TIP3   OH246968   2.449   0.169  13.199 -0.0042 -0.0272  0.7191
 8518TIP3    H146969   2.384   0.231  13.166  0.2068 -0.0863  0.1785
 8518TIP3    H246970   2.428   0.086  13.157 -0.8924 -0.5779  2.2129
 8519TIP3   OH246971   4.884   2.182   4.392 -0.3583 -0.0264  0.6214
 8519TIP3    H146972   4.816   2.188   4.325 -1.1318 -0.4260  1.3509
 8519TIP3    H246973   4.900   2.272   4.419 -0.6426  0.0627  0.4935
 8520TIP3   OH246974   5.627   3.609  11.979  0.2562 -0.2164  0.4252
 8520TIP3    H146975   5.670   3.693  11.960  0.8310 -0.4979  0.4685
 8520TIP3    H246976   5.698   3.546  11.981 -0.1898 -0.7218  0.3242
 8521TIP3   OH246977   5.164   4.958  10.955 -0.2601 -0.0470 -0.1900
 8521TIP3    H146978   5.192   5.039  10.999 -0.7838  1.2255 -2.1405
 8521TIP3    H246979   5.071   4.972  10.936  0.0090 -0.4371 -1.9083
 8522TIP3   OH246980   3.857   4.384   4.955  0.3124  0.2193 -0.3088
 8522TIP3    H146981   3.790   4.360   5.020  1.5671  0.6365  1.1570
 8522TIP3    H246982   3.932   4.329   4.978  0.8071  0.4669 -1.3440
 8523TIP3   OH246983   6.721   2.698  16.812  0.8030 -0.0393  0.4053
 8523TIP3    H146984   6.713   2.605  16.830 -0.2660 -0.2934 -1.1918
 8523TIP3    H246985   6.631   2.726  16.793  1.2995  1.0010 -0.4832
 8524TIP3   OH246986   4.703   1.450  13.451 -0.0591 -0.1593  0.2303
 8524TIP3    H146987   4.719   1.506  13.526 -0.8295 -0.4359  0.6121
 8524TIP3    H246988   4.723   1.504  13.375 -1.7851  0.9703  0.5587
 8525TIP3   OH246989   3.175   2.803  12.839 -0.1034  0.0383 -0.1870
 8525TIP3    H146990   3.196   2.744  12.767 -0.0616 -0.0689 -0.0882
 8525TIP3    H246991   3.098   2.851  12.809 -1.8237 -2.0065  0.8107
 8526TIP3   OH246992   4.817   5.338   0.376 -0.1280 -0.0939 -0.2379
 8526TIP3    H146993   4.890   5.278   0.360  0.2139  0.6333 -1.4256
 8526TIP3    H246994   4.857   5.425   0.375 -0.7936  0.2271  0.4492
 8527TIP3   OH246995   2.690   1.915   2.418  0.7788 -0.1693  0.2820
 8527TIP3    H146996   2.649   1.878   2.496 -0.0813 -0.0137 -0.0910
 8527TIP3    H246997   2.643   1.875   2.345  0.6198  0.7825 -0.1401
 8528TIP3   OH246998   0.824   3.665  10.638 -0.2251 -0.0401 -0.1521
 8528TIP3    H146999   0.890   3.649  10.571 -2.5438  0.2076 -2.5924
 8528TIP3    H247000   0.812   3.579  10.680 -0.2247 -0.6924 -1.4503
 8529TIP3   OH247001   0.066   2.179  13.428 -0.6794  0.5810  0.4167
 8529TIP3    H147002   0.153   2.212  13.406 -1.0731 -0.3216 -2.7478
 8529TIP3    H247003   0.009   2.255  13.421 -0.3137  0.9633  1.5031
 8530TIP3   OH247004   2.314   6.676   1.685 -0.4319  0.4260 -0.4394
 8530TIP3    H147005   2.396   6.723   1.698 -0.2595 -0.5329  2.1111
 8530TIP3    H247006   2.264   6.691   1.765 -2.0350 -0.4626 -1.2355
 8531TIP3   OH247007   1.976   1.141  17.211 -0.0503 -0.3374 -0.0554
 8531TIP3    H147008   2.057   1.174  17.172 -0.0215  0.8561  0.9782
 8531TIP3    H247009   1.907   1.179  17.158  0.0501 -1.6050 -1.1297
 8532TIP3   OH247010   6.625   5.019  11.822 -0.2334  0.0484 -0.0219
 8532TIP3    H147011   6.625   4.923  11.816 -1.5434  0.0141  0.4190
 8532TIP3    H247012   6.571   5.039  11.898  2.4470  1.0680  1.6824
 8533TIP3   OH247013   4.324   3.306  11.738  0.4249 -0.3886 -0.0015
 8533TIP3    H147014   4.361   3.394  11.742 -0.5091  0.1048 -1.9066
 8533TIP3    H247015   4.394   3.252  11.702  0.4273 -0.1015 -0.4299
 8534TIP3   OH247016   2.046   6.159   1.036 -0.1705  0.5643  0.1779
 8534TIP3    H147017   1.981   6.222   1.068 -1.2821  0.0287 -0.9717
 8534TIP3    H247018   2.012   6.074   1.064  1.2490  0.4407  1.5935
 8535TIP3   OH247019   5.392   4.626   5.517 -0.2220 -0.6248  0.8144
 8535TIP3    H147020   5.389   4.557   5.582 -2.9822 -0.1523  1.2410
 8535TIP3    H247021   5.389   4.580   5.433 -1.2915 -1.0692  1.0869
 8536TIP3   OH247022   4.351   5.944   1.874 -0.5992  0.1154 -0.4930
 8536TIP3    H147023   4.291   5.908   1.809 -0.5764 -1.3675  0.2686
 8536TIP3    H247024   4.438   5.928   1.838 -0.5715 -1.1831  0.1265
 8537TIP3   OH247025   4.075   0.326   6.199 -0.1437 -0.4381 -0.5469
 8537TIP3    H147026   4.107   0.244   6.162 -0.6415 -0.5250 -0.7967
 8537TIP3    H247027   4.154   0.378   6.215  0.1546 -0.8608 -0.6374
 8538TIP3   OH247028   5.432   3.363  15.048 -0.1153  0.0955  0.0382
 8538TIP3    H147029   5.479   3.308  14.986  0.0668 -0.7821  0.9394
 8538TIP3    H247030   5.365   3.306  15.086 -1.0813  0.9785 -0.2961
 8539TIP3   OH247031   2.307   1.953   1.712  0.1241 -0.1378  0.6275
 8539TIP3    H147032   2.235   1.947   1.649 -1.1148 -0.9760  2.0862
 8539TIP3    H247033   2.386   1.934   1.660 -0.8408 -0.5401 -0.7160
 8540TIP3   OH247034   2.673   1.788  16.861 -0.3653 -0.1858  0.8081
 8540TIP3    H147035   2.711   1.758  16.778 -0.2374 -0.3928  0.9408
 8540TIP3    H247036   2.582   1.758  16.857 -0.2126 -0.6759  0.9792
 8541TIP3   OH247037   4.921   5.356  15.602  0.3657 -0.1319  0.0132
 8541TIP3    H147038   4.882   5.308  15.675 -2.2593  1.0351 -0.5758
 8541TIP3    H247039   4.912   5.297  15.527  0.2784 -0.0917 -0.0070
 8542TIP3   OH247040   2.621   5.213  15.618 -0.0058  0.1465  0.6512
 8542TIP3    H147041   2.713   5.192  15.603 -0.1470 -0.6568  0.8854
 8542TIP3    H247042   2.574   5.165  15.549 -0.1848  1.3144 -0.0709
 8543TIP3   OH247043   4.280   3.284  13.309 -0.2463  0.8208  0.7138
 8543TIP3    H147044   4.279   3.290  13.405  1.5780  2.0386  0.6667
 8543TIP3    H247045   4.351   3.341  13.282  0.4142 -0.8873 -1.2797
 8544TIP3   OH247046   1.959   5.902   5.458 -0.0637  0.1585 -0.1703
 8544TIP3    H147047   1.959   5.812   5.491  1.7379 -0.2187 -1.1433
 8544TIP3    H247048   2.051   5.929   5.464 -0.3989  1.5061 -1.0411
 8545TIP3   OH247049   2.241   0.259  14.806  0.5360  0.0162  0.1903
 8545TIP3    H147050   2.241   0.353  14.824 -0.6752  0.0005  0.3426
 8545TIP3    H247051   2.327   0.242  14.767  0.8407  1.1490  0.3411
 8546TIP3   OH247052   2.048   5.645  13.495  0.6443  0.3843 -0.1496
 8546TIP3    H147053   2.049   5.579  13.425  1.4111 -0.4381  0.6198
 8546TIP3    H247054   1.960   5.639  13.532 -0.0132  1.3698 -1.5523
 8547TIP3   OH247055   3.224   4.274   4.553 -0.1295 -0.0301 -0.3210
 8547TIP3    H147056   3.157   4.338   4.579  1.2817  1.5141 -0.4362
 8547TIP3    H247057   3.307   4.320   4.562  0.8212 -1.3797 -1.8463
 8548TIP3   OH247058   4.783   6.706  14.230  0.3981  0.2507  0.1165
 8548TIP3    H147059   4.787   6.610  14.229  1.6698  0.2625  1.4238
 8548TIP3    H247060   4.806   6.730  14.320  0.0150  1.7823 -0.1764
 8549TIP3   OH247061   2.363   4.010   4.640 -0.7246  0.4570  0.3104
 8549TIP3    H147062   2.354   3.938   4.702 -1.3243 -0.6077 -0.9681
 8549TIP3    H247063   2.455   4.009   4.614 -0.2297  1.5748  1.9374
 8550TIP3   OH247064   3.925   1.409   3.777 -0.1384 -0.1479 -0.4009
 8550TIP3    H147065   3.874   1.485   3.805  0.4761 -0.4444  1.6190
 8550TIP3    H247066   3.930   1.354   3.855 -0.4161 -2.1847 -1.7906
 8551TIP3   OH247067   5.811   2.169   1.230  0.0147 -0.1479  0.2020
 8551TIP3    H147068   5.873   2.117   1.281 -0.2624  0.6733  1.3958
 8551TIP3    H247069   5.754   2.104   1.189  0.6288 -0.8431  0.4440
 8552TIP3   OH247070   5.292   0.531  16.977 -0.2564  0.1623  0.1667
 8552TIP3    H147071   5.381   0.559  16.956 -0.4712  0.4164 -0.4102
 8552TIP3    H247072   5.286   0.542  17.072  0.7000 -0.9582  0.3611
 8553TIP3   OH247073   2.028   6.077   2.268 -0.3363 -0.4665  0.4327
 8553TIP3    H147074   1.979   6.141   2.217 -0.0946 -0.0467  0.7265
 8553TIP3    H247075   2.085   6.034   2.205 -0.7651 -0.6504  0.1677
 8554TIP3   OH247076   3.708   2.017   4.037 -0.1607 -0.5868 -0.3692
 8554TIP3    H147077   3.650   1.992   3.965 -0.9475  0.7385 -0.2099
 8554TIP3    H247078   3.723   1.936   4.085 -2.4525 -0.8245 -0.0037
 8555TIP3   OH247079   1.486   0.663  11.480 -0.1809  0.3783  0.1860
 8555TIP3    H147080   1.501   0.716  11.402 -2.1065  2.7123  1.3357
 8555TIP3    H247081   1.569   0.667  11.528  0.4138  0.4550 -0.8343
 8556TIP3   OH247082   0.190   2.537   3.672 -0.4605 -0.1215  0.0623
 8556TIP3    H147083   0.260   2.476   3.649 -1.0575 -1.1293  0.8189
 8556TIP3    H247084   0.166   2.512   3.762 -0.9801  0.9775  0.2323
 8557TIP3   OH247085   0.317   1.687  11.521  0.3568 -0.2347 -0.7454
 8557TIP3    H147086   0.246   1.748  11.502  2.1347  1.7527 -1.0962
 8557TIP3    H247087   0.325   1.688  11.616  0.8870  0.6586 -0.8004
 8558TIP3   OH247088   4.582   1.472   4.109 -0.0550  0.2131 -0.2545
 8558TIP3    H147089   4.560   1.565   4.118  1.0225  0.4926 -0.4204
 8558TIP3    H247090   4.539   1.445   4.027 -1.1084  0.3299  0.2485
 8559TIP3   OH247091   1.322   5.162  14.705  0.0793  0.0937  0.0823
 8559TIP3    H147092   1.359   5.156  14.616 -0.1435  1.1833 -0.0879
 8559TIP3    H247093   1.338   5.253  14.731 -0.0137 -0.1837  1.0937
 8560TIP3   OH247094   4.320   4.227  12.632 -0.2672 -0.3933  0.5431
 8560TIP3    H147095   4.381   4.251  12.562 -0.3493  1.0782  0.9501
 8560TIP3    H247096   4.369   4.241  12.713 -0.9956  0.3892  0.8560
 8561TIP3   OH247097   4.427   3.208   4.970 -0.1207  0.0992 -0.1550
 8561TIP3    H147098   4.410   3.172   5.057 -0.9290 -1.1172 -0.7979
 8561TIP3    H247099   4.522   3.213   4.964 -0.0776  0.9986  1.1180
 8562TIP3   OH247100   1.646   3.169  13.690  0.0728  0.2174 -0.1501
 8562TIP3    H147101   1.716   3.112  13.720  0.2438  0.0466 -0.8584
 8562TIP3    H247102   1.633   3.231  13.761  1.0255  0.3261 -0.0678
 8563TIP3   OH247103   3.740   1.669  13.949 -0.1688 -0.4195  0.1256
 8563TIP3    H147104   3.786   1.688  13.867 -1.3267 -0.4163 -0.5403
 8563TIP3    H247105   3.806   1.630  14.005  0.9176  0.5997 -0.4196
 8564TIP3   OH247106   1.087   6.675   4.481  0.0236  0.4358  0.2616
 8564TIP3    H147107   0.995   6.682   4.510 -0.8126  4.2601 -2.8271
 8564TIP3    H247108   1.091   6.594   4.432 -1.6110  0.0024  0.8076
 8565TIP3   OH247109   0.553   1.098   4.683  0.1861  0.7060 -0.3977
 8565TIP3    H147110   0.584   1.091   4.773  0.2755 -0.7112 -0.5318
 8565TIP3    H247111   0.625   1.062   4.630 -0.9480 -0.9339 -0.8350
 8566TIP3   OH247112   1.144   0.742   4.470  0.3303 -0.1757  0.3291
 8566TIP3    H147113   1.083   0.813   4.491  0.6595 -0.2067  1.4324
 8566TIP3    H247114   1.221   0.786   4.436 -0.2336 -0.1242 -0.8972
 8567TIP3   OH247115   2.123   5.876   0.458  0.1406  0.0061  0.5569
 8567TIP3    H147116   2.185   5.873   0.531  1.5723  1.2616 -0.5544
 8567TIP3    H247117   2.179   5.883   0.380 -1.3619 -0.8804 -0.6383
 8568TIP3   OH247118   0.263   1.801   3.367  0.1442 -0.5993 -0.4952
 8568TIP3    H147119   0.343   1.760   3.333 -0.4082 -0.8336 -1.5284
 8568TIP3    H247120   0.270   1.893   3.341  0.4797 -0.4303  0.1707
 8569TIP3   OH247121   3.857   0.016   0.034  0.2016  0.3655  0.0781
 8569TIP3    H147122   3.776  -0.035   0.030  1.0524 -0.9585 -1.1693
 8569TIP3    H247123   3.922  -0.045   0.071  0.7865  1.1517  0.3518
 8570TIP3   OH247124   5.645   2.491  15.156 -0.2177 -0.0551 -0.6897
 8570TIP3    H147125   5.734   2.520  15.179 -0.1854  0.0794 -0.9758
 8570TIP3    H247126   5.599   2.572  15.135  0.1504 -0.2819 -2.4614
 8571TIP3   OH247127   5.355   0.302  14.502  0.3263  0.2207 -0.3204
 8571TIP3    H147128   5.292   0.336  14.438  1.3850 -2.5342 -2.9326
 8571TIP3    H247129   5.437   0.347  14.482  0.5875 -0.4319 -0.7456
 8572TIP3   OH247130   3.441   5.904   2.061  0.1395 -0.3789 -0.5363
 8572TIP3    H147131   3.487   5.979   2.099  0.7702 -1.1142  0.1645
 8572TIP3    H247132   3.415   5.851   2.136  2.1206 -2.2785 -1.1407
 8573TIP3   OH247133   4.861   0.924  11.422 -0.0339  0.0555 -0.4363
 8573TIP3    H147134   4.921   0.947  11.493  0.3577 -0.1387 -0.7017
 8573TIP3    H247135   4.875   0.991  11.356 -2.0992  1.6053  0.6407
 8574TIP3   OH247136   1.014   5.096   2.366  0.7296  0.4544  0.1627
 8574TIP3    H147137   1.057   5.108   2.451 -1.8669  1.0870  1.4366
 8574TIP3    H247138   0.932   5.051   2.387 -0.3985  1.4891 -1.8788
 8575TIP3   OH247139   4.644   1.961  15.075 -0.3457  0.3723 -0.3783
 8575TIP3    H147140   4.722   1.990  15.028 -0.0324  1.0868  0.5714
 8575TIP3    H247141   4.608   1.890  15.022  0.9504  0.0487 -0.8197
 8576TIP3   OH247142   6.585   2.666   0.967  0.4793  0.1595 -0.4693
 8576TIP3    H147143   6.536   2.737   1.008  0.2616  0.5417 -1.3831
 8576TIP3    H247144   6.665   2.659   1.020  0.8177  1.5405 -0.7720
 8577TIP3   OH247145   0.196   4.133  15.196 -0.2516  0.0056 -0.1469
 8577TIP3    H147146   0.191   4.065  15.130  1.5859  0.4397 -0.7627
 8577TIP3    H247147   0.145   4.206  15.159  0.0092 -0.0780 -0.6771
 8578TIP3   OH247148   1.852   1.005  13.838  0.3815 -0.1456  0.5294
 8578TIP3    H147149   1.864   1.068  13.909 -1.5925  0.8679 -0.0075
 8578TIP3    H247150   1.781   0.948  13.868  1.7942 -1.8148  0.7811
 8579TIP3   OH247151   5.804   3.715  15.949  0.2597 -0.2713  0.1409
 8579TIP3    H147152   5.792   3.792  16.004 -0.0723  1.7825 -2.7002
 8579TIP3    H247153   5.820   3.750  15.862 -1.1558 -3.4487 -1.4752
 8580TIP3   OH247154   3.583   5.781  11.854  0.3205 -0.1974 -0.3876
 8580TIP3    H147155   3.614   5.742  11.936  1.7722 -1.1201 -1.3450
 8580TIP3    H247156   3.659   5.829  11.821  0.4233 -1.5818 -2.2288
 8581TIP3   OH247157   4.554   2.027   0.854 -0.2933  0.3459 -0.7463
 8581TIP3    H147158   4.541   2.113   0.893 -0.5108 -0.3573  0.7763
 8581TIP3    H247159   4.477   1.976   0.882 -0.3267 -0.2477 -1.8899
 8582TIP3   OH247160   2.102   0.491   1.584 -0.0633  0.1097 -0.5997
 8582TIP3    H147161   2.106   0.402   1.548  0.6517  0.1893 -0.7134
 8582TIP3    H247162   2.075   0.545   1.510 -0.1983  0.0304 -0.6082
 8583TIP3   OH247163   6.731   0.883  16.391  0.1587 -0.0058 -0.1085
 8583TIP3    H147164   6.678   0.804  16.393  0.4143 -0.1987 -0.8336
 8583TIP3    H247165   6.702   0.931  16.314  0.5574  0.2152 -0.1278
 8584TIP3   OH247166   4.643   5.205   4.486 -0.4410 -0.3066 -0.2075
 8584TIP3    H147167   4.670   5.254   4.564  0.6267  1.1008 -1.4493
 8584TIP3    H247168   4.710   5.137   4.477  0.6191  0.8410 -1.1022
 8585TIP3   OH247169   5.473   3.463  13.288  0.0803 -0.0429  0.4384
 8585TIP3    H147170   5.557   3.490  13.251 -0.4593 -0.5227 -1.1715
 8585TIP3    H247171   5.484   3.369  13.306 -0.1179 -0.1094  0.2108
 8586TIP3   OH247172   4.288   2.333   0.924 -0.2978 -0.6564  0.4314
 8586TIP3    H147173   4.375   2.341   0.964 -0.4044  0.9313  0.4031
 8586TIP3    H247174   4.303   2.287   0.842  0.7996  1.0808 -0.3818
 8587TIP3   OH247175   1.322   0.248  14.652 -0.3801  0.5520  0.2656
 8587TIP3    H147176   1.406   0.288  14.628  2.4793 -3.2326  3.0398
 8587TIP3    H247177   1.303   0.283  14.739 -0.0395 -0.8060  0.9104
 8588TIP3   OH247178   1.709   5.213   5.708  0.0390  0.5310  0.1159
 8588TIP3    H147179   1.711   5.308   5.713  1.7239  0.4040  2.4764
 8588TIP3    H247180   1.801   5.187   5.704 -0.4169 -0.9968 -0.7749
 8589TIP3   OH247181   0.476   4.538  16.791  0.4142  0.4841  0.0529
 8589TIP3    H147182   0.433   4.472  16.737  0.0075  1.1461 -0.4467
 8589TIP3    H247183   0.531   4.587  16.730  2.0405 -0.4690  0.7207
 8590TIP3   OH247184   6.333   2.313   0.870  0.4900 -0.2629 -0.1938
 8590TIP3    H147185   6.330   2.359   0.786  0.0556  0.1227  0.0286
 8590TIP3    H247186   6.405   2.354   0.918  1.3461 -1.1085 -0.7285
 8591TIP3   OH247187   2.675   0.953   4.698 -0.1509  0.1795  0.0229
 8591TIP3    H147188   2.638   0.869   4.670  0.1275 -0.1142  0.5360
 8591TIP3    H247189   2.632   1.017   4.642 -1.9758 -0.0900  1.0939
 8592TIP3   OH247190   3.141   2.459  14.706  0.1076  0.6605 -0.1626
 8592TIP3    H147191   3.146   2.383  14.763 -1.0969  0.2983 -0.5271
 8592TIP3    H247192   3.049   2.485  14.708  0.3130  1.4747 -0.8559
 8593TIP3   OH247193   4.302   6.378   0.386 -0.6102  0.0738  0.4842
 8593TIP3    H147194   4.335   6.289   0.398 -0.0836  0.1844 -0.0842
 8593TIP3    H247195   4.359   6.433   0.438 -1.1759  0.0386  1.1469
 8594TIP3   OH247196   5.322   0.177   1.679  0.1955  0.0819  0.2284
 8594TIP3    H147197   5.291   0.155   1.591 -1.5410  1.1177  0.5745
 8594TIP3    H247198   5.363   0.096   1.710 -1.1563 -0.9728 -0.6756
 8595TIP3   OH247199   5.206   3.953  11.704  0.1889 -0.1989  0.0567
 8595TIP3    H147200   5.168   3.913  11.782 -0.0868 -0.6056 -0.2778
 8595TIP3    H247201   5.240   4.037  11.733 -2.7889  1.1204 -0.0145
 8596TIP3   OH247202   4.732   2.235   0.598  0.1731  0.3810 -0.4959
 8596TIP3    H147203   4.754   2.145   0.573 -0.3620  0.0276  0.2981
 8596TIP3    H247204   4.769   2.246   0.685  1.1332  1.2743 -1.0065
 8597TIP3   OH247205   3.121   3.648   5.919  0.2899  0.4292  0.0489
 8597TIP3    H147206   3.052   3.626   5.982  0.5813 -0.5381  0.0380
 8597TIP3    H247207   3.137   3.741   5.933 -1.1255  0.6946 -0.0525
 8598TIP3   OH247208   4.006   4.145   0.806  0.3357  0.2457  0.2931
 8598TIP3    H147209   3.998   4.117   0.715 -0.6886  1.2551  0.0722
 8598TIP3    H247210   4.014   4.240   0.802  0.5323  0.2777  1.2486
 8599TIP3   OH247211   0.124   3.417  13.059 -0.0215  0.1543 -0.2639
 8599TIP3    H147212   0.169   3.372  13.130 -2.5409 -0.6315  0.9163
 8599TIP3    H247213   0.036   3.380  13.060 -0.7008  1.6112 -2.4903
 8600TIP3   OH247214   4.390   3.628  15.312  0.4535  0.4611 -0.1639
 8600TIP3    H147215   4.477   3.595  15.331  1.0650  1.6326 -0.8700
 8600TIP3    H247216   4.373   3.600  15.221 -1.1441 -2.3387  0.9148
 8601TIP3   OH247217   4.472   1.829   6.145  0.5388  0.4564  0.2894
 8601TIP3    H147218   4.386   1.804   6.178 -0.0168  0.6856 -0.9405
 8601TIP3    H247219   4.523   1.748   6.147  0.5023  0.4518  1.6131
 8602TIP3   OH247220   2.151   0.265   1.385 -0.0981  0.5977  0.1187
 8602TIP3    H147221   2.145   0.313   1.303 -1.4458 -0.2403 -0.2787
 8602TIP3    H247222   2.165   0.174   1.359 -0.8036  0.2841  0.8143
 8603TIP3   OH247223   4.850   1.350  16.528 -0.5596 -0.4173 -0.0998
 8603TIP3    H147224   4.875   1.351  16.620 -0.6313  0.6615 -0.0915
 8603TIP3    H247225   4.881   1.434  16.494 -1.2439 -0.4777 -0.8703
 8604TIP3   OH247226   2.887   1.513   3.744 -0.0120 -0.5292  0.3725
 8604TIP3    H147227   2.957   1.480   3.800  2.3777  2.0707 -0.9733
 8604TIP3    H247228   2.824   1.552   3.804  1.4409  0.2851  1.3835
 8605TIP3   OH247229   0.110   4.114   3.295 -0.5493  0.3429  0.0485
 8605TIP3    H147230   0.142   4.203   3.280 -1.3112  0.4262 -1.1233
 8605TIP3    H247231   0.082   4.083   3.209  1.9210 -1.9379 -0.0276
 8606TIP3   OH247232   3.609   1.568   1.150 -0.0669  0.0648 -0.1771
 8606TIP3    H147233   3.588   1.537   1.238  1.6145  0.2056  0.2904
 8606TIP3    H247234   3.614   1.488   1.097 -1.3600  0.0022 -0.2137
 8607TIP3   OH247235   5.373   0.002   3.450 -0.2096 -0.2818  0.0222
 8607TIP3    H147236   5.453  -0.012   3.400  0.4957  1.8603  0.4990
 8607TIP3    H247237   5.394  -0.029   3.538  0.2217  0.5618  0.2255
 8608TIP3   OH247238   1.272   5.057  12.819 -0.1376  0.5874  0.4650
 8608TIP3    H147239   1.222   4.977  12.835  0.7771 -0.0325  0.2545
 8608TIP3    H247240   1.205   5.125  12.806 -0.9287 -0.3351 -0.3665
 8609TIP3   OH247241   3.857   2.403   0.290  0.2061 -0.0218 -0.2152
 8609TIP3    H147242   3.764   2.420   0.273  0.1689  0.4021  0.3838
 8609TIP3    H247243   3.901   2.434   0.211 -0.3337 -2.2743 -1.4503
 8610TIP3   OH247244   1.077   3.159  14.211 -0.1722 -0.0351  0.1933
 8610TIP3    H147245   1.154   3.114  14.244 -0.3354  0.3340  1.0996
 8610TIP3    H247246   1.110   3.213  14.139  1.1462  2.8956  2.8234
 8611TIP3   OH247247   4.741   1.639  17.043  0.3531  0.2582  0.3722
 8611TIP3    H147248   4.660   1.668  17.085 -0.5458 -0.3675 -0.8914
 8611TIP3    H247249   4.784   1.584  17.109  0.0302  1.0459  1.2470
 8612TIP3   OH247250   4.398   4.936  12.759  0.6165 -0.4696 -0.3396
 8612TIP3    H147251   4.492   4.956  12.757 -0.0172  2.8043  0.2466
 8612TIP3    H247252   4.375   4.934  12.852 -0.2341  0.3742 -0.5292
 8613TIP3   OH247253   5.978   6.544  15.469  0.1942  0.5955 -0.5612
 8613TIP3    H147254   5.885   6.569  15.464 -0.3220 -1.0424  0.4834
 8613TIP3    H247255   6.006   6.576  15.555  0.0828 -0.5745 -0.0854
 8614TIP3   OH247256   5.104   4.146   4.733 -0.3412 -0.3970  0.3155
 8614TIP3    H147257   5.165   4.125   4.662 -0.7708 -1.5356  0.2606
 8614TIP3    H247258   5.019   4.151   4.690 -0.2992  1.1052  0.4066
 8615TIP3   OH247259   4.875   2.311  13.593  0.1585  0.5183  0.5128
 8615TIP3    H147260   4.877   2.403  13.616  2.0584  0.0019  2.5393
 8615TIP3    H247261   4.792   2.279  13.627 -0.3066  1.3661  0.1832
 8616TIP3   OH247262   2.407   4.961   0.663 -0.1235 -0.2848 -0.1912
 8616TIP3    H147263   2.476   5.014   0.702  0.1733 -0.6017 -0.2827
 8616TIP3    H247264   2.453   4.890   0.618 -0.5483 -1.2384  0.8285
 8617TIP3   OH247265   5.587   0.911  14.626  0.4383  0.0446 -0.1047
 8617TIP3    H147266   5.527   0.941  14.694 -1.2283  0.9148 -1.8839
 8617TIP3    H247267   5.608   0.991  14.577  2.6858 -0.3390  0.1779
 8618TIP3   OH247268   4.210   5.569  15.323  0.3547 -0.5451 -0.3667
 8618TIP3    H147269   4.155   5.626  15.378  2.1971  0.6237  0.3008
 8618TIP3    H247270   4.203   5.483  15.365 -2.2364 -0.8209 -1.2282
 8619TIP3   OH247271   5.455   2.415   2.122 -0.3702  0.1593 -0.5876
 8619TIP3    H147272   5.386   2.478   2.105 -0.9128  0.1396  1.3738
 8619TIP3    H247273   5.521   2.432   2.055 -0.7430  2.4412 -0.4041
 8620TIP3   OH247274   1.341   4.839   2.849 -0.6423 -0.0894 -0.4093
 8620TIP3    H147275   1.411   4.897   2.817 -1.4397  0.8521 -0.4634
 8620TIP3    H247276   1.359   4.830   2.943 -1.0332  0.9943 -0.2192
 8621TIP3   OH247277   5.759   2.155  16.960  0.0133  0.0229 -0.1189
 8621TIP3    H147278   5.795   2.233  17.003  1.3299  0.2167 -1.5509
 8621TIP3    H247279   5.693   2.188  16.900  0.4095  0.0204 -0.5591
 8622TIP3   OH247280   5.911   2.166   1.604  0.2376 -0.2019  0.1156
 8622TIP3    H147281   5.960   2.097   1.560 -2.7250 -1.3949 -1.4048
 8622TIP3    H247282   5.909   2.238   1.541  1.4337  0.4747  0.8357
 8623TIP3   OH247283   6.220   6.718  15.546 -0.1875 -0.1998 -0.2803
 8623TIP3    H147284   6.201   6.710  15.639  1.2376 -0.2801  0.0175
 8623TIP3    H247285   6.313   6.696  15.538  0.0253  1.0381 -1.5440
 8624TIP3   OH247286   2.363   5.523  13.756  0.1246 -0.2028 -0.7560
 8624TIP3    H147287   2.321   5.609  13.764  1.6419  0.6606 -1.8234
 8624TIP3    H247288   2.345   5.479  13.839 -1.1822  0.9143 -0.4350
 8625TIP3   OH247289   5.820   0.542   0.919 -0.0143 -0.1948  0.0151
 8625TIP3    H147290   5.775   0.458   0.923  0.5601 -0.4660  0.9363
 8625TIP3    H247291   5.782   0.587   0.844 -1.4999 -0.5999  0.5182
 8626TIP3   OH247292   1.663   3.068  12.567 -0.0496 -0.0116 -0.2012
 8626TIP3    H147293   1.705   3.012  12.631  1.0559  0.2355 -0.7090
 8626TIP3    H247294   1.734   3.102  12.513 -0.6463  2.2062  0.3433
 8627TIP3   OH247295   5.845   3.863   1.389  0.1722 -0.1981  0.8860
 8627TIP3    H147296   5.834   3.937   1.448 -0.8796 -1.3492  2.1626
 8627TIP3    H247297   5.931   3.876   1.348 -0.8769  2.8168 -0.4753
 8628TIP3   OH247298   0.328   1.673  11.800  0.7829 -0.1032  0.5322
 8628TIP3    H147299   0.368   1.705  11.880 -0.6737 -1.3309  1.7986
 8628TIP3    H247300   0.369   1.587  11.786 -0.6444 -0.9402  1.3098
 8629TIP3   OH247301   4.264   6.549   2.264  0.3332 -0.6934  0.2125
 8629TIP3    H147302   4.328   6.543   2.334 -1.5584 -2.4823  1.8712
 8629TIP3    H247303   4.296   6.490   2.196  0.5879 -1.3714  0.9168
 8630TIP3   OH247304   0.735   2.028  14.539 -0.2527 -0.1619  0.0906
 8630TIP3    H147305   0.685   2.003  14.462  0.6747 -0.4095 -0.4409
 8630TIP3    H247306   0.669   2.050  14.605 -1.0519 -0.7509 -0.5074
 8631TIP3   OH247307   3.600   6.248   5.070 -0.4717  0.2781 -0.1017
 8631TIP3    H147308   3.580   6.194   5.147 -0.7700 -0.8281 -0.9433
 8631TIP3    H247309   3.514   6.273   5.036 -0.3382  1.7983  0.6147
 8632TIP3   OH247310   6.213   2.871  11.804 -0.1187 -0.2460  0.0670
 8632TIP3    H147311   6.151   2.840  11.737  0.2803  0.7044 -0.7477
 8632TIP3    H247312   6.274   2.798  11.815  0.2862 -0.1096 -1.1957
 8633TIP3   OH247313   5.591   5.950  15.017  0.3440 -0.0352  0.4540
 8633TIP3    H147314   5.607   5.924  14.926  1.5998 -2.0044  1.1907
 8633TIP3    H247315   5.574   5.867  15.062 -1.7198  1.0578  1.7454
 8634TIP3   OH247316   0.025   3.529   2.590 -0.7056 -0.1708  0.0020
 8634TIP3    H147317   0.071   3.591   2.533 -2.0377 -0.3532 -1.2812
 8634TIP3    H247318  -0.056   3.573   2.614  0.0821  0.1311  2.2459
 8635TIP3   OH247319   1.862   3.200  12.756 -0.3530  0.4505 -0.2284
 8635TIP3    H147320   1.933   3.136  12.768 -0.7561 -0.3303 -1.8171
 8635TIP3    H247321   1.902   3.270  12.705  0.2676  1.8163  2.0771
 8636TIP3   OH247322   5.519   6.608   2.363 -0.1561 -0.9893 -0.4309
 8636TIP3    H147323   5.504   6.674   2.296  0.2478 -0.3357  0.1148
 8636TIP3    H247324   5.438   6.557   2.365 -0.9890  0.3040  0.0533
 8637TIP3   OH247325   5.920   1.160   0.809  0.0599 -0.2360 -0.2778
 8637TIP3    H147326   5.879   1.246   0.796 -0.0764 -0.2250  0.1975
 8637TIP3    H247327   5.847   1.098   0.804  0.2013 -0.3531 -0.9251
 8638TIP3   OH247328   1.796   3.486  15.024  0.2868 -0.2813 -0.5937
 8638TIP3    H147329   1.718   3.536  14.998  1.5790  1.5899 -0.9901
 8638TIP3    H247330   1.808   3.506  15.117  0.7849  0.1389 -0.7436
 8639TIP3   OH247331   1.557   2.109  14.884  0.6094 -0.8177  0.3228
 8639TIP3    H147332   1.484   2.058  14.919 -0.5981  0.3536 -0.4605
 8639TIP3    H247333   1.569   2.075  14.795  1.0160 -1.0147  0.4540
 8640TIP3   OH247334   0.975   0.736  12.489 -0.0413  0.3471  0.2278
 8640TIP3    H147335   0.933   0.650  12.500 -1.2941  0.9163 -0.0557
 8640TIP3    H247336   0.976   0.750  12.395 -1.0250  1.2204  0.3393
 8641TIP3   OH247337   3.964   3.992   5.994  0.9609  0.1676 -0.4053
 8641TIP3    H147338   3.962   4.015   6.087 -0.8859  1.5377 -0.7489
 8641TIP3    H247339   3.872   3.987   5.969  1.4469  1.1709 -2.4651
 8642TIP3   OH247340   3.905   1.911   4.250 -0.2114 -0.1861 -0.2387
 8642TIP3    H147341   3.952   1.994   4.262  1.1379 -1.1248  1.1046
 8642TIP3    H247342   3.951   1.868   4.177 -0.0878 -0.3385 -0.0705
 8643TIP3   OH247343   3.489   5.636  14.977 -0.2256  0.5392  0.0857
 8643TIP3    H147344   3.552   5.603  14.913 -0.6579  0.8218 -0.4926
 8643TIP3    H247345   3.410   5.584  14.961 -0.1133  0.1273  0.8649
 8644TIP3   OH247346   3.486   2.191  12.603  0.2891 -0.9212  0.2099
 8644TIP3    H147347   3.554   2.257  12.617  0.8924 -1.2512 -1.1184
 8644TIP3    H247348   3.466   2.159  12.692  1.4994 -0.4589  0.6670
 8645TIP3   OH247349   6.154   2.372   3.894 -0.0177 -0.4199 -0.1545
 8645TIP3    H147350   6.104   2.300   3.856  2.1793 -2.0847  0.0129
 8645TIP3    H247351   6.097   2.407   3.962 -1.1811 -1.9125 -0.3292
 8646TIP3   OH247352   0.317   6.517   4.659 -0.0261 -0.1284 -0.6218
 8646TIP3    H147353   0.315   6.426   4.630  2.6051 -0.6683  0.7286
 8646TIP3    H247354   0.389   6.556   4.610 -0.3881  0.9020 -0.3380
 8647TIP3   OH247355   0.749   2.193   2.558 -0.2770  0.2320 -0.7112
 8647TIP3    H147356   0.673   2.168   2.611  0.2771 -1.3334 -0.6316
 8647TIP3    H247357   0.759   2.287   2.572 -0.8310  0.0331  1.0402
 8648TIP3   OH247358   0.442   2.895  16.602  0.3776  0.1714  0.6390
 8648TIP3    H147359   0.373   2.948  16.643  1.0595  2.1911 -0.7693
 8648TIP3    H247360   0.484   2.954  16.539  2.7336 -1.3471  0.7363
 8649TIP3   OH247361   4.140   2.312  14.879 -0.1312 -0.3170  0.2468
 8649TIP3    H147362   4.050   2.282  14.862 -0.6609  0.3989  1.7231
 8649TIP3    H247363   4.133   2.407  14.887  0.5659 -0.3564  1.4725
 8650TIP3   OH247364   4.637   0.721  12.868  0.2557 -0.3120  0.0774
 8650TIP3    H147365   4.700   0.703  12.798 -1.0874  0.3329 -1.3343
 8650TIP3    H247366   4.554   0.738  12.822 -1.1315 -1.8493  1.9022
 8651TIP3   OH247367   5.145   2.523   5.444  0.3334 -0.2343  0.1540
 8651TIP3    H147368   5.190   2.440   5.455 -3.0049 -2.2173 -0.4876
 8651TIP3    H247369   5.084   2.528   5.517 -0.5803  0.9041 -0.6568
 8652TIP3   OH247370   1.897   6.254  12.468  0.3181  0.5003  0.2921
 8652TIP3    H147371   1.864   6.268  12.379  1.0833 -1.0441 -0.2559
 8652TIP3    H247372   1.983   6.294  12.469  1.4410 -1.8103 -0.5060
 8653TIP3   OH247373   2.407   4.097   0.683 -0.1631 -0.0172 -0.2362
 8653TIP3    H147374   2.391   4.014   0.729  1.8846 -0.3774 -0.1149
 8653TIP3    H247375   2.395   4.076   0.591 -2.5683  0.2846 -0.0158
 8654TIP3   OH247376   6.311   5.417  16.739  0.2406 -1.0110 -0.0864
 8654TIP3    H147377   6.216   5.406  16.747  0.1123  0.0474 -0.0595
 8654TIP3    H247378   6.330   5.392  16.649 -0.3452  0.5401 -0.6717
 8655TIP3   OH247379   2.420   4.496   1.630  0.2167  0.2672  0.5133
 8655TIP3    H147380   2.369   4.438   1.574  0.2191 -0.2809  1.0689
 8655TIP3    H247381   2.478   4.438   1.679 -0.7527  0.5755  2.1012
 8656TIP3   OH247382   6.204   4.613  12.127 -0.1912  0.0943 -0.1071
 8656TIP3    H147383   6.183   4.522  12.149 -0.4280  0.3810  0.8679
 8656TIP3    H247384   6.171   4.624  12.038 -1.5649 -0.3306  0.3244
 8657TIP3   OH247385   0.982   6.563  15.103  0.4195 -0.0441  0.4300
 8657TIP3    H147386   0.913   6.601  15.050  0.6282  0.5374  0.5677
 8657TIP3    H247387   0.945   6.483  15.138  0.2391 -0.3681 -0.4972
 8658TIP3   OH247388   3.967   1.353  13.990 -0.1796  0.4250  1.0103
 8658TIP3    H147389   3.940   1.361  13.899 -1.5184  0.7762  1.4150
 8658TIP3    H247390   4.044   1.296  13.988 -0.9378 -0.5815 -0.2061
 8659TIP3   OH247391   5.003   3.127   1.317  0.2149  0.3996 -0.1667
 8659TIP3    H147392   5.003   3.190   1.245 -1.1580 -0.4664 -0.9583
 8659TIP3    H247393   4.937   3.161   1.378  0.8236  0.7225  0.3151
 8660TIP3   OH247394   4.374   3.795  12.530 -0.1085  0.0066 -0.4634
 8660TIP3    H147395   4.457   3.832  12.501 -0.1677  1.1804  0.7779
 8660TIP3    H247396   4.327   3.773  12.449  0.9068  0.4726 -1.1854
 8661TIP3   OH247397   6.095   6.263  13.986 -0.1073  0.0313  0.6473
 8661TIP3    H147398   6.164   6.254  14.052  0.7550 -1.9345 -0.4959
 8661TIP3    H247399   6.014   6.254  14.035  0.5050 -0.4359  1.5804
 8662TIP3   OH247400   1.377   4.180  14.270 -0.0701 -0.0778  0.2191
 8662TIP3    H147401   1.329   4.161  14.350 -1.4741 -2.2940 -1.0826
 8662TIP3    H247402   1.426   4.100  14.252  0.3748  0.4577 -1.0119
 8663TIP3   OH247403   4.278   4.319   1.103 -0.4509  0.7512  0.1922
 8663TIP3    H147404   4.363   4.293   1.138 -1.7051  0.1134  2.9606
 8663TIP3    H247405   4.292   4.409   1.072  1.7564 -0.1278 -1.4414
 8664TIP3   OH247406   3.582   6.556   6.041 -0.6565 -0.3999 -0.1693
 8664TIP3    H147407   3.522   6.484   6.061 -1.6301  0.6195  0.5954
 8664TIP3    H247408   3.623   6.577   6.125 -1.1962  0.6871 -0.1819
 8665TIP3   OH247409   0.321   0.458   0.331  0.1956 -0.1748  0.0861
 8665TIP3    H147410   0.291   0.368   0.337 -0.5940  0.1098  0.6082
 8665TIP3    H247411   0.245   0.510   0.360  0.8395  0.6134  0.3797
 8666TIP3   OH247412   2.309   5.041  16.952  0.4556 -0.0082  0.1144
 8666TIP3    H147413   2.371   4.968  16.948 -0.0692 -0.3651 -2.3027
 8666TIP3    H247414   2.235   5.007  17.003  0.5723 -0.8808 -0.2899
 8667TIP3   OH247415   0.584   6.507   3.543 -0.1045 -0.0963  0.0462
 8667TIP3    H147416   0.615   6.539   3.459 -0.2603  0.3652  0.1649
 8667TIP3    H247417   0.664   6.488   3.593 -0.0131 -0.5094 -0.2564
 8668TIP3   OH247418   1.538   1.878  12.408 -0.1400  0.0008  0.4173
 8668TIP3    H147419   1.634   1.880  12.409 -0.1500  0.6101  0.6571
 8668TIP3    H247420   1.513   1.939  12.478 -0.7066  1.1200 -0.7409
 8669TIP3   OH247421   0.931   2.320  12.661 -0.2459 -0.1595 -0.2869
 8669TIP3    H147422   0.880   2.353  12.735 -0.8203 -0.0480 -0.7301
 8669TIP3    H247423   0.906   2.227  12.655 -2.1997  0.4358 -1.9641
 8670TIP3   OH247424   4.706   0.074  12.964  0.1657 -0.3805  0.2466
 8670TIP3    H147425   4.658   0.155  12.944  1.2860 -0.0434 -1.1454
 8670TIP3    H247426   4.717   0.075  13.059 -1.2496  0.2880  0.4172
 8671TIP3   OH247427   0.058   2.433  15.380  0.1636 -0.3842  0.4782
 8671TIP3    H147428   0.082   2.431  15.472  1.7305 -3.0716  0.0633
 8671TIP3    H247429  -0.036   2.417  15.379  0.4161 -2.1041  1.5728
 8672TIP3   OH247430   3.568   3.945   6.394  0.1560  0.1249  0.2769
 8672TIP3    H147431   3.482   3.982   6.414 -1.0155 -1.8858 -0.9096
 8672TIP3    H247432   3.582   3.878   6.461  0.7663  0.3883  0.4200
 8673TIP3   OH247433   4.777   0.111   5.423 -0.4654 -0.2144 -0.3224
 8673TIP3    H147434   4.783   0.183   5.360 -1.9084 -1.0815 -1.4835
 8673TIP3    H247435   4.802   0.033   5.374  0.5402 -0.6053  0.7784
 8674TIP3   OH247436   3.019   4.891  12.958  0.1168 -0.6046  0.0413
 8674TIP3    H147437   2.966   4.942  12.897  0.1598 -1.5348 -0.7817
 8674TIP3    H247438   2.956   4.858  13.023 -0.0802 -0.4623 -0.0787
 8675TIP3   OH247439   3.651   2.978   0.559  0.0428 -0.7142  0.2517
 8675TIP3    H147440   3.575   3.022   0.597 -0.0309 -0.4702 -0.1864
 8675TIP3    H247441   3.674   2.911   0.624  2.0346  1.9631  2.4016
 8676TIP3   OH247442   1.909   1.707  11.852 -0.0435  0.5454  0.0561
 8676TIP3    H147443   1.888   1.801  11.857  0.1545  0.5091  1.7083
 8676TIP3    H247444   1.953   1.688  11.934  1.8901 -0.5365 -1.1949
 8677TIP3   OH247445   4.209   3.361   5.930 -0.8645  0.2968 -0.1536
 8677TIP3    H147446   4.304   3.350   5.925 -0.8479 -0.0453  0.8663
 8677TIP3    H247447   4.195   3.420   6.003 -1.4628  0.0385 -0.0564
 8678TIP3   OH247448   1.414   2.960   2.409 -0.2305  0.8670  0.4914
 8678TIP3    H147449   1.440   2.878   2.451  0.0544  0.2231 -0.9120
 8678TIP3    H247450   1.489   3.019   2.421  1.1659 -0.3510 -1.8490
 8679TIP3   OH247451   5.896   6.717   3.793 -0.5664 -0.0603  0.5014
 8679TIP3    H147452   5.832   6.655   3.758  0.2974 -1.5757  1.5573
 8679TIP3    H247453   5.977   6.667   3.801  0.9363  1.9767 -1.3239
 8680TIP3   OH247454   5.367   2.769   0.783  0.1950 -0.0834 -0.3898
 8680TIP3    H147455   5.297   2.756   0.719  0.3304 -0.3382 -0.4864
 8680TIP3    H247456   5.328   2.824   0.851 -0.3422 -0.8655 -0.0505
 8681TIP3   OH247457   4.698   6.043   0.432  0.0686  0.2402 -0.3881
 8681TIP3    H147458   4.719   6.135   0.415 -0.2242  0.6473  1.3477
 8681TIP3    H247459   4.774   5.995   0.399  0.4030  1.1399 -0.9400
 8682TIP3   OH247460   4.018   2.890  12.388  0.7831  0.0700  0.2610
 8682TIP3    H147461   3.981   2.978  12.393 -0.2131 -0.3333  0.1426
 8682TIP3    H247462   4.090   2.898  12.326 -2.1759 -0.1439 -3.3981
 8683TIP3   OH247463   1.981   0.093  11.280  0.0627  0.2480 -0.0515
 8683TIP3    H147464   2.008   0.044  11.202 -0.0805  0.4541 -0.2330
 8683TIP3    H247465   1.981   0.185  11.252  1.2807  0.4427  0.5757
 8684TIP3   OH247466   1.046   0.655   0.376 -0.1962 -0.4598  0.2098
 8684TIP3    H147467   1.097   0.667   0.456 -0.1112  1.4083 -0.0810
 8684TIP3    H247468   0.954   0.659   0.405 -0.1667  0.4507  0.2075
 8685TIP3   OH247469   3.429   1.484   3.414 -0.4041 -0.1201 -0.0403
 8685TIP3    H147470   3.414   1.465   3.321 -0.7397  0.9353 -0.2008
 8685TIP3    H247471   3.512   1.440   3.433 -0.6908 -0.9537 -0.6514
 8686TIP3   OH247472   6.591   4.977  13.755  0.0326 -0.1331 -0.3200
 8686TIP3    H147473   6.641   5.025  13.689 -0.9698  1.1397 -0.1556
 8686TIP3    H247474   6.530   4.924  13.704  0.0664 -0.0569 -0.4420
 8687TIP3   OH247475   6.444   1.991   4.822 -0.0521  0.2116 -0.0112
 8687TIP3    H147476   6.387   1.956   4.891  0.2708  0.9495  0.6414
 8687TIP3    H247477   6.457   1.918   4.761 -0.7575 -0.2941  0.4464
 8688TIP3   OH247478   4.889   0.292   5.274 -0.4797  0.6973  0.5023
 8688TIP3    H147479   4.923   0.289   5.184 -0.1700  1.4362  0.5905
 8688TIP3    H247480   4.966   0.273   5.329 -0.9031 -0.9064  0.5743
 8689TIP3   OH247481   4.354   4.270   2.368 -0.6180 -0.2332 -0.3748
 8689TIP3    H147482   4.284   4.335   2.363 -1.8437 -1.6070 -0.9409
 8689TIP3    H247483   4.381   4.257   2.278  0.2856  0.1712 -0.1746
 8690TIP3   OH247484   0.776   1.405  15.498 -0.3039 -0.0777  0.1222
 8690TIP3    H147485   0.849   1.456  15.461  0.3628 -1.7589 -0.9434
 8690TIP3    H247486   0.703   1.422  15.438  0.3164 -1.4872 -1.0514
 8691TIP3   OH247487   6.751   2.944   1.893 -0.0817 -0.2188  0.5317
 8691TIP3    H147488   6.765   2.898   1.976 -0.7699  0.5860  1.1000
 8691TIP3    H247489   6.837   2.982   1.872  0.1002 -0.4448  0.8530
 8692TIP3   OH247490   4.030   0.809  16.371  0.5335  0.1642  0.1477
 8692TIP3    H147491   3.949   0.806  16.422  0.0646 -1.2442 -0.6738
 8692TIP3    H247492   4.055   0.901  16.373 -2.7677  1.2237 -2.1909
 8693TIP3   OH247493   5.910   2.205   0.112  0.4931 -0.5262 -0.0599
 8693TIP3    H147494   5.833   2.150   0.096  0.6151 -0.6760 -0.1293
 8693TIP3    H247495   5.923   2.252   0.030  0.8343 -0.9425 -0.2415
 8694TIP3   OH247496   3.163   5.707  13.079 -0.1814  0.2786  0.3813
 8694TIP3    H147497   3.085   5.670  13.119 -0.3377 -0.6978 -0.8176
 8694TIP3    H247498   3.234   5.683  13.139 -0.7512  1.0412  1.3926
 8695TIP3   OH247499   4.889   1.957  11.936  0.1347  0.5835  0.2268
 8695TIP3    H147500   4.853   1.911  11.859  0.5250  1.2375 -0.3531
 8695TIP3    H247501   4.821   2.019  11.960 -1.2026 -1.5598  2.1755
 8696TIP3   OH247502   2.402   4.421  12.087 -0.0685  0.5026  0.2483
 8696TIP3    H147503   2.365   4.365  12.019  2.8987 -2.5710  1.0295
 8696TIP3    H247504   2.328   4.439  12.145 -1.5733 -0.8003 -1.1937
 8697TIP3   OH247505   0.476   6.774   2.102  0.8444 -0.6218 -0.1633
 8697TIP3    H147506   0.497   6.808   2.189 -1.9397 -0.8122  0.6177
 8697TIP3    H247507   0.477   6.851   2.045  3.4557 -0.6049 -0.1739
 8698TIP3   OH247508   0.316   6.209   3.993  0.6259  0.5864 -0.2861
 8698TIP3    H147509   0.299   6.119   3.964  1.7307  0.4092 -0.3947
 8698TIP3    H247510   0.357   6.200   4.078 -0.3035  1.0363  0.2224
 8699TIP3   OH247511   1.098   6.100   4.145  0.0641 -0.1257  0.3244
 8699TIP3    H147512   1.087   6.111   4.051 -1.4687  1.2410  0.6462
 8699TIP3    H247513   1.056   6.177   4.184  2.6007  0.4719  2.0369
 8700TIP3   OH247514   0.948   0.923   0.585 -0.2522  0.5132 -0.1733
 8700TIP3    H147515   0.868   0.951   0.630 -1.1210  0.1099 -1.4332
 8700TIP3    H247516   1.016   0.923   0.653 -0.8597  2.9117  0.4624
 8701TIP3   OH247517   0.542   2.643  14.098 -0.0264  0.0613  0.4598
 8701TIP3    H147518   0.636   2.650  14.115  0.2986  1.8372 -1.8011
 8701TIP3    H247519   0.519   2.554  14.124  2.4605 -0.7032  0.1630
 8702TIP3   OH247520   4.101   1.611   2.727  0.2929 -0.3136 -0.1337
 8702TIP3    H147521   4.031   1.564   2.683  0.6301 -0.3313 -0.6585
 8702TIP3    H247522   4.095   1.585   2.818 -0.6033 -0.0460 -0.1139
 8703TIP3   OH247523   2.841   2.827  14.818  0.0065 -0.1006  0.1794
 8703TIP3    H147524   2.845   2.870  14.904 -1.0455 -0.8413  0.6159
 8703TIP3    H247525   2.749   2.837  14.792 -0.6825 -3.5356  1.0689
 8704TIP3   OH247526   4.791   1.527  16.770 -0.5403 -0.1275 -0.0097
 8704TIP3    H147527   4.857   1.595  16.756  0.1207 -0.4666  1.3126
 8704TIP3    H247528   4.783   1.521  16.865 -1.7519 -0.8006 -0.1439
 8705TIP3   OH247529   1.388   6.078   2.420 -0.6535 -0.6163  0.5429
 8705TIP3    H147530   1.361   6.147   2.481  0.6942  0.2330  0.1945
 8705TIP3    H247531   1.407   6.003   2.476  0.9132  0.2606  1.2100
 8706TIP3   OH247532   0.593   4.122   5.040 -0.6596  0.4005 -0.6577
 8706TIP3    H147533   0.635   4.039   5.062  0.3312  0.8060 -0.9559
 8706TIP3    H247534   0.631   4.185   5.102  0.6604  1.1522 -2.1694
 8707TIP3   OH247535   3.759   4.972  16.113  0.5978  0.1420  0.6447
 8707TIP3    H147536   3.747   5.025  16.192 -0.6949 -0.4869  0.8903
 8707TIP3    H247537   3.850   4.988  16.087  0.7396  1.1380  1.6817
 8708TIP3   OH247538   5.529   2.192  16.542 -0.0379  0.0239  0.3028
 8708TIP3    H147539   5.599   2.128  16.552 -0.0254  0.0398  0.3206
 8708TIP3    H247540   5.460   2.161  16.601  0.3925  0.6256  1.1403
 8709TIP3   OH247541   6.231   6.172  13.298 -0.2745 -0.1937  0.6517
 8709TIP3    H147542   6.239   6.187  13.392  0.4920  0.3077  0.5099
 8709TIP3    H247543   6.138   6.153  13.285 -0.7595  1.6663  1.2350
 8710TIP3   OH247544   2.812   1.250  13.781  0.1308  0.1161  0.1917
 8710TIP3    H147545   2.820   1.227  13.874 -0.4127  0.4896  0.3358
 8710TIP3    H247546   2.722   1.226  13.758 -0.1295  1.1522  0.0885
 8711TIP3   OH247547   5.921   6.700   4.892  0.1513 -0.2098  0.1517
 8711TIP3    H147548   5.948   6.613   4.860  0.3219 -0.5539  1.2126
 8711TIP3    H247549   5.969   6.711   4.973  0.0910  0.8729  0.0409
 8712TIP3   OH247550   0.102   6.725  12.182 -0.8055 -0.2424 -0.2355
 8712TIP3    H147551   0.087   6.776  12.261  1.0524  1.3951 -0.8880
 8712TIP3    H247552   0.023   6.736  12.130 -1.7007 -0.6580  1.0197
 8713TIP3   OH247553   2.279   5.763   2.428  0.0234 -0.0199  0.0301
 8713TIP3    H147554   2.193   5.725   2.444  0.9685 -1.0967  2.7115
 8713TIP3    H247555   2.276   5.849   2.469 -0.4762  0.8697 -1.8062
 8714TIP3   OH247556   4.166   1.390  12.446 -0.3484 -0.4757 -0.4420
 8714TIP3    H147557   4.150   1.477  12.483  2.2003 -0.4107  0.5970
 8714TIP3    H247558   4.109   1.386  12.369 -0.1538  2.3145 -0.7936
 8715TIP3   OH247559   0.524   0.995   2.862  0.3847 -0.2694 -0.1197
 8715TIP3    H147560   0.551   0.917   2.813  0.3359 -0.2701 -0.1455
 8715TIP3    H247561   0.485   0.961   2.943 -1.3993 -0.3475 -0.9822
 8716TIP3   OH247562   5.041   4.878  13.209  0.3730 -0.1151 -0.4032
 8716TIP3    H147563   5.097   4.903  13.135  0.9027 -0.0115  0.0261
 8716TIP3    H247564   5.098   4.825  13.265  0.5693  1.4476  0.9162
 8717TIP3   OH247565   3.478   4.139   2.259 -0.1190 -0.1215  0.2143
 8717TIP3    H147566   3.417   4.065   2.256 -0.9262  0.5468 -0.0276
 8717TIP3    H247567   3.545   4.117   2.194 -0.5063 -0.5110 -0.0588
 8718TIP3   OH247568   1.072   2.229   0.116  0.2481  0.3947  0.2231
 8718TIP3    H147569   1.015   2.199   0.045 -1.5739  2.1534  0.8817
 8718TIP3    H247570   1.031   2.196   0.196 -1.9805  4.6539  0.9966
 8719TIP3   OH247571   5.370   3.846   2.928 -0.0485  0.0682 -0.1617
 8719TIP3    H147572   5.279   3.877   2.935 -1.0112 -2.4277 -0.7938
 8719TIP3    H247573   5.416   3.916   2.883 -2.6910 -0.4341 -3.8515
 8720TIP3   OH247574   3.835   6.026   6.299  0.0023 -0.2490 -0.4698
 8720TIP3    H147575   3.869   6.114   6.284  0.1224 -0.5795 -2.3288
 8720TIP3    H247576   3.877   5.998   6.380  1.1161  0.8566 -0.6352
 8721TIP3   OH247577   0.119   2.647  13.085 -0.6302  0.0414  0.3170
 8721TIP3    H147578   0.125   2.724  13.028 -0.4834  0.4753  0.9176
 8721TIP3    H247579   0.158   2.576  13.033 -0.8936  0.3356 -0.2918
 8722TIP3   OH247580   2.581   6.599  15.109  0.2010 -0.1906  0.3712
 8722TIP3    H147581   2.667   6.557  15.116  0.6548  0.6383 -0.1023
 8722TIP3    H247582   2.583   6.669  15.174  0.5901  1.0085 -0.9160
 8723TIP3   OH247583   1.271   3.076  12.284  0.0621  0.3944  0.3744
 8723TIP3    H147584   1.328   3.115  12.217 -1.4972  1.8442 -0.1170
 8723TIP3    H247585   1.248   2.990  12.247  0.5888  0.4766 -0.1599
 8724TIP3   OH247586   0.500   0.467   4.806 -0.2996 -0.5009  0.0267
 8724TIP3    H147587   0.413   0.473   4.846  0.2643 -0.9624  1.3454
 8724TIP3    H247588   0.483   0.432   4.719 -1.4310 -0.7182  0.3208
 8725TIP3   OH247589   3.464   1.141  16.358  0.3825 -0.1030 -0.0249
 8725TIP3    H147590   3.511   1.167  16.437  0.8440 -1.2117  0.0771
 8725TIP3    H247591   3.455   1.046  16.365 -1.9619  0.0900 -0.0105
 8726TIP3   OH247592   2.690   3.248   3.405 -0.0806  0.2347 -0.5548
 8726TIP3    H147593   2.633   3.285   3.473 -1.3556  0.1336 -1.5442
 8726TIP3    H247594   2.675   3.153   3.411 -1.5621  0.3470 -2.1396
 8727TIP3   OH247595   5.681   2.379  16.206 -0.6822 -0.5402  0.5911
 8727TIP3    H147596   5.744   2.387  16.277  1.1022  0.6606 -1.0829
 8727TIP3    H247597   5.723   2.421  16.131 -2.8459 -1.0571 -0.9782
 8728TIP3   OH247598   4.118   4.531  12.775  0.2043  0.1864  0.2103
 8728TIP3    H147599   4.071   4.614  12.771  0.2338  0.2111  0.3849
 8728TIP3    H247600   4.114   4.497  12.686  0.2899  0.4292  0.1135
 8729TIP3   OH247601   5.099   4.062  16.290  0.0871 -0.8434 -0.1980
 8729TIP3    H147602   5.176   4.013  16.263  0.7121 -0.8870  1.5984
 8729TIP3    H247603   5.087   4.128  16.222  2.4521 -0.0414  0.1079
 8730TIP3   OH247604   5.199   2.275  15.210  0.1490 -0.1908 -0.3794
 8730TIP3    H147605   5.203   2.361  15.250  0.5303  0.2075 -1.2583
 8730TIP3    H247606   5.107   2.263  15.187  0.3077  0.4993 -1.3717
 8731TIP3   OH247607   0.876   5.513  11.000  0.3962 -0.2765  1.1153
 8731TIP3    H147608   0.785   5.484  10.992 -0.2422  1.6155  1.3088
 8731TIP3    H247609   0.906   5.522  10.910 -0.7429  2.4708  0.9624
 8732TIP3   OH247610   5.301   6.657   4.485 -0.1186 -0.4703  0.0157
 8732TIP3    H147611   5.362   6.668   4.557  1.9939 -1.8679 -1.5048
 8732TIP3    H247612   5.291   6.562   4.476  0.3170 -0.3504 -2.0481
 8733TIP3   OH247613   2.971   2.821   0.290  0.2673 -0.5036  0.0964
 8733TIP3    H147614   2.905   2.815   0.359  1.0609 -0.1851  0.8855
 8733TIP3    H247615   2.942   2.758   0.224 -0.8914 -0.2850  0.3778
 8734TIP3   OH247616   6.786   5.264   5.043  0.1785 -0.6701 -0.4076
 8734TIP3    H147617   6.726   5.330   5.009  1.8814  0.1282 -2.0074
 8734TIP3    H247618   6.843   5.312   5.103  1.0862 -0.7700 -1.1726
 8735TIP3   OH247619   4.056   0.549   2.120  0.0134 -0.6572 -0.0498
 8735TIP3    H147620   4.068   0.546   2.025  0.5820  0.7382 -0.0295
 8735TIP3    H247621   4.105   0.626   2.148 -0.0463 -1.1319  1.3971
 8736TIP3   OH247622   1.342   6.176   2.665  0.6862 -0.7589  0.6840
 8736TIP3    H147623   1.325   6.194   2.757  1.0699 -1.7618  0.9617
 8736TIP3    H247624   1.414   6.235   2.642 -1.6506  1.9491  0.0783
 8737TIP3   OH247625   5.135   3.688  13.905 -0.1143  0.3846 -0.0031
 8737TIP3    H147626   5.053   3.661  13.946  0.1954 -0.6383 -0.0372
 8737TIP3    H247627   5.200   3.626  13.939  0.0981 -0.7049 -2.2752
 8738TIP3   OH247628   1.913   2.549  11.727  0.3766 -0.5422 -0.4868
 8738TIP3    H147629   1.843   2.526  11.789  0.2292 -0.3852 -0.5929
 8738TIP3    H247630   1.873   2.538  11.641  0.1358  0.6305 -0.5287
 8739TIP3   OH247631   6.133   2.688  13.659  0.2635 -0.1575 -0.3861
 8739TIP3    H147632   6.155   2.598  13.685 -0.5454 -0.2731 -0.1022
 8739TIP3    H247633   6.040   2.685  13.639  0.3442  0.5097 -0.8679
 8740TIP3   OH247634   5.956   0.543   5.799 -0.1544 -0.0003  0.2909
 8740TIP3    H147635   6.051   0.555   5.798 -0.0552 -0.7346  0.8058
 8740TIP3    H247636   5.935   0.521   5.890 -0.9704  1.3018  0.4355
 8741TIP3   OH247637   3.137   4.623  12.561 -0.2466 -0.1043  0.0955
 8741TIP3    H147638   3.221   4.665  12.547 -0.4264  0.1049 -0.3324
 8741TIP3    H247639   3.103   4.606  12.474 -0.0729 -1.3410  0.2595
 8742TIP3   OH247640   5.394   0.783   2.038  0.5824 -0.1511 -0.1954
 8742TIP3    H147641   5.325   0.724   2.069  1.2283 -0.1055  1.3895
 8742TIP3    H247642   5.432   0.819   2.118  2.0100  0.3278 -1.0753
 8743TIP3   OH247643   4.286   1.061   3.887  0.2868  0.0358  0.5548
 8743TIP3    H147644   4.278   0.983   3.942  1.0755 -1.2603 -1.1084
 8743TIP3    H247645   4.347   1.035   3.818 -1.2323  1.3794 -1.3290
 8744TIP3   OH247646   0.576   1.621  16.094  0.1214  0.3016 -0.4146
 8744TIP3    H147647   0.560   1.715  16.081  0.5280  0.2613 -1.2536
 8744TIP3    H247648   0.493   1.587  16.125  0.5170  1.2839  1.8202
 8745TIP3   OH247649   1.791   4.361  12.352 -0.1347 -0.5393 -0.0388
 8745TIP3    H147650   1.850   4.353  12.277  0.1950  1.0666  0.0318
 8745TIP3    H247651   1.729   4.429  12.326 -0.3277 -0.3367  0.9427
 8746TIP3   OH247652   0.068   2.859   1.009 -0.4513  0.4243  0.2692
 8746TIP3    H147653   0.046   2.891   0.921  0.1276 -1.8614 -0.7445
 8746TIP3    H247654   0.158   2.887   1.023 -0.4524  0.5470  0.0311
 8747TIP3   OH247655   1.141   2.653  16.037  0.0874  0.1746  0.1892
 8747TIP3    H147656   1.216   2.621  15.988 -1.2597  0.2186 -1.9716
 8747TIP3    H247657   1.105   2.576  16.080  1.2594  0.1268  1.0802
 8748TIP3   OH247658   0.919   0.859   1.527 -0.0836  0.1752 -0.2932
 8748TIP3    H147659   0.867   0.790   1.567  0.0871  0.9459  1.3151
 8748TIP3    H247660   0.856   0.926   1.502 -0.1001  0.1076 -0.4293
 8749TIP3   OH247661   2.248   2.731  12.819 -0.2239  0.1856 -0.3172
 8749TIP3    H147662   2.240   2.701  12.729 -1.8432  0.2732 -0.2168
 8749TIP3    H247663   2.264   2.652  12.870 -2.0382 -0.2296 -0.3577
 8750TIP3   OH247664   1.469   5.194   0.626  0.0888 -0.1982  0.5929
 8750TIP3    H147665   1.514   5.196   0.542  0.4785  1.1913  0.8138
 8750TIP3    H247666   1.538   5.206   0.691 -0.0925 -2.1712  1.1703
 8751TIP3   OH247667   3.893   6.037   4.982 -0.3893  0.0979  0.1998
 8751TIP3    H147668   3.830   5.965   4.989  1.1563 -1.2347  0.9135
 8751TIP3    H247669   3.847   6.105   4.933 -1.9871 -1.2713 -0.2514
 8752TIP3   OH247670   3.845   3.740   0.307 -0.5786 -0.3477  0.5339
 8752TIP3    H147671   3.785   3.775   0.241 -0.8370 -1.7901 -0.0127
 8752TIP3    H247672   3.932   3.769   0.278 -0.9140  1.1742  0.9639
 8753TIP3   OH247673   6.577   6.028  12.927  0.1488  0.0634  0.2988
 8753TIP3    H147674   6.608   6.029  12.836 -0.2574 -0.6958  0.1556
 8753TIP3    H247675   6.642   6.082  12.974 -0.0236  1.0414 -0.5542
 8754TIP3   OH247676   2.189   4.823   4.393  0.1190 -0.1744 -0.2081
 8754TIP3    H147677   2.269   4.839   4.343 -0.8918 -0.0689 -1.8177
 8754TIP3    H247678   2.206   4.740   4.438  1.1143 -0.1765 -0.5696
 8755TIP3   OH247679   4.577   4.442  15.295  0.5754 -0.5566 -0.2768
 8755TIP3    H147680   4.563   4.449  15.201 -0.0587  0.3710 -0.1180
 8755TIP3    H247681   4.529   4.364  15.321 -2.3272  1.1907 -0.1478
 8756TIP3   OH247682   4.642   5.593   3.981 -0.3098 -0.1466 -0.6760
 8756TIP3    H147683   4.638   5.596   4.076  0.5773 -1.5794 -0.5818
 8756TIP3    H247684   4.590   5.668   3.952  0.6685  1.2046  0.9547
 8757TIP3   OH247685   2.258   4.129   3.875 -0.6942  0.0592  0.1175
 8757TIP3    H147686   2.236   4.219   3.899 -2.3136  0.0599 -1.3102
 8757TIP3    H247687   2.247   4.080   3.957 -0.2452  1.0667  0.7971
 8758TIP3   OH247688   3.614   2.009  12.431 -0.1531 -0.2094  0.4095
 8758TIP3    H147689   3.567   2.072  12.487  1.8373  1.7429 -0.0173
 8758TIP3    H247690   3.622   2.053  12.347  0.2594 -1.5408 -0.2591
 8759TIP3   OH247691   3.901   5.502  15.376 -0.3291 -0.4529  0.1745
 8759TIP3    H147692   3.956   5.435  15.338 -0.9034 -1.0299  0.3537
 8759TIP3    H247693   3.835   5.454  15.426 -2.7482  0.1271 -2.3717
 8760TIP3   OH247694   3.385   0.828   2.397 -0.8526 -0.2602  0.1048
 8760TIP3    H147695   3.403   0.815   2.304 -2.0852  1.0276 -0.3264
 8760TIP3    H247696   3.316   0.765   2.417 -1.1775  0.0508 -0.0466
 8761TIP3   OH247697   2.522   5.096   4.248 -0.4275  0.2077 -0.0593
 8761TIP3    H147698   2.587   5.110   4.318  0.4865  0.7775 -1.0121
 8761TIP3    H247699   2.540   5.008   4.216 -0.5603  0.1133  0.1252
 8762TIP3   OH247700   5.527   3.453  11.308  0.0197  0.1840  0.3470
 8762TIP3    H147701   5.551   3.497  11.226 -0.6955  0.9118  0.5209
 8762TIP3    H247702   5.535   3.521  11.375  0.8987 -0.4912  0.9288
 8763TIP3   OH247703   4.017   2.010   3.446  0.8192  0.4638 -0.1006
 8763TIP3    H147704   3.957   2.010   3.520 -0.7679 -0.3616 -1.3577
 8763TIP3    H247705   4.088   1.951   3.472 -0.2149 -0.5779  0.3702
 8764TIP3   OH247706   3.333   4.702  13.314  0.5475 -0.1554  0.1919
 8764TIP3    H147707   3.278   4.780  13.313  0.2432 -0.2902  2.5881
 8764TIP3    H247708   3.417   4.732  13.279  0.4231  1.2447  1.0441
 8765TIP3   OH247709   1.135   1.938   1.954  0.6256 -0.8645 -0.1198
 8765TIP3    H147710   1.082   1.944   2.034 -0.3309  0.3405 -0.8333
 8765TIP3    H247711   1.118   1.850   1.920 -1.1615 -0.3685 -0.5190
 8766TIP3   OH247712   5.678   1.219  13.716 -0.4298  0.3681 -0.5566
 8766TIP3    H147713   5.705   1.205  13.807 -1.8190 -2.7214 -0.5483
 8766TIP3    H247714   5.756   1.201  13.665 -0.5664 -1.5736 -0.1396
 8767TIP3   OH247715   5.660   4.700   3.482  0.1418  0.4697 -0.6609
 8767TIP3    H147716   5.585   4.739   3.438  0.5629  1.2403 -0.7082
 8767TIP3    H247717   5.736   4.728   3.430  0.4147 -0.7976 -0.9639
 8768TIP3   OH247718   6.750   4.656   4.554 -0.2509 -0.0807 -1.2800
 8768TIP3    H147719   6.834   4.641   4.597 -0.7594  0.3731 -0.1277
 8768TIP3    H247720   6.774   4.694   4.469  0.6607  1.8895 -0.1839
 8769TIP3   OH247721   1.095   0.372   0.261 -0.1934 -0.3085  0.4640
 8769TIP3    H147722   1.096   0.297   0.321  1.5795 -1.2931 -0.7591
 8769TIP3    H247723   1.073   0.446   0.317  1.3388 -1.2159  2.3472
 8770TIP3   OH247724   1.365   3.381   4.941 -0.0937  0.4264 -0.8265
 8770TIP3    H147725   1.287   3.401   4.992  1.4036  0.0291  1.6960
 8770TIP3    H247726   1.351   3.293   4.908  0.8858 -1.2190  2.8872
 8771TIP3   OH247727   1.437   5.578  13.446  0.1068 -0.5842 -0.3544
 8771TIP3    H147728   1.379   5.633  13.500  3.1188  1.9700  0.4047
 8771TIP3    H247729   1.442   5.623  13.362  0.8047 -0.8981 -0.4833
 8772TIP3   OH247730   5.935   6.380  15.953  0.0282 -0.1360 -0.7042
 8772TIP3    H147731   5.855   6.432  15.957 -0.1404 -0.3878 -0.8040
 8772TIP3    H247732   5.926   6.328  15.873  0.2928 -0.1597 -0.7183
 8773TIP3   OH247733   5.925   0.164  11.621 -0.6130 -0.8467  0.6742
 8773TIP3    H147734   5.932   0.152  11.526 -0.5112 -1.4909  0.7663
 8773TIP3    H247735   5.980   0.096  11.659 -0.4594 -0.4387  1.1967
 8774TIP3   OH247736   1.987   6.157   2.818  0.5539  0.0310  0.3449
 8774TIP3    H147737   1.987   6.253   2.826  2.6133  0.0154  0.8835
 8774TIP3    H247738   1.935   6.140   2.740  0.4877  1.6071  0.0148
 8775TIP3   OH247739   3.177   1.073   4.177  0.4829 -0.2046  0.4789
 8775TIP3    H147740   3.239   1.001   4.191  1.6939  0.5564 -0.7649
 8775TIP3    H247741   3.173   1.119   4.261  0.6911 -0.9599  0.9034
 8776TIP3   OH247742   1.637   0.365   2.375 -0.8505 -0.7688 -0.0857
 8776TIP3    H147743   1.642   0.389   2.283  0.4642  0.6801  0.3549
 8776TIP3    H247744   1.717   0.398   2.414 -0.9505 -2.1727  1.4126
 8777TIP3   OH247745   4.746   0.439   2.825  0.1812 -0.5150 -0.4310
 8777TIP3    H147746   4.757   0.529   2.794 -1.3810 -0.0407  0.3079
 8777TIP3    H247747   4.720   0.449   2.917  0.6713 -1.7481 -0.1555
 8778TIP3   OH247748   2.780   0.008   3.173 -0.4645 -0.2572  0.1300
 8778TIP3    H147749   2.788  -0.022   3.263 -1.3482  0.4163  0.4409
 8778TIP3    H247750   2.724  -0.057   3.130 -0.0417 -0.5790  0.0625
 8779TIP3   OH247751   2.780   2.833   4.012  0.0508  0.2545 -0.1032
 8779TIP3    H147752   2.710   2.774   3.984 -1.0598  2.2834 -1.6445
 8779TIP3    H247753   2.860   2.788   3.984 -0.7013 -1.1905 -0.0029
 8780TIP3   OH247754   3.615   4.736  12.001  0.1718  0.1850 -0.1116
 8780TIP3    H147755   3.707   4.722  12.024  0.0722 -0.1692  0.0728
 8780TIP3    H247756   3.606   4.697  11.914 -0.0769 -0.8265  0.3549
 8781TIP3   OH247757   1.265   5.067   3.273  0.1931  0.3276 -0.0153
 8781TIP3    H147758   1.358   5.074   3.294  0.4059 -0.7469 -0.5440
 8781TIP3    H247759   1.220   5.076   3.357  0.7814  0.7202  0.2598
 8782TIP3   OH247760   1.218   3.868  13.144 -0.1579 -0.1312 -0.0587
 8782TIP3    H147761   1.303   3.832  13.119 -0.6710 -1.4494  0.0565
 8782TIP3    H247762   1.230   3.898  13.234  0.1288 -0.4688  0.0135
 8783TIP3   OH247763   4.310   2.516  15.556 -0.4869  0.3028 -0.7470
 8783TIP3    H147764   4.389   2.466  15.533 -1.2240 -1.2914  0.1302
 8783TIP3    H247765   4.293   2.494  15.647 -2.3194  0.1250 -1.1064
 8784TIP3   OH247766   2.880   3.453   3.700  0.2904 -0.2656 -0.1285
 8784TIP3    H147767   2.853   3.500   3.621  0.3457 -1.1513 -0.6823
 8784TIP3    H247768   2.801   3.407   3.729 -0.0347  0.9577  0.9971
 8785TIP3   OH247769   2.893   4.472  14.887  0.9167 -0.2472 -0.0277
 8785TIP3    H147770   2.818   4.438  14.935  0.4510  2.0045  0.9115
 8785TIP3    H247771   2.855   4.511  14.807  0.8665  2.1176  1.0974
 8786TIP3   OH247772   2.178   1.393   4.113 -0.2348 -0.2110  0.9815
 8786TIP3    H147773   2.189   1.362   4.023  1.0872  0.7332  0.8080
 8786TIP3    H247774   2.086   1.378   4.132 -0.2056 -1.7850 -0.0185
 8787TIP3   OH247775   3.452   0.967  14.629 -0.2874  0.7812 -0.5085
 8787TIP3    H147776   3.481   1.009  14.548  1.6639  0.7096  0.1220
 8787TIP3    H247777   3.368   1.008  14.649 -0.3545  1.4471 -2.0837
 8788TIP3   OH247778   5.558   6.784  10.813  0.2383  0.2106 -0.2733
 8788TIP3    H147779   5.486   6.781  10.876  0.7641  1.4252  0.4046
 8788TIP3    H247780   5.614   6.855  10.844  0.7825  0.4876 -1.8299
 8789TIP3   OH247781   1.469   2.731  13.411  0.6660 -0.2530  0.5860
 8789TIP3    H147782   1.399   2.780  13.453 -0.0018 -0.2741 -0.4785
 8789TIP3    H247783   1.435   2.709  13.324  2.7703  1.5219 -0.7428
 8790TIP3   OH247784   4.206   6.404  12.284  1.1124  0.2521  0.3229
 8790TIP3    H147785   4.300   6.404  12.269  0.9220 -0.3503 -1.0115
 8790TIP3    H247786   4.179   6.494  12.267  1.5265  0.5745  1.3311
 8791TIP3   OH247787   4.092   3.649  14.383 -0.4249  0.1987 -0.2009
 8791TIP3    H147788   4.005   3.625  14.351 -1.4430  3.3220 -0.0540
 8791TIP3    H247789   4.113   3.583  14.449 -2.6766 -0.6520 -0.3006
 8792TIP3   OH247790   2.547   4.018  17.108  0.5149  0.2139 -0.0342
 8792TIP3    H147791   2.598   3.985  17.034  0.3937 -0.2832  0.0934
 8792TIP3    H247792   2.505   4.097  17.075  0.9927  0.3651 -0.2866
 8793TIP3   OH247793   2.714   2.015   0.137  0.6011 -0.0268  0.2808
 8793TIP3    H147794   2.743   2.054   0.219  2.1995 -3.7087  1.5739
 8793TIP3    H247795   2.795   2.003   0.086  0.0850 -1.0992 -0.3062
 8794TIP3   OH247796   1.159   2.128  16.945  0.8301  0.5818  0.0534
 8794TIP3    H147797   1.127   2.156  16.859 -1.2545  2.1470  1.2889
 8794TIP3    H247798   1.085   2.143  17.004  2.4606  0.1900  2.2432
 8795TIP3   OH247799   1.564   1.213   2.930 -0.5656 -0.2443 -0.4269
 8795TIP3    H147800   1.588   1.125   2.959 -1.2175 -0.4678 -0.5499
 8795TIP3    H247801   1.615   1.227   2.850 -0.1978 -0.3721 -0.2136
 8796TIP3   OH247802   3.036   3.820  11.658 -1.1510 -0.3569  0.0917
 8796TIP3    H147803   3.103   3.752  11.647 -0.9447 -0.0900 -0.2973
 8796TIP3    H247804   3.042   3.872  11.578  0.5147  1.7595  1.5641
 8797TIP3   OH247805   3.099   4.131  12.545  0.4701  0.9150 -0.4415
 8797TIP3    H147806   3.087   4.053  12.600 -0.4458  3.3042  2.8896
 8797TIP3    H247807   3.038   4.119  12.472 -1.9287 -0.0847  1.6503
 8798TIP3   OH247808   5.738   6.094  12.327 -0.4474 -0.0489  0.1081
 8798TIP3    H147809   5.756   6.039  12.251  0.6454 -2.6225  2.1537
 8798TIP3    H247810   5.825   6.122  12.358 -0.8941  1.2172  0.2472
 8799TIP3   OH247811   0.448   4.755   3.723 -0.1735 -0.2065  0.4637
 8799TIP3    H147812   0.449   4.758   3.818  1.1339 -0.8105  0.4871
 8799TIP3    H247813   0.450   4.847   3.696 -0.5821 -0.0337  1.0097
 8800TIP3   OH247814   5.293   6.366   3.346  0.3078 -0.0882  0.4538
 8800TIP3    H147815   5.352   6.376   3.421 -0.1492 -0.4903  0.8676
 8800TIP3    H247816   5.311   6.278   3.313 -1.4999 -1.0037  1.8302
 8801TIP3   OH247817   2.578   5.192  12.811  0.3674  0.4882 -0.2261
 8801TIP3    H147818   2.605   5.200  12.902  0.0361  1.5368 -0.2092
 8801TIP3    H247819   2.614   5.269  12.768 -2.8294  2.1629 -0.1154
 8802TIP3   OH247820   1.373   1.695  16.623 -0.1507  0.1971  0.1552
 8802TIP3    H147821   1.313   1.768  16.634  0.3682  0.6869 -0.1960
 8802TIP3    H247822   1.413   1.683  16.709 -0.7364 -0.1167  0.3837
 8803TIP3   OH247823   1.171   0.040   2.163  0.0824 -0.1397  0.0484
 8803TIP3    H147824   1.155   0.133   2.174  0.4241 -0.1877  1.0647
 8803TIP3    H247825   1.254   0.035   2.116  0.8393  0.0734  1.3262
 8804TIP3   OH247826   6.646   6.376   0.211 -0.2988  0.0885 -0.5126
 8804TIP3    H147827   6.656   6.463   0.174  0.2768  0.5763  0.7718
 8804TIP3    H247828   6.730   6.333   0.195 -0.2163  0.1313 -0.1849
 8805TIP3   OH247829   3.217   0.045   3.031  0.0433  0.0257  0.2518
 8805TIP3    H147830   3.301   0.067   3.071  0.5656 -0.0054 -0.8120
 8805TIP3    H247831   3.152   0.073   3.096  0.9044 -1.4400  1.7997
 8806TIP3   OH247832   0.850   0.660   6.682 -0.1009  0.5467  0.1854
 8806TIP3    H147833   0.868   0.572   6.716 -2.4807  0.5704  1.6114
 8806TIP3    H247834   0.901   0.719   6.737 -1.1051  0.3089  1.3683
 8807TIP3   OH247835   1.434   1.707  11.786  0.6860  0.2352 -0.6260
 8807TIP3    H147836   1.361   1.667  11.739  1.7507 -1.7338 -0.6376
 8807TIP3    H247837   1.454   1.646  11.857 -0.0053  2.5014  1.6024
 8808TIP3   OH247838   2.646   2.904  11.601  0.2613  0.6141 -0.1753
 8808TIP3    H147839   2.666   2.858  11.683 -1.2934  1.6771  0.8164
 8808TIP3    H247840   2.563   2.867  11.572  0.6536  0.4617 -1.1202
 8809TIP3   OH247841   6.578   4.644  16.879 -0.2188  0.0254  0.2562
 8809TIP3    H147842   6.654   4.700  16.862 -0.6986  1.0421  1.3820
 8809TIP3    H247843   6.611   4.555  16.868  1.2533  0.4437  1.1822
 8810TIP3   OH247844   4.664   5.449   1.220 -0.2581 -0.1075  0.3675
 8810TIP3    H147845   4.727   5.377   1.219 -0.1498 -0.0073  0.0461
 8810TIP3    H247846   4.617   5.438   1.302  0.1212 -0.2286  0.5691
 8811TIP3   OH247847   1.322   1.758  15.329  0.2470 -0.7253 -0.0481
 8811TIP3    H147848   1.301   1.731  15.418  0.0030 -2.1007 -0.5099
 8811TIP3    H247849   1.238   1.774  15.287  0.2292 -2.3357 -0.6973
 8812TIP3   OH247850   2.907   5.638  13.129  0.0911  0.4484  0.0411
 8812TIP3    H147851   2.888   5.599  13.044  1.4192  1.9473 -0.9740
 8812TIP3    H247852   2.821   5.655  13.167 -0.5126 -0.9757 -0.6372
 8813TIP3   OH247853   0.626   6.237  12.509 -0.6309 -0.3478  0.4152
 8813TIP3    H147854   0.565   6.216  12.438  0.0970 -0.0073 -0.3131
 8813TIP3    H247855   0.571   6.241  12.587 -1.5610  0.0847 -0.2582
 8814TIP3   OH247856   2.587   3.090  10.894 -0.3367  0.1135 -0.0984
 8814TIP3    H147857   2.679   3.112  10.907  0.0349 -1.1390 -0.5074
 8814TIP3    H247858   2.583   2.994  10.904 -1.6018  0.1666  0.0155
 8815TIP3   OH247859   3.925   2.990   3.799 -0.0291  0.0225 -0.2653
 8815TIP3    H147860   3.933   3.009   3.892 -0.4462  1.5343 -0.5352
 8815TIP3    H247861   3.991   2.922   3.783  2.7355  2.4394  0.3917
 8816TIP3   OH247862   4.632   6.320  17.059  0.2641 -0.4210  0.1176
 8816TIP3    H147863   4.628   6.387  16.991 -2.1878  0.2947  0.8843
 8816TIP3    H247864   4.709   6.268  17.038  3.3242  3.7209  0.5395
 8817TIP3   OH247865   1.351   1.190   4.861 -0.4182  0.1280 -0.2137
 8817TIP3    H147866   1.356   1.256   4.792  0.0951  0.3137 -0.0024
 8817TIP3    H247867   1.362   1.107   4.815  0.7728  0.3006 -0.2577
 8818TIP3   OH247868   1.249   1.609  13.878 -0.4205 -0.4901  0.2814
 8818TIP3    H147869   1.281   1.687  13.923 -2.2306 -0.5280  1.6764
 8818TIP3    H247870   1.282   1.535  13.930  0.1992 -0.6345 -0.3040
 8819TIP3   OH247871   1.818   5.961  12.506  0.1956 -0.5477  0.0248
 8819TIP3    H147872   1.755   5.965  12.579 -0.0517 -1.0204 -0.1569
 8819TIP3    H247873   1.834   6.053  12.483 -1.6927 -0.4300 -0.9970
 8820TIP3   OH247874   1.813   5.678   3.669  0.0217  0.0417 -0.3750
 8820TIP3    H147875   1.769   5.604   3.627 -0.0288 -0.1527  0.0221
 8820TIP3    H247876   1.742   5.738   3.692  0.0929  0.3653 -0.9960
 8821TIP3   OH247877   2.968   4.790   4.627 -0.1072 -0.2321  0.1115
 8821TIP3    H147878   2.994   4.870   4.674  1.4860 -0.1752 -0.8152
 8821TIP3    H247879   2.899   4.819   4.567 -0.4908  0.1718  0.7405
 8822TIP3   OH247880   5.416   6.580   4.863  0.3572  0.1372  0.2522
 8822TIP3    H147881   5.437   6.672   4.852  2.6292 -0.5380 -1.4243
 8822TIP3    H247882   5.323   6.573   4.841 -0.1361  2.2076  1.6209
 8823TIP3   OH247883   1.291   2.604  16.784 -0.8420 -0.1472 -0.2712
 8823TIP3    H147884   1.202   2.609  16.820 -0.4177  3.8822  0.4823
 8823TIP3    H247885   1.346   2.580  16.858 -1.0626 -0.7402 -0.2982
 8824TIP3   OH247886   0.060   3.240   2.492 -0.2760 -0.3027  0.3155
 8824TIP3    H147887   0.080   3.290   2.572 -1.2558  0.5657  0.0278
 8824TIP3    H247888   0.101   3.154   2.507  2.3944  0.9100  0.3484
 8825TIP3   OH247889   5.138   6.519  11.601 -0.4608 -0.3222 -0.4156
 8825TIP3    H147890   5.057   6.559  11.633 -1.1044 -1.8174 -0.1095
 8825TIP3    H247891   5.124   6.509  11.507  0.1683  1.2229 -0.6756
 8826TIP3   OH247892   1.253   5.745  13.575 -0.6363 -0.6911 -0.4415
 8826TIP3    H147893   1.174   5.692  13.581 -1.2487  0.2446 -0.0758
 8826TIP3    H247894   1.229   5.816  13.514 -0.3394  0.0262  0.2692
 8827TIP3   OH247895   0.768   2.341  15.401 -0.0572 -0.2238  0.1971
 8827TIP3    H147896   0.699   2.392  15.444  1.6627  1.2211  1.3625
 8827TIP3    H247897   0.784   2.268  15.461 -0.3999 -0.3919  0.0768
 8828TIP3   OH247898   1.643   1.548   0.487  0.0609 -0.0156 -0.0255
 8828TIP3    H147899   1.553   1.525   0.462  0.6613 -1.3103 -1.0737
 8828TIP3    H247900   1.650   1.520   0.578  0.4826 -3.3311 -0.9827
 8829TIP3   OH247901   0.954   1.453  11.523  0.3607  0.1573  0.3718
 8829TIP3    H147902   0.967   1.368  11.565 -0.3232  0.4137  1.1231
 8829TIP3    H247903   0.959   1.516  11.595  1.5712  0.8146 -0.2917
 8830TIP3   OH247904   4.375   6.082   0.380 -0.3955  0.3741 -0.4627
 8830TIP3    H147905   4.470   6.073   0.380 -0.2883  1.4428  1.3458
 8830TIP3    H247906   4.343   5.994   0.400  0.1419 -0.3555 -2.6513
 8831TIP3   OH247907   0.773   3.470  10.819  0.0144 -0.0937 -0.3612
 8831TIP3    H147908   0.727   3.416  10.756 -0.7279 -0.1641  0.2360
 8831TIP3    H247909   0.786   3.413  10.895 -1.7377  0.8591  0.6957
 8832TIP3   OH247910   6.095   2.163   3.567 -0.3532  1.1146 -0.3510
 8832TIP3    H147911   6.030   2.175   3.635 -1.5240 -0.0695 -1.2407
 8832TIP3    H247912   6.047   2.123   3.494  1.6368 -1.0052 -0.5393
 8833TIP3   OH247913   2.207   2.626   3.291  0.0052 -0.0248 -0.5129
 8833TIP3    H147914   2.194   2.687   3.364 -1.3297  1.5468 -2.0362
 8833TIP3    H247915   2.119   2.605   3.261  0.4993 -1.8336 -0.7310
 8834TIP3   OH247916   3.747   6.714   5.248  0.2320 -0.3467 -0.1968
 8834TIP3    H147917   3.656   6.739   5.235  0.1727 -0.4099  0.0956
 8834TIP3    H247918   3.781   6.779   5.309  0.2931 -0.5187 -0.0488
 8835TIP3   OH247919   2.645   6.470   3.639 -0.0337  0.1167  0.0059
 8835TIP3    H147920   2.663   6.517   3.557  1.1739  1.0402  0.7894
 8835TIP3    H247921   2.703   6.394   3.635  0.5896  0.5709  0.3510
 8836TIP3   OH247922   1.488   0.637   5.141  0.4033 -0.3470 -0.4759
 8836TIP3    H147923   1.581   0.644   5.120  0.4249 -2.4917 -1.1652
 8836TIP3    H247924   1.461   0.727   5.160  2.9523  0.1123  1.2166
 8837TIP3   OH247925   5.529   1.287   1.153 -0.0924  0.0375 -0.3146
 8837TIP3    H147926   5.566   1.201   1.174 -0.0153  0.3178  0.6893
 8837TIP3    H247927   5.593   1.349   1.186  0.1568  0.4779 -1.6125
 8838TIP3   OH247928   1.804   2.205   4.254 -0.0601 -0.8224  0.5057
 8838TIP3    H147929   1.875   2.146   4.230 -0.9383 -1.7870  0.2358
 8838TIP3    H247930   1.847   2.276   4.301  1.1609 -1.0611 -0.2236
 8839TIP3   OH247931   3.656   4.858   0.838 -0.0406 -0.1323  0.5854
 8839TIP3    H147932   3.712   4.806   0.897 -1.8959 -1.4385  1.2436
 8839TIP3    H247933   3.701   4.854   0.754  1.2115 -0.6078  1.2571
 8840TIP3   OH247934   3.237   0.432   6.295  0.6995 -0.4686  0.2770
 8840TIP3    H147935   3.271   0.384   6.371 -1.4936  0.0605  1.6660
 8840TIP3    H247936   3.278   0.518   6.301  1.0689 -0.6586  0.4743
 8841TIP3   OH247937   6.215   5.145  13.956 -0.1799 -0.1083 -0.6848
 8841TIP3    H147938   6.189   5.191  13.876 -3.4419  0.6166  0.7307
 8841TIP3    H247939   6.255   5.064  13.924 -0.4859  0.6349 -3.0798
 8842TIP3   OH247940   3.030   1.423  10.346  0.0034 -0.1938 -0.3465
 8842TIP3    H147941   3.059   1.511  10.322 -1.6982  0.6970  0.7401
 8842TIP3    H247942   3.057   1.413  10.437 -1.9034  0.1630  0.2824
 8843TIP3   OH247943   1.679   0.151  16.531 -0.4033  0.2355 -0.1661
 8843TIP3    H147944   1.670   0.057  16.515  0.0474  0.0193  0.7810
 8843TIP3    H247945   1.619   0.192  16.469 -1.5645 -0.7470  0.2861
 8844TIP3   OH247946   4.467   6.767   4.930  0.2168  0.3452  0.5676
 8844TIP3    H147947   4.498   6.721   5.008  2.2312 -1.7695 -1.3973
 8844TIP3    H247948   4.542   6.819   4.902 -0.2836  0.5602 -0.3760
 8845TIP3   OH247949   0.181   1.729   0.384  0.2704 -0.2764 -0.5044
 8845TIP3    H147950   0.264   1.775   0.369  0.5614 -0.3480  0.8389
 8845TIP3    H247951   0.124   1.759   0.313  0.7983  1.3399 -0.2708
 8846TIP3   OH247952   1.063   3.452   5.804  0.6087 -0.0891 -0.2631
 8846TIP3    H147953   1.134   3.420   5.749  0.1798 -1.3134 -0.1215
 8846TIP3    H247954   0.990   3.393   5.785 -0.1265  0.6623  0.1890
 8847TIP3   OH247955   6.102   4.232  12.036 -0.4489 -0.2712  0.2112
 8847TIP3    H147956   6.186   4.190  12.019 -1.0997 -2.5447  2.2343
 8847TIP3    H247957   6.068   4.254  11.950  1.9744  0.2328 -0.6665
 8848TIP3   OH247958   0.828   5.281  12.321  0.0847  0.0967  1.1731
 8848TIP3    H147959   0.800   5.237  12.240 -1.3092  0.5849  1.3807
 8848TIP3    H247960   0.921   5.299  12.308 -0.4025  1.2372 -0.8077
 8849TIP3   OH247961   3.712   6.644   3.850 -0.3101 -0.2020 -0.0657
 8849TIP3    H147962   3.747   6.666   3.764 -0.2305 -1.3934 -0.3498
 8849TIP3    H247963   3.781   6.592   3.891 -0.7672 -0.5199  0.3031
 8850TIP3   OH247964   4.553   3.908   4.999  0.0259  0.0694  0.6417
 8850TIP3    H147965   4.468   3.878   4.967  0.7300 -1.0229 -0.2156
 8850TIP3    H247966   4.589   3.834   5.046  0.5047  0.5417  1.0267
 8851TIP3   OH247967   4.279   0.869   2.015  0.4638 -0.2396  0.4526
 8851TIP3    H147968   4.321   0.787   2.039 -0.9855 -1.1427 -0.0132
 8851TIP3    H247969   4.201   0.873   2.070  0.5076  0.8202  0.4515
 8852TIP3   OH247970   5.436   6.553  16.865 -0.4863 -0.2986 -0.4178
 8852TIP3    H147971   5.529   6.551  16.888 -0.3310 -0.0813 -1.0171
 8852TIP3    H247972   5.413   6.646  16.866 -0.0810 -0.1430 -2.6734
 8853TIP3   OH247973   3.774   1.411  14.409  0.0428  0.5225  0.2408
 8853TIP3    H147974   3.733   1.468  14.474  0.2589 -0.0684  0.9037
 8853TIP3    H247975   3.705   1.395  14.344  0.9322  4.1583 -1.7041
 8854TIP3   OH247976   5.796   5.312  10.940 -0.1422 -0.0206  0.5521
 8854TIP3    H147977   5.796   5.376  11.012 -0.1816  1.4491 -0.7319
 8854TIP3    H247978   5.703   5.292  10.926 -0.3838  2.1941 -1.2462
 8855TIP3   OH247979   5.426   0.951   2.995 -0.6946 -0.1900 -0.2262
 8855TIP3    H147980   5.361   1.011   2.959 -0.4938 -0.4949 -1.0989
 8855TIP3    H247981   5.476   0.920   2.919 -0.9611 -1.6518  0.1731
 8856TIP3   OH247982   5.972   0.482  16.642 -0.3845  0.4100  0.4358
 8856TIP3    H147983   6.038   0.506  16.577 -1.3723 -0.0777 -0.7887
 8856TIP3    H247984   5.944   0.394  16.615 -0.4247 -0.0222  1.8491
 8857TIP3   OH247985   4.462   2.982   2.389 -0.3276 -0.4445 -0.2671
 8857TIP3    H147986   4.474   2.934   2.307 -1.1616 -0.3234 -0.4681
 8857TIP3    H247987   4.506   3.066   2.375  0.1870 -0.7190 -0.3134
 8858TIP3   OH247988   4.593   4.509   3.971  0.2219 -0.3061  0.8267
 8858TIP3    H147989   4.670   4.490   4.024  0.9113  1.4763  0.5100
 8858TIP3    H247990   4.568   4.598   3.996 -0.1838  0.0916 -0.9396
 8859TIP3   OH247991   3.561   2.551   3.253 -0.3194 -0.1176  0.2914
 8859TIP3    H147992   3.586   2.542   3.161  0.3138  0.5863  0.3908
 8859TIP3    H247993   3.473   2.513   3.258  0.0259 -1.0278 -0.4074
 8860TIP3   OH247994   6.668   5.719  12.016 -0.3705 -0.0540 -0.0574
 8860TIP3    H147995   6.605   5.649  12.000 -1.4533  1.2903 -1.9372
 8860TIP3    H247996   6.689   5.753  11.929  1.0311  1.1723  0.7328
 8861TIP3   OH247997   4.845   5.699   0.280 -0.1616  0.2701  0.6737
 8861TIP3    H147998   4.761   5.657   0.299  0.6693 -1.3796  0.7794
 8861TIP3    H247999   4.835   5.787   0.316 -1.7000 -0.0301  1.0566
 8862TIP3   OH248000   2.317   6.684   0.673 -0.4040  0.2321 -0.2192
 8862TIP3    H148001   2.244   6.630   0.645 -1.0582 -0.5675  2.8173
 8862TIP3    H248002   2.334   6.743   0.599 -3.0546 -0.6261 -1.5619
 8863TIP3   OH248003   5.354   1.811  17.114 -0.3162 -0.7858  0.1131
 8863TIP3    H148004   5.346   1.857  17.198 -0.4310  1.1316 -0.9155
 8863TIP3    H248005   5.447   1.793  17.105 -0.2399 -0.5423  0.4156
 8864TIP3   OH248006   0.511   3.563  15.720  0.2571  0.0686 -0.0126
 8864TIP3    H148007   0.463   3.530  15.644  0.8252 -1.0494  0.0978
 8864TIP3    H248008   0.596   3.590  15.685  0.5682 -0.5723  0.2378
 8865TIP3   OH248009   1.457   6.341  12.820  0.4669  0.1204  0.4232
 8865TIP3    H148010   1.411   6.279  12.762  0.6657  0.6322 -0.2955
 8865TIP3    H248011   1.541   6.357  12.776  0.7244  0.3286  0.9846
 8866TIP3   OH248012   0.347   2.033  15.134  0.2206  0.2049  0.0851
 8866TIP3    H148013   0.439   2.018  15.111  0.4751  2.2357 -0.3154
 8866TIP3    H248014   0.349   2.055  15.227 -0.0299 -1.1592  0.4193
 8867TIP3   OH248015   3.748   3.778   6.024  0.0166  0.1052  0.4138
 8867TIP3    H148016   3.816   3.770   6.090  0.5737 -1.2818 -0.3064
 8867TIP3    H248017   3.787   3.743   5.944 -0.8360  1.2322 -0.5279
 8868TIP3   OH248018   1.949   4.826   6.143  0.1498 -0.2316 -0.0609
 8868TIP3    H148019   1.994   4.749   6.179  1.5530  0.9795  0.8609
 8868TIP3    H248020   1.857   4.800   6.140  0.5450 -1.8273  0.5594
 8869TIP3   OH248021   3.112   4.230   3.902  0.6743  0.2317  0.4719
 8869TIP3    H148022   3.088   4.320   3.878 -0.6908 -0.1424  0.3670
 8869TIP3    H248023   3.100   4.180   3.821  2.0082  0.0547  0.3733
 8870TIP3   OH248024   1.206   6.522  13.824  0.0319 -0.0675  0.0998
 8870TIP3    H148025   1.199   6.553  13.914  3.4521 -0.5198  0.6097
 8870TIP3    H248026   1.197   6.600  13.770  0.1114  0.5280  0.9449
 8871TIP3   OH248027   3.602   3.355   0.772 -0.1401  0.5091 -0.0319
 8871TIP3    H148028   3.624   3.300   0.848  0.7949 -0.0470 -0.7000
 8871TIP3    H248029   3.675   3.343   0.711 -1.0459  0.6961 -1.1708
 8872TIP3   OH248030   5.006   0.644  16.204 -0.2056  0.2737 -0.1312
 8872TIP3    H148031   5.049   0.610  16.125  2.4578 -1.7672  2.0800
 8872TIP3    H248032   5.018   0.739  16.199  2.6382 -0.0640 -0.7163
 8873TIP3   OH248033   3.391   3.858   6.894  0.6743 -0.4365 -0.7926
 8873TIP3    H148034   3.308   3.867   6.847  0.4648  2.4195  0.0199
 8873TIP3    H248035   3.374   3.790   6.959 -1.0524  0.1215 -0.6303
 8874TIP3   OH248036   0.841   6.164  15.817  0.5031  0.0875  0.4924
 8874TIP3    H148037   0.877   6.227  15.756 -0.2774  0.8772  0.8348
 8874TIP3    H248038   0.746   6.170  15.804  0.4682 -1.8944 -0.3477
 8875TIP3   OH248039   1.362   4.492  12.315  0.5370  0.4621 -0.4443
 8875TIP3    H148040   1.351   4.550  12.240 -2.3843  0.6198  0.0793
 8875TIP3    H248041   1.368   4.404  12.277  1.5733  0.7711 -1.0053
 8876TIP3   OH248042   1.902   6.401  15.915 -0.8990 -0.4343  0.3134
 8876TIP3    H148043   1.855   6.388  15.833 -0.3137 -1.1478  0.0867
 8876TIP3    H248044   1.988   6.434  15.889  0.3869 -3.4592  0.3992
 8877TIP3   OH248045   3.050   4.200   6.782 -0.0899  0.2210  0.0621
 8877TIP3    H148046   2.993   4.154   6.720 -0.4549 -0.2634  0.7501
 8877TIP3    H248047   3.078   4.278   6.735 -1.2952  0.4452 -0.2986
 8878TIP3   OH248048   6.271   5.501   2.312 -0.2287 -0.2820  0.7150
 8878TIP3    H148049   6.225   5.584   2.319 -0.9420 -0.8403  3.1125
 8878TIP3    H248050   6.236   5.461   2.232 -1.6030  0.6861  0.8131
 8879TIP3   OH248051   2.588   1.056  16.020  0.1107  0.6909  0.0963
 8879TIP3    H148052   2.519   1.116  16.047 -1.5306 -1.1560  0.0756
 8879TIP3    H248053   2.643   1.046  16.098 -0.1242  1.4663  0.3669
 8880TIP3   OH248054   4.674   1.103   4.630  0.2666 -0.2226 -0.2697
 8880TIP3    H148055   4.720   1.186   4.645 -0.0077 -0.0253 -0.5107
 8880TIP3    H248056   4.713   1.042   4.692 -0.6753  0.5232  1.0926
 8881TIP3   OH248057   5.460   3.987   2.114  0.4243 -0.2745 -0.7519
 8881TIP3    H148058   5.376   3.993   2.068  0.3010 -1.6523 -0.7396
 8881TIP3    H248059   5.522   4.033   2.057 -0.3708  0.9655 -0.6414
 8882TIP3   OH248060   6.081   3.616   2.713 -0.5612  0.4619  0.7118
 8882TIP3    H148061   6.018   3.575   2.654  1.1420  1.2677 -1.7228
 8882TIP3    H248062   6.084   3.558   2.789 -2.1999 -1.0064 -0.3149
 8883TIP3   OH248063   5.322   4.716  13.018 -0.3330  0.7174 -0.0032
 8883TIP3    H148064   5.310   4.810  13.003  0.1433  0.5918 -1.1780
 8883TIP3    H248065   5.236   4.678  13.002 -0.7069  1.0321  1.1845
 8884TIP3   OH248066   5.386   3.763   1.920  0.3195  0.3047  0.2868
 8884TIP3    H148067   5.355   3.737   1.833 -0.6285  1.7760  0.1675
 8884TIP3    H248068   5.472   3.801   1.905  1.2094 -1.6576  0.3159
 8885TIP3   OH248069   5.312   2.645   5.268 -0.0714 -0.6171  0.3434
 8885TIP3    H148070   5.272   2.726   5.235  0.5106 -0.7357 -0.6827
 8885TIP3    H248071   5.242   2.602   5.316 -0.5466  0.2356  0.4262
 8886TIP3   OH248072   4.809   4.600  15.293  0.1845 -0.1684 -0.0264
 8886TIP3    H148073   4.759   4.681  15.305  0.8788  0.0753  1.3520
 8886TIP3    H248074   4.742   4.534  15.275 -0.5797  0.3290  0.8887
 8887TIP3   OH248075   0.647   3.140   5.216  0.1281  0.1820  0.2127
 8887TIP3    H148076   0.587   3.101   5.152  0.0585  0.1496  0.2978
 8887TIP3    H248077   0.734   3.125   5.180  0.1721 -1.0493  0.7867
 8888TIP3   OH248078   2.074   5.634  11.550  0.8719 -0.6473 -0.3704
 8888TIP3    H148079   2.163   5.669  11.559  0.4451  0.4505 -0.2872
 8888TIP3    H248080   2.018   5.712  11.553 -0.2075 -1.4656  1.2677
 8889TIP3   OH248081   0.792   6.785   2.992  0.2099  0.5271 -0.0511
 8889TIP3    H148082   0.752   6.868   3.021 -1.0725  0.3037 -1.1524
 8889TIP3    H248083   0.882   6.790   3.023 -0.3222  1.6081  1.3669
 8890TIP3   OH248084   6.071   3.416  12.267  0.0692  0.3628 -0.0776
 8890TIP3    H148085   6.141   3.480  12.253 -0.6943  1.2586  0.2198
 8890TIP3    H248086   6.084   3.352  12.196  2.4023 -0.5764  1.1186
 8891TIP3   OH248087   4.562   0.214  12.181 -0.1885 -0.6841 -0.4700
 8891TIP3    H148088   4.657   0.225  12.188 -0.1601  0.4865 -2.5480
 8891TIP3    H248089   4.532   0.210  12.272  1.6619  0.6330  0.2291
 8892TIP3   OH248090   6.099   4.579   2.072 -0.2539 -0.5147  0.2772
 8892TIP3    H148091   6.193   4.592   2.084 -0.0318 -1.3150 -0.5607
 8892TIP3    H248092   6.060   4.609   2.154  0.7349 -0.2258  0.6491
 8893TIP3   OH248093   1.264   6.676   1.463  0.4354  0.1856  0.5371
 8893TIP3    H148094   1.290   6.765   1.486 -0.5182  0.0941  2.0105
 8893TIP3    H248095   1.229   6.684   1.374  2.7790  0.7907 -0.3811
 8894TIP3   OH248096   5.538   4.825   5.399 -0.1757  0.1474 -0.4944
 8894TIP3    H148097   5.631   4.830   5.422 -0.9796  2.3811  2.6845
 8894TIP3    H248098   5.500   4.766   5.464 -1.1020 -0.1073 -1.2615
 8895TIP3   OH248099   3.349   5.250   4.587 -0.3303 -0.1484  0.0044
 8895TIP3    H148100   3.438   5.237   4.620 -0.2573 -2.7982 -1.1186
 8895TIP3    H248101   3.355   5.328   4.531  0.9354  0.5361  1.0526
 8896TIP3   OH248102   4.729   3.841   0.463  0.0277 -0.3631  0.2076
 8896TIP3    H148103   4.663   3.809   0.401  0.0513  1.2407 -0.6758
 8896TIP3    H248104   4.681   3.899   0.522  0.1771 -1.1870  1.1420
 8897TIP3   OH248105   2.606   6.273   6.541 -0.2841 -1.1604 -0.1527
 8897TIP3    H148106   2.642   6.237   6.461 -1.3416 -0.1494 -1.1056
 8897TIP3    H248107   2.522   6.228   6.552  0.6433 -2.5913  1.3710
 8898TIP3   OH248108   1.742   3.555  11.372 -0.3647  0.3790  0.4506
 8898TIP3    H148109   1.672   3.499  11.338  0.6400  1.3876 -3.5853
 8898TIP3    H248110   1.810   3.495  11.401 -1.2643 -0.5192  0.7353
 8899TIP3   OH248111   1.692   2.168   0.970  0.1133 -0.2987 -0.4075
 8899TIP3    H148112   1.769   2.134   0.926  0.2019 -0.3984 -0.1708
 8899TIP3    H248113   1.724   2.203   1.053 -0.4245 -2.2810  0.6488
 8900TIP3   OH248114   3.742   3.997   3.922 -0.4509  0.1577 -0.1115
 8900TIP3    H148115   3.684   4.029   3.853 -0.3507  2.2760  0.7341
 8900TIP3    H248116   3.696   4.018   4.003  0.6824  0.2226  0.5227
 8901TIP3   OH248117   6.206   5.850   6.015 -0.3523 -0.1844  0.5010
 8901TIP3    H148118   6.225   5.788   6.085 -1.2424 -0.2003  0.7376
 8901TIP3    H248119   6.143   5.911   6.053  0.0489  0.5016  0.0786
 8902TIP3   OH248120   6.591   1.257   1.032 -0.0598 -0.1052  0.0314
 8902TIP3    H148121   6.500   1.236   1.012  0.2177 -2.2558  0.8815
 8902TIP3    H248122   6.599   1.242   1.127  1.4115 -0.8401 -0.2002
 8903TIP3   OH248123   4.399   4.957  13.038  0.3647  0.2350 -0.1314
 8903TIP3    H148124   4.476   4.960  13.095 -1.4076  0.4086  2.2984
 8903TIP3    H248125   4.345   5.031  13.065 -1.2744 -0.6394 -0.9058
 8904TIP3   OH248126   1.583   1.241  13.238 -0.3752  0.2023  0.1944
 8904TIP3    H148127   1.536   1.164  13.269  1.8725 -0.5460  1.8189
 8904TIP3    H248128   1.585   1.231  13.143 -2.3161 -0.4015  0.1917
 8905TIP3   OH248129   0.964   1.771   6.254 -0.2335 -0.4298 -0.2804
 8905TIP3    H148130   0.960   1.845   6.314 -0.3691 -0.1047 -0.6880
 8905TIP3    H248131   0.979   1.695   6.310 -1.4695 -0.2749  0.2752
 8906TIP3   OH248132   4.912   6.767   3.773 -0.2613  0.1087 -0.2984
 8906TIP3    H148133   4.985   6.796   3.827 -0.4101 -1.0579  0.5561
 8906TIP3    H248134   4.952   6.708   3.709 -0.4292 -0.4006  0.0658
 8907TIP3   OH248135   3.175   0.942  13.234 -0.4112  0.3293  0.1705
 8907TIP3    H148136   3.193   0.924  13.142  0.4145 -0.7225  0.5161
 8907TIP3    H248137   3.125   0.866  13.264  1.4870 -0.5708  1.1930
 8908TIP3   OH248138   2.333   2.704   0.897  0.9904  0.3037 -0.0550
 8908TIP3    H148139   2.393   2.682   0.825  1.2639  0.5788  0.0892
 8908TIP3    H248140   2.328   2.799   0.895 -0.0252  0.2431 -0.5361
 8909TIP3   OH248141   2.699   0.328   5.008 -0.4712 -0.3875  0.9147
 8909TIP3    H148142   2.684   0.277   5.087 -0.4344 -0.1987  1.0469
 8909TIP3    H248143   2.791   0.313   4.986 -0.6175 -0.8360  0.6215
 8910TIP3   OH248144   3.111   1.876   2.220 -0.0037  0.3946  0.0353
 8910TIP3    H148145   3.187   1.930   2.201 -0.4367  1.1610  0.4433
 8910TIP3    H248146   3.085   1.901   2.309 -1.2686  0.8031 -0.4299
 8911TIP3   OH248147   2.253   6.457  15.336 -0.2219 -0.5972 -0.4985
 8911TIP3    H148148   2.207   6.430  15.256 -1.7375 -0.7202  0.3981
 8911TIP3    H248149   2.273   6.550  15.322 -1.0010 -0.4705 -0.7645
 8912TIP3   OH248150   5.305   4.742  12.601  0.0166  0.7536  0.2814
 8912TIP3    H148151   5.235   4.750  12.666 -0.9454 -0.6731 -0.5587
 8912TIP3    H248152   5.314   4.648  12.587  1.3758  0.9816 -0.4098
 8913TIP3   OH248153   0.211   0.418   1.144  0.2353  0.2158 -0.1116
 8913TIP3    H148154   0.157   0.390   1.218 -0.2202  0.3647 -0.3857
 8913TIP3    H248155   0.290   0.365   1.151  0.0420 -0.0255  0.2750
 8914TIP3   OH248156   1.458   6.730  11.795  0.0404 -0.5945 -0.2412
 8914TIP3    H148157   1.399   6.797  11.830  0.0762 -0.2245 -0.8856
 8914TIP3    H248158   1.471   6.754  11.703  1.0757 -0.7566 -0.1478
 8915TIP3   OH248159   6.561   4.681   0.442  0.2346 -0.0125  0.2696
 8915TIP3    H148160   6.491   4.747   0.442  0.1850 -0.0300 -1.8163
 8915TIP3    H248161   6.640   4.730   0.466 -0.3234  0.1547  1.8724
 8916TIP3   OH248162   2.810   1.274  14.746  0.3792 -0.6485  0.3181
 8916TIP3    H148163   2.905   1.282  14.752  0.2580  0.1352  1.4219
 8916TIP3    H248164   2.778   1.363  14.761 -0.5072 -0.7975 -0.6215
 8917TIP3   OH248165   5.760   6.365  11.700  0.2309  0.2762  0.1736
 8917TIP3    H148166   5.666   6.351  11.713 -0.2708  2.7537 -0.5594
 8917TIP3    H248167   5.787   6.420  11.773  0.6763  1.2135 -0.6845
 8918TIP3   OH248168   0.658   3.001  14.910 -0.0376 -0.0631  0.6343
 8918TIP3    H148169   0.616   2.988  14.995  1.0080  0.0827  1.1765
 8918TIP3    H248170   0.638   3.092  14.887  0.4322  0.1780  1.1507
 8919TIP3   OH248171   6.484   1.823   0.162 -0.1401  0.4437  0.0445
 8919TIP3    H148172   6.395   1.795   0.139 -0.2284  0.9456 -0.2331
 8919TIP3    H248173   6.476   1.858   0.251  0.1001 -1.0221  0.6578
 8920TIP3   OH248174   1.378   1.942   4.044 -0.5388  0.5572  0.9152
 8920TIP3    H148175   1.346   1.902   3.963  0.7985  0.3900  0.4522
 8920TIP3    H248176   1.319   2.016   4.059 -0.6983  0.6868 -0.3077
 8921TIP3   OH248177   3.091   2.335  13.401 -0.0092  0.3323  0.3909
 8921TIP3    H148178   3.109   2.388  13.479 -0.5318  0.9683  0.0811
 8921TIP3    H248179   3.177   2.321  13.362 -0.0516  2.4537 -0.4879
 8922TIP3   OH248180   0.200   4.180   1.970  0.2721 -0.3247 -0.0339
 8922TIP3    H148181   0.109   4.187   1.997  0.2929  0.5340 -0.1733
 8922TIP3    H248182   0.202   4.219   1.882  0.5380 -1.4741 -0.5589
 8923TIP3   OH248183   2.435   3.830   0.773 -0.5198  0.0883  0.6294
 8923TIP3    H148184   2.482   3.802   0.852  0.1882 -0.5682 -0.0288
 8923TIP3    H248185   2.504   3.862   0.715 -0.7565 -1.9142 -0.7891
 8924TIP3   OH248186   3.686   3.061   6.634  0.3177  0.1545 -0.4971
 8924TIP3    H148187   3.718   3.098   6.551  1.5558 -1.3742 -0.7271
 8924TIP3    H248188   3.614   3.119   6.660  1.7651  2.2996 -1.1786
 8925TIP3   OH248189   2.267   0.477  11.669  0.0645 -0.4240  0.3380
 8925TIP3    H148190   2.247   0.460  11.761 -2.7087  1.1171  0.0561
 8925TIP3    H248191   2.299   0.567  11.667  0.9362 -0.7295 -0.1273
 8926TIP3   OH248192   3.946   4.738   3.016 -0.1490 -0.3412  0.7170
 8926TIP3    H148193   4.038   4.734   2.990 -0.3841  0.0897 -0.1892
 8926TIP3    H248194   3.919   4.646   3.022  0.1869 -0.4601  0.4359
 8927TIP3   OH248195   5.974   1.131  15.555 -0.5870 -0.4472  0.5256
 8927TIP3    H148196   5.951   1.205  15.612 -1.3911 -0.0100 -0.3567
 8927TIP3    H248197   5.892   1.105  15.514  0.2498  0.4152 -1.8131
 8928TIP3   OH248198   3.184   0.179   0.999 -0.3024  0.6163 -0.1012
 8928TIP3    H148199   3.120   0.214   0.937  1.6086  2.1581 -1.2412
 8928TIP3    H248200   3.235   0.115   0.948 -2.1559 -2.1010  1.3176
 8929TIP3   OH248201   0.086   2.924   0.739 -0.3996  0.2509  0.4257
 8929TIP3    H148202   0.079   2.917   0.644 -1.0104  0.2606  0.4723
 8929TIP3    H248203   0.170   2.969   0.752 -1.0343  1.6364 -0.1624
 8930TIP3   OH248204   6.450   0.496   3.021 -0.1432 -0.3890  0.2345
 8930TIP3    H148205   6.417   0.427   3.079 -1.4368  0.5111  0.6001
 8930TIP3    H248206   6.487   0.562   3.080 -0.7070  0.1425  0.0016
 8931TIP3   OH248207   1.725   1.542  11.711 -0.7270 -0.0788  0.0551
 8931TIP3    H148208   1.776   1.605  11.761 -0.3063 -0.1059 -0.3375
 8931TIP3    H248209   1.780   1.521  11.636 -0.1501 -2.2064  1.0567
 8932TIP3   OH248210   5.884   0.371   1.411 -0.0183 -0.1967  1.3633
 8932TIP3    H148211   5.974   0.379   1.442  0.5127  2.4848 -0.6414
 8932TIP3    H248212   5.877   0.437   1.342 -3.4808 -0.4573  1.3862
 8933TIP3   OH248213   1.324   1.148   3.828 -0.2059 -0.2802  0.6315
 8933TIP3    H148214   1.345   1.061   3.792  1.3557 -0.2777  1.4767
 8933TIP3    H248215   1.313   1.133   3.922  0.4186  0.4964  0.8308
 8934TIP3   OH248216   5.419   5.903   0.005 -0.3069  0.0228 -0.0808
 8934TIP3    H148217   5.341   5.915  -0.049 -0.3000 -2.0816 -0.6064
 8934TIP3    H248218   5.491   5.939  -0.047 -0.3711 -1.5481 -1.2735
 8935TIP3   OH248219   0.462   6.686  15.653 -0.1642 -0.2955  0.2856
 8935TIP3    H148220   0.437   6.705  15.562  1.2428 -0.1404 -0.0848
 8935TIP3    H248221   0.454   6.591  15.660  0.3559 -0.3837 -0.2107
 8936TIP3   OH248222   1.177   3.952  15.227  0.0299  0.2893  0.0450
 8936TIP3    H148223   1.208   3.868  15.259 -0.9220  0.1788  0.6897
 8936TIP3    H248224   1.145   3.934  15.139 -2.0157 -0.4551  0.9004
 8937TIP3   OH248225   4.685   3.492   3.357 -0.5060 -0.0487  0.6121
 8937TIP3    H148226   4.670   3.423   3.293 -0.5615  0.3491  0.1962
 8937TIP3    H248227   4.656   3.454   3.440 -0.9564 -0.3655  0.3138
 8938TIP3   OH248228   1.534   1.874  15.585 -1.0017  0.0548 -0.6250
 8938TIP3    H148229   1.496   1.842  15.503 -1.0999  2.2923 -1.5055
 8938TIP3    H248230   1.626   1.890  15.565 -0.4084 -1.8901  0.4703
 8939TIP3   OH248231   1.064   5.845   1.916 -0.8434 -0.9028 -0.0539
 8939TIP3    H148232   1.098   5.789   1.846 -0.9682  0.8926 -1.5927
 8939TIP3    H248233   0.969   5.845   1.903 -0.7155  1.2179 -1.3384
 8940TIP3   OH248234   3.058   3.337  14.368  0.4549  0.4357  0.3122
 8940TIP3    H148235   3.012   3.288  14.299 -0.6318 -0.9339  1.9463
 8940TIP3    H248236   3.053   3.279  14.445 -1.1956  3.2344  2.4168
 8941TIP3   OH248237   2.026   2.682   2.662 -0.1622  0.0776  0.1205
 8941TIP3    H148238   1.995   2.767   2.631 -0.6774  0.0070  0.4391
 8941TIP3    H248239   2.004   2.621   2.592 -1.1307 -0.0444  0.5236
 8942TIP3   OH248240   4.397   2.756   1.124 -0.2266 -0.5992  0.0843
 8942TIP3    H148241   4.405   2.837   1.073 -1.5868 -0.8131 -0.4965
 8942TIP3    H248242   4.377   2.786   1.213 -0.0740 -0.2811  0.0121
 8943TIP3   OH248243   5.506   1.997   3.424  0.3508  0.4161 -0.1217
 8943TIP3    H148244   5.531   1.908   3.398  0.7276  0.7037 -0.7776
 8943TIP3    H248245   5.584   2.032   3.468  0.8060  0.9883 -1.3364
 8944TIP3   OH248246   5.166   6.704   4.840 -0.1577  0.1417 -0.3306
 8944TIP3    H148247   5.212   6.785   4.817 -0.5384  0.9465  1.6504
 8944TIP3    H248248   5.082   6.711   4.795  0.1688  0.4232 -0.9067
 8945TIP3   OH248249   0.625   0.252   1.931 -0.1919 -0.0300 -0.0233
 8945TIP3    H148250   0.656   0.251   2.021 -2.7119 -0.3627  0.8726
 8945TIP3    H248251   0.590   0.340   1.918 -0.5333 -0.2197 -0.4189
 8946TIP3   OH248252   1.187   0.742   3.240  0.2245 -0.3509  0.0612
 8946TIP3    H148253   1.165   0.782   3.324 -2.4972 -2.4451  0.4030
 8946TIP3    H248254   1.134   0.790   3.176 -1.5946 -2.0904  0.2279
 8947TIP3   OH248255   1.243   0.591  15.775  0.2762  0.5063 -0.2914
 8947TIP3    H148256   1.275   0.582  15.685  1.7822 -0.9589  0.3791
 8947TIP3    H248257   1.293   0.664  15.812  0.4778  0.3590 -0.2755
 8948TIP3   OH248258   6.440   3.514   0.696  0.8043 -0.2020 -0.1115
 8948TIP3    H148259   6.527   3.537   0.663  0.1233  1.2255 -0.9771
 8948TIP3    H248260   6.401   3.461   0.626  0.3118  0.6880 -0.5225
 8949TIP3   OH248261   5.564   0.062  13.653 -0.6957  0.3130  0.2771
 8949TIP3    H148262   5.614   0.007  13.713 -1.8089  0.1662  1.0845
 8949TIP3    H248263   5.479   0.020  13.648 -0.5671  0.2266 -1.5519
 8950TIP3   OH248264   1.471   1.357  11.619 -0.0674  0.2852 -0.3689
 8950TIP3    H148265   1.530   1.359  11.694 -0.2801  0.4138 -0.2057
 8950TIP3    H248266   1.487   1.439  11.573 -1.8784  1.4569  1.0342
 8951TIP3   OH248267   0.054   1.135   0.924 -0.4936  0.5746 -0.3103
 8951TIP3    H148268   0.037   1.042   0.907  2.0919 -0.8592  4.2665
 8951TIP3    H248269  -0.033   1.176   0.922 -1.6002 -1.7162 -3.1683
 8952TIP3   OH248270   1.650   1.764   5.026 -0.1737  0.3506 -0.3024
 8952TIP3    H148271   1.717   1.786   4.962 -2.3917  2.8538 -1.8666
 8952TIP3    H248272   1.678   1.806   5.107  2.0410 -1.8462  0.1328
 8953TIP3   OH248273   5.755   6.549  13.639 -0.1604  0.4306  0.4403
 8953TIP3    H148274   5.772   6.629  13.689 -2.7595  0.9978  0.4728
 8953TIP3    H248275   5.741   6.579  13.549 -0.3979 -0.0888  0.2995
 8954TIP3   OH248276   5.799   0.967  16.588  0.3412  0.6251  0.2313
 8954TIP3    H148277   5.863   0.958  16.518 -0.4749 -1.4055 -0.2703
 8954TIP3    H248278   5.776   0.878  16.612 -0.8318  1.3154  1.7661
 8955TIP3   OH248279   4.434   3.870   6.440  0.3238 -0.5205  0.3564
 8955TIP3    H148280   4.475   3.795   6.397  0.9531  0.6516 -1.1402
 8955TIP3    H248281   4.507   3.920   6.476  0.0392  0.3191 -0.2296
 8956TIP3   OH248282   1.654   3.288  12.881  0.3227 -0.3838 -0.1709
 8956TIP3    H148283   1.722   3.249  12.827 -2.3945  0.3802 -4.3795
 8956TIP3    H248284   1.673   3.382  12.881 -0.0479 -0.3070 -0.3288
 8957TIP3   OH248285   5.292   5.728   5.041 -0.0093  1.0153 -0.0374
 8957TIP3    H148286   5.247   5.644   5.031 -0.7159  1.4983 -1.0103
 8957TIP3    H248287   5.299   5.741   5.136 -2.5966  1.2659  0.1645
 8958TIP3   OH248288   3.438   2.308  11.983  0.3698  0.2221  0.1158
 8958TIP3    H148289   3.439   2.363  11.904  1.0841  0.7225  0.4601
 8958TIP3    H248290   3.502   2.240  11.964 -0.3254 -0.3490 -0.2050
 8959TIP3   OH248291   5.639   0.060  12.733 -0.2645  0.0194 -0.0242
 8959TIP3    H148292   5.621   0.134  12.675 -0.7884 -0.0115  0.1024
 8959TIP3    H248293   5.723   0.026  12.703 -0.5208  0.0268 -0.7345
 8960TIP3   OH248294   5.581   4.804  12.148 -0.2466  0.4576  0.5505
 8960TIP3    H148295   5.664   4.851  12.150  0.8123 -1.0583 -3.0564
 8960TIP3    H248296   5.599   4.721  12.190 -0.7517  1.2495  2.3690
 8961TIP3   OH248297   1.077   1.792  12.222 -0.3949  0.1209 -0.0055
 8961TIP3    H148298   1.166   1.826  12.221 -1.1855  2.2753  0.4800
 8961TIP3    H248299   1.066   1.751  12.136  1.5840 -1.6565  0.5429
 8962TIP3   OH248300   0.090   2.385   5.742  0.1318  0.5143 -0.0830
 8962TIP3    H148301   0.126   2.305   5.780  1.5288  0.2974 -1.7750
 8962TIP3    H248302   0.166   2.429   5.703 -1.2475  0.5209 -2.9030
 8963TIP3   OH248303   3.257   6.551   3.185 -0.0554 -0.2513 -0.1570
 8963TIP3    H148304   3.316   6.550   3.109 -1.6815 -0.0391 -1.4363
 8963TIP3    H248305   3.272   6.467   3.228  0.4840 -0.6041 -1.0160
 8964TIP3   OH248306   2.147   4.888  14.781 -0.1784 -0.4435  0.2000
 8964TIP3    H148307   2.175   4.805  14.820 -0.1378 -1.3006 -1.5706
 8964TIP3    H248308   2.056   4.873  14.755  0.4340 -0.6594 -1.9517
 8965TIP3   OH248309   5.321   2.016   5.427 -0.3074  0.1476 -0.7863
 8965TIP3    H148310   5.326   1.947   5.493  1.5845  1.1161  0.1539
 8965TIP3    H248311   5.412   2.044   5.416 -1.0148  2.3550 -1.2761
 8966TIP3   OH248312   4.139   1.989   1.930 -0.6307  0.2034  0.1260
 8966TIP3    H148313   4.210   2.000   1.867 -1.4567  1.1411 -0.6531
 8966TIP3    H248314   4.124   2.077   1.965 -0.3217 -0.2641  1.5048
 8967TIP3   OH248315   5.481   5.934  12.364  0.7859 -0.0656  0.0872
 8967TIP3    H148316   5.526   5.980  12.293  1.8361  0.4809  1.1058
 8967TIP3    H248317   5.520   5.846  12.364  0.3856 -0.2440 -0.3798
 8968TIP3   OH248318   3.943   6.598  14.772  0.2923 -0.7690  0.2087
 8968TIP3    H148319   3.948   6.580  14.866  0.2100  0.8454  0.5238
 8968TIP3    H248320   4.032   6.623  14.747 -0.0403  0.3816  0.1774
 8969TIP3   OH248321   2.935   2.322  11.935  0.6723 -0.2820  0.1344
 8969TIP3    H148322   3.015   2.308  11.985  0.4837  0.0189  0.5147
 8969TIP3    H248323   2.942   2.260  11.861 -0.3454 -2.7138  2.0101
 8970TIP3   OH248324   4.645   1.042  15.858 -0.3629  0.2978  0.0283
 8970TIP3    H148325   4.577   0.982  15.889 -0.5014  0.8272  0.7636
 8970TIP3    H248326   4.654   1.106  15.928  2.6134 -1.1298  1.0099
 8971TIP3   OH248327   5.221   4.620   5.154  0.2834  0.1582  0.5200
 8971TIP3    H148328   5.136   4.622   5.199 -0.4950 -2.4414 -0.7812
 8971TIP3    H248329   5.272   4.554   5.202  0.7529  0.0240 -0.1560
 8972TIP3   OH248330   3.078   1.105  16.148 -0.2042 -0.3414 -0.0110
 8972TIP3    H148331   3.087   1.137  16.238  2.0586 -0.9066 -0.0105
 8972TIP3    H248332   3.046   1.180  16.098 -0.7642  0.1768  1.1177
 8973TIP3   OH248333   5.614   0.653  12.145 -0.3215 -0.1219  0.2789
 8973TIP3    H148334   5.626   0.667  12.051 -0.9811  1.0248  0.3539
 8973TIP3    H248335   5.702   0.632  12.177  0.6128  2.9633 -0.0423
 8974TIP3   OH248336   4.387   6.603   3.796  0.0996 -0.5664 -0.2536
 8974TIP3    H148337   4.437   6.553   3.860  2.2123 -0.6596 -1.9194
 8974TIP3    H248338   4.356   6.679   3.844  3.2604  0.3454  0.4817
 8975TIP3   OH248339   1.743   3.829   1.758  0.0867 -0.3720 -0.2669
 8975TIP3    H148340   1.701   3.813   1.843 -1.5583  1.5862 -0.6823
 8975TIP3    H248341   1.682   3.794   1.694  0.2495  0.2333 -0.7559
 8976TIP3   OH248342   1.173   2.022   4.723 -1.0649  0.1032 -0.0526
 8976TIP3    H148343   1.194   2.102   4.771 -2.3037 -0.1623  0.9836
 8976TIP3    H248344   1.107   1.978   4.778 -1.4626 -0.9103 -1.3153
 8977TIP3   OH248345   0.087   0.157  14.336  0.2879 -0.8526  0.7131
 8977TIP3    H148346   0.145   0.180  14.409  0.0895  1.7227  0.1217
 8977TIP3    H248347  -0.001   0.170  14.370  0.1761 -0.4344  0.2679
 8978TIP3   OH248348   2.818   3.589  17.228  0.6669 -0.2538  0.0699
 8978TIP3    H148349   2.897   3.539  17.205  0.4803 -0.2594 -0.5664
 8978TIP3    H248350   2.746   3.529  17.208  0.4946 -0.2024  0.5351
 8979TIP3   OH248351   4.070   4.332   6.335 -0.4734  0.4355 -0.4225
 8979TIP3    H148352   4.120   4.253   6.356 -1.2612 -0.0466 -0.3449
 8979TIP3    H248353   3.980   4.301   6.325 -0.5610  1.0952 -1.7861
 8980TIP3   OH248354   2.202   3.352  15.785 -0.2136 -0.0240  0.5379
 8980TIP3    H148355   2.190   3.258  15.793 -2.0572 -0.0584 -2.0467
 8980TIP3    H248356   2.245   3.364  15.700  0.9675  1.4229  1.2965
 8981TIP3   OH248357   6.238   3.659   4.640 -0.3795  0.2209  0.0230
 8981TIP3    H148358   6.289   3.585   4.672  0.0688 -0.5607 -2.3954
 8981TIP3    H248359   6.149   3.643   4.672  0.0549 -0.4894  0.8944
 8982TIP3   OH248360   5.256   3.467  14.534 -0.9635 -0.4738  0.2777
 8982TIP3    H148361   5.187   3.469  14.468 -0.1847 -0.7250 -0.5580
 8982TIP3    H248362   5.327   3.418  14.493 -0.3012 -0.2580  1.1438
 8983TIP3   OH248363   5.655   4.676   0.550  0.1615 -0.5537 -0.2338
 8983TIP3    H148364   5.718   4.616   0.589  1.2607  2.6027  3.2125
 8983TIP3    H248365   5.708   4.739   0.501 -0.4196  0.7644  0.7681
 8984TIP3   OH248366   6.066   1.580   2.695  0.0527  0.2338 -0.2067
 8984TIP3    H148367   5.984   1.537   2.671 -0.2347  0.0718  1.0233
 8984TIP3    H248368   6.107   1.603   2.612 -1.1799  0.1938 -0.8251
 8985TIP3   OH248369   5.111   0.228   5.414  0.0966 -0.2197  0.2444
 8985TIP3    H148370   5.199   0.264   5.425  0.2238  0.0342 -1.4611
 8985TIP3    H248371   5.105   0.160   5.481  2.4795 -1.8894 -1.1419
 8986TIP3   OH248372   0.704   3.852  12.860 -0.0202  0.5170 -0.2237
 8986TIP3    H148373   0.726   3.944  12.845 -0.1287  0.3348 -1.6210
 8986TIP3    H248374   0.637   3.832  12.794  0.8523 -0.8774 -0.7237
 8987TIP3   OH248375   3.766   2.691   2.666 -0.0829 -0.0950  0.0032
 8987TIP3    H148376   3.786   2.619   2.606  2.1944  1.9777 -1.8704
 8987TIP3    H248377   3.811   2.667   2.747  0.6082 -0.8045 -0.5766
 8988TIP3   OH248378   6.662   4.233   1.265 -0.3111 -0.7252  0.2420
 8988TIP3    H148379   6.664   4.311   1.209 -1.4654 -0.3063  0.7525
 8988TIP3    H248380   6.753   4.217   1.287 -0.0977  0.8116  0.5619
 8989TIP3   OH248381   2.259   5.251  11.503 -0.2116 -0.3793  0.1529
 8989TIP3    H148382   2.329   5.263  11.568  0.7122 -0.2954 -0.8431
 8989TIP3    H248383   2.256   5.334  11.456  1.1300 -1.4075 -1.8297
 8990TIP3   OH248384   2.047   4.853  12.535  0.3681 -0.7238  0.0754
 8990TIP3    H148385   2.089   4.909  12.470  0.1607 -0.5822  0.0635
 8990TIP3    H248386   2.042   4.767  12.493  1.1519 -0.8800  0.2854
 8991TIP3   OH248387   2.025   5.252  15.259 -0.4501 -0.0836 -0.0396
 8991TIP3    H148388   2.099   5.191  15.258 -1.1164 -0.8725 -1.5253
 8991TIP3    H248389   1.999   5.256  15.351  1.2691 -0.0007  0.4620
 8992TIP3   OH248390   0.621   4.675  14.298  0.2057 -0.3632 -0.2981
 8992TIP3    H148391   0.556   4.739  14.269 -0.8091 -1.2668 -0.0141
 8992TIP3    H248392   0.651   4.709  14.383  0.7093  0.4803 -0.8043
 8993TIP3   OH248393   0.020   3.664   5.437 -0.3505  0.6883  0.5494
 8993TIP3    H148394   0.102   3.618   5.421 -1.4767 -1.1187 -0.1026
 8993TIP3    H248395  -0.038   3.636   5.367 -1.2517  2.6576  0.4841
 8994TIP3   OH248396   6.363   3.040  15.541  0.3006 -0.1997  0.5425
 8994TIP3    H148397   6.445   3.060  15.587  0.2187  0.7221  0.2871
 8994TIP3    H248398   6.385   2.964  15.487  1.1249  0.3461  0.0997
 8995TIP3   OH248399   4.755   3.695  16.925 -0.0882 -0.7478  0.2488
 8995TIP3    H148400   4.799   3.768  16.880 -0.4522  0.2760  1.5344
 8995TIP3    H248401   4.695   3.659  16.859 -1.1200  1.1807  0.0956
 8996TIP3   OH248402   3.756   2.779  15.128  0.2814 -0.9730  0.1988
 8996TIP3    H148403   3.774   2.839  15.201 -0.6742 -0.9403  0.4192
 8996TIP3    H248404   3.775   2.692  15.163  0.7199 -0.8846  0.1897
 8997TIP3   OH248405   1.953   4.733   4.909 -0.1991 -0.1797  0.4067
 8997TIP3    H148406   2.018   4.785   4.957  0.5503  0.4439 -1.2433
 8997TIP3    H248407   1.878   4.791   4.899  0.2455  0.2290 -0.5447
 8998TIP3   OH248408   1.385   4.037   4.565 -0.0714 -0.2631 -0.3414
 8998TIP3    H148409   1.374   4.093   4.642  1.2403 -0.2558 -0.1509
 8998TIP3    H248410   1.313   4.063   4.506 -1.1342 -0.3309  0.9013
 8999TIP3   OH248411   3.817   1.352   1.209 -0.5712  0.7550 -0.0339
 8999TIP3    H148412   3.821   1.257   1.203  0.5000  0.8753 -1.5859
 8999TIP3    H248413   3.775   1.379   1.127 -1.1860  1.6117  0.5501
 9000TIP3   OH248414   4.966   1.344   1.515 -0.7158  0.0430 -0.4114
 9000TIP3    H148415   5.016   1.290   1.576  1.4547  1.0653 -1.2536
 9000TIP3    H248416   4.886   1.293   1.498  0.4016 -1.9885  0.3286
 9001TIP3   OH248417   5.501   1.122  11.518 -0.5072  0.1688 -0.3452
 9001TIP3    H148418   5.511   1.207  11.561 -1.2465  0.3732 -0.5791
 9001TIP3    H248419   5.513   1.140  11.425  0.1306 -0.1172 -0.3251
 9002TIP3   OH248420   2.185   4.946   4.780 -0.6595 -0.6601 -0.1821
 9002TIP3    H148421   2.171   4.955   4.874 -0.4543 -2.9559  0.0743
 9002TIP3    H248422   2.275   4.916   4.771  0.3239  2.3491 -1.2989
 9003TIP3   OH248423   1.626   4.677   5.243 -0.4061 -0.3313 -0.1341
 9003TIP3    H148424   1.585   4.760   5.218  0.3105 -0.1224 -0.6181
 9003TIP3    H248425   1.667   4.695   5.328  0.9708  0.2126 -0.9103
 9004TIP3   OH248426   4.433   4.713   0.837 -0.3765  0.2181 -0.1254
 9004TIP3    H148427   4.472   4.643   0.785 -0.3968 -0.4867  0.8097
 9004TIP3    H248428   4.469   4.794   0.799 -0.8477 -0.2471 -1.6158
 9005TIP3   OH248429   0.667   1.147   6.414 -0.2649 -0.0200  0.1567
 9005TIP3    H148430   0.623   1.129   6.497  1.4914 -0.0831  1.0965
 9005TIP3    H248431   0.694   1.061   6.383  1.1198  0.2016  0.6950
 9006TIP3   OH248432   5.750   0.091   3.355  0.6096  1.1326 -0.2904
 9006TIP3    H148433   5.784   0.137   3.278 -0.0495  0.5589 -0.9299
 9006TIP3    H248434   5.760  -0.002   3.334  2.1776  0.9721  1.1073
 9007TIP3   OH248435   0.466   5.445  15.475  0.0428 -0.4023 -0.6300
 9007TIP3    H148436   0.381   5.408  15.499  0.2378 -0.4373  0.0178
 9007TIP3    H248437   0.529   5.375  15.492  0.3135 -0.0576 -0.2032
 9008TIP3   OH248438   5.317   4.314  13.354 -0.1275  0.0119  0.0234
 9008TIP3    H148439   5.344   4.396  13.315  0.3679 -0.6924 -1.1361
 9008TIP3    H248440   5.373   4.304  13.431  0.1941  0.4790 -0.1509
 9009TIP3   OH248441   6.679   5.208  13.880 -0.0047 -0.2030 -0.1867
 9009TIP3    H148442   6.628   5.132  13.852 -1.9052  0.3096  1.7335
 9009TIP3    H248443   6.626   5.283  13.855  0.7588  0.4221  0.0405
 9010TIP3   OH248444   1.366   2.106   3.229  0.7175 -0.3201 -0.3035
 9010TIP3    H148445   1.413   2.142   3.153 -1.1077 -1.6687 -2.1200
 9010TIP3    H248446   1.301   2.048   3.191 -0.1521 -1.1189  2.3456
 9011TIP3   OH248447   6.134   6.125  11.374 -0.0777 -0.7110  0.2019
 9011TIP3    H148448   6.078   6.112  11.298  0.1332 -2.5643  0.3392
 9011TIP3    H248449   6.211   6.071  11.356  0.6990  0.1151  0.9938
 9012TIP3   OH248450   2.607   5.486   1.792  0.7440  0.5014 -0.5510
 9012TIP3    H148451   2.517   5.460   1.772  0.7425  0.7204 -0.8307
 9012TIP3    H248452   2.604   5.581   1.799  0.9320  0.4993 -0.4377
 9013TIP3   OH248453   2.109   1.481  17.122  0.1337 -0.2248  0.0176
 9013TIP3    H148454   2.023   1.455  17.155  0.8069  0.3668  2.3699
 9013TIP3    H248455   2.092   1.516  17.035 -1.9562 -0.4709  0.2896
 9014TIP3   OH248456   5.213   5.467  16.300 -0.1686  0.2204  0.3469
 9014TIP3    H148457   5.241   5.476  16.209  0.5256  1.2983  0.6630
 9014TIP3    H248458   5.119   5.487  16.298 -0.9384 -3.0850 -0.6546
 9015TIP3   OH248459   4.867   1.627   1.411  0.0138 -0.3644  0.1265
 9015TIP3    H148460   4.851   1.554   1.351 -0.2502 -0.4758  0.3337
 9015TIP3    H248461   4.813   1.607   1.488  0.0726 -0.0367  0.2515
 9016TIP3   OH248462   3.869   0.991  15.073  0.0888 -0.4806 -0.4184
 9016TIP3    H148463   3.955   1.031  15.061 -0.3766  0.5721 -0.2903
 9016TIP3    H248464   3.829   0.995  14.986  0.5773 -1.9445 -0.7173
 9017TIP3   OH248465   4.265   5.840   4.790  0.0058  0.0351 -0.0984
 9017TIP3    H148466   4.333   5.885   4.740  1.7462 -4.3452 -1.8659
 9017TIP3    H248467   4.312   5.792   4.857 -1.7239  0.0282  1.1476
 9018TIP3   OH248468   6.679   4.022  14.840 -0.0894 -0.2129  0.0514
 9018TIP3    H148469   6.698   3.988  14.927  0.2009  1.7196  0.7704
 9018TIP3    H248470   6.765   4.030  14.798 -0.1549 -0.3845 -0.1155
 9019TIP3   OH248471   3.520   1.882  11.764 -0.1323 -0.1285  0.1420
 9019TIP3    H148472   3.545   1.935  11.839 -1.0266  1.2849 -0.5423
 9019TIP3    H248473   3.603   1.853  11.726  0.3403  0.2506  0.8850
 9020TIP3   OH248474   6.637   6.046   6.436  0.3109  0.1096 -0.1811
 9020TIP3    H148475   6.728   6.020   6.449  0.2474 -0.1500 -0.2405
 9020TIP3    H248476   6.642   6.132   6.394  0.5253  0.3129  0.2538
 9021TIP3   OH248477   4.425   2.436  15.837 -0.5067  0.6297 -0.1608
 9021TIP3    H148478   4.403   2.343  15.828  2.6428 -0.2382  0.1409
 9021TIP3    H248479   4.355   2.473  15.891 -0.1372 -2.3237  2.5157
 9022TIP3   OH248480   2.555   5.492   4.565 -0.7130 -0.1695  0.0824
 9022TIP3    H148481   2.515   5.434   4.629  0.7829 -1.3115  0.0128
 9022TIP3    H248482   2.565   5.575   4.612 -0.5550 -0.7066  1.0212
 9023TIP3   OH248483   1.104   0.632  16.957  0.0526 -0.4109 -0.2044
 9023TIP3    H148484   1.017   0.637  16.996 -0.8393 -0.0296 -2.1875
 9023TIP3    H248485   1.148   0.712  16.984 -0.9659  0.4005 -0.9420
 9024TIP3   OH248486   4.770   6.156   0.133  0.1646 -0.0760  0.4963
 9024TIP3    H148487   4.763   6.199   0.218 -1.7432 -2.7764  1.7939
 9024TIP3    H248488   4.765   6.227   0.070 -0.7738  1.8064  2.5995
 9025TIP3   OH248489   4.648   4.520  11.751 -0.0571 -0.4430 -0.6644
 9025TIP3    H148490   4.718   4.482  11.698  0.9701 -0.6799  0.8542
 9025TIP3    H248491   4.693   4.573  11.817 -1.3850  1.6198 -1.3362
 9026TIP3   OH248492   0.236   5.851  11.388 -0.1968 -0.6974 -0.0038
 9026TIP3    H148493   0.232   5.942  11.419 -0.0448 -0.4902 -0.5853
 9026TIP3    H248494   0.308   5.813  11.438 -1.2506 -0.9410  1.3695
 9027TIP3   OH248495   2.054   3.714  11.984 -0.5502 -0.4769  0.3081
 9027TIP3    H148496   2.128   3.766  11.954 -0.9333  0.8508  1.6074
 9027TIP3    H248497   2.088   3.625  11.990 -0.1775 -0.6244 -2.9845
 9028TIP3   OH248498   4.056   3.890  14.068 -0.2943 -0.3692 -0.3885
 9028TIP3    H148499   4.053   3.837  13.988 -0.7415 -0.3251 -0.4005
 9028TIP3    H248500   4.132   3.948  14.055  0.4171 -1.2603 -0.2140
 9029TIP3   OH248501   4.224   2.975  12.209  0.3509 -0.0633 -0.2494
 9029TIP3    H148502   4.316   2.964  12.233  0.5061  0.8325 -0.3909
 9029TIP3    H248503   4.219   3.064  12.172 -0.3451 -0.5172 -1.2968
 9030TIP3   OH248504   6.684   6.528   1.933 -0.0503 -0.1994 -0.0180
 9030TIP3    H148505   6.767   6.541   1.979  0.1202 -0.3344 -0.2884
 9030TIP3    H248506   6.624   6.498   2.002  0.4085 -1.1620 -0.0294
 9031TIP3   OH248507   3.547   2.134   6.544  0.6742  0.1644  0.0383
 9031TIP3    H148508   3.564   2.093   6.629  1.4707  0.2394 -0.0754
 9031TIP3    H248509   3.581   2.224   6.554  0.4580  0.2768 -0.2444
 9032TIP3   OH248510   0.758   1.283  14.541 -0.1504  0.2308  0.2692
 9032TIP3    H148511   0.758   1.220  14.614  1.8096 -0.6519 -0.4590
 9032TIP3    H248512   0.739   1.230  14.464 -1.2235  1.0020 -0.0040
 9033TIP3   OH248513   0.356   4.316  15.309  0.4865  0.2856  0.4216
 9033TIP3    H148514   0.274   4.284  15.271  0.8471  0.3675 -0.4336
 9033TIP3    H248515   0.366   4.404  15.274  1.9147 -0.4297 -1.0263
 9034TIP3   OH248516   0.780   5.184  10.759  0.3330  0.2922 -0.0856
 9034TIP3    H148517   0.701   5.238  10.751 -0.7647 -1.2548  0.0804
 9034TIP3    H248518   0.755   5.099  10.721  1.5616 -0.5749  1.0122
 9035TIP3   OH248519   5.560   0.474  11.495  0.2999  0.2957 -0.3527
 9035TIP3    H148520   5.581   0.419  11.420  0.3662  1.3564 -1.1339
 9035TIP3    H248521   5.635   0.532  11.504 -0.6606  1.6647 -0.8721
 9036TIP3   OH248522   5.346   5.639  15.112  0.3192  0.0719  0.0998
 9036TIP3    H148523   5.364   5.546  15.124  0.6812  0.0159 -0.8343
 9036TIP3    H248524   5.426   5.683  15.143 -0.3195  0.1373  1.6718
 9037TIP3   OH248525   1.058   5.431   3.617 -0.3988 -0.2761 -0.2000
 9037TIP3    H148526   1.019   5.518   3.631  3.0855  1.3780 -0.1980
 9037TIP3    H248527   1.056   5.418   3.522  0.7536  0.6778 -0.3699
 9038TIP3   OH248528   4.452   1.155  12.020 -0.0557 -0.0573  0.2755
 9038TIP3    H148529   4.506   1.229  12.049  0.6894 -0.9244  1.1432
 9038TIP3    H248530   4.373   1.161  12.074  0.7662 -0.9109  1.5938
 9039TIP3   OH248531   2.498   2.667  15.478 -0.2306 -0.5589  0.0489
 9039TIP3    H148532   2.492   2.712  15.562 -2.2273 -0.9088  0.1036
 9039TIP3    H248533   2.580   2.618  15.483  0.2068  0.2973  1.3538
 9040TIP3   OH248534   6.249   4.686  15.388 -0.0281  0.4811 -0.0263
 9040TIP3    H148535   6.343   4.684  15.407  0.1682 -0.1576 -1.0081
 9040TIP3    H248536   6.212   4.744  15.454  0.9775  0.2706  0.7263
 9041TIP3   OH248537   3.471   2.851   1.574 -0.2350  0.8001 -0.0765
 9041TIP3    H148538   3.514   2.918   1.627 -1.2237  0.4911  1.1493
 9041TIP3    H248539   3.530   2.838   1.500  0.0285  2.9170 -0.2686
 9042TIP3   OH248540   2.273   6.646  16.595 -0.2378 -0.2498 -0.0378
 9042TIP3    H148541   2.358   6.689  16.592  0.9202 -2.5645 -1.8926
 9042TIP3    H248542   2.219   6.694  16.532  0.1719  0.2099 -0.0377
 9043TIP3   OH248543   5.168   1.782  14.022  0.2113  0.2086 -0.1274
 9043TIP3    H148544   5.119   1.816  14.096 -0.1344  0.6951 -0.5762
 9043TIP3    H248545   5.233   1.722  14.061  0.7629  1.3004  0.6553
 9044TIP3   OH248546   0.277   5.715  13.620 -0.3449 -0.4769 -0.0423
 9044TIP3    H148547   0.309   5.804  13.636 -0.2815 -0.5780  0.4002
 9044TIP3    H248548   0.188   5.715  13.657 -1.2422  0.1057 -2.1673
 9045TIP3   OH248549   4.156   6.128  13.060  0.6373 -0.3493 -0.3080
 9045TIP3    H148550   4.154   6.176  12.977 -0.0193  0.0651 -0.0591
 9045TIP3    H248551   4.115   6.044  13.041 -0.0604 -0.0224 -0.2638
 9046TIP3   OH248552   3.695   5.000   5.822  0.0108  0.8061 -0.3622
 9046TIP3    H148553   3.706   5.055   5.745  1.2799  1.5311  0.3068
 9046TIP3    H248554   3.742   5.047   5.892 -0.0627 -0.4317  0.5454
 9047TIP3   OH248555   3.702   3.604  17.019  0.2601  0.1172 -0.1974
 9047TIP3    H148556   3.756   3.620  17.097  1.2548 -0.5230 -0.7393
 9047TIP3    H248557   3.681   3.692  16.986 -0.1541  0.3883  0.7804
 9048TIP3   OH248558   1.934   4.427  11.224  0.1728 -0.0699  0.5655
 9048TIP3    H148559   1.857   4.469  11.262  0.6813  1.8070 -0.3708
 9048TIP3    H248560   2.002   4.494  11.230  0.9618 -0.6814 -1.2085
 9049TIP3   OH248561   0.001   1.169   5.616 -0.4925  0.1506 -0.9567
 9049TIP3    H148562   0.008   1.105   5.545 -0.2286 -0.1654 -0.6532
 9049TIP3    H248563   0.092   1.187   5.640 -0.5849 -0.1178 -0.3752
 9050TIP3   OH248564   1.690   3.179   6.371  0.0165  0.1300 -0.4982
 9050TIP3    H148565   1.606   3.186   6.325 -0.5890 -3.0300 -0.0050
 9050TIP3    H248566   1.688   3.251   6.434 -2.4612 -0.0174 -0.3377
 9051TIP3   OH248567   2.303   5.443   3.002 -0.3260 -0.0985 -0.3595
 9051TIP3    H148568   2.267   5.521   2.960  3.2415  0.7204 -2.1560
 9051TIP3    H248569   2.340   5.475   3.085  0.6392  0.0517 -0.8370
 9052TIP3   OH248570   4.590   5.859   6.124 -0.0817 -0.3026  0.2262
 9052TIP3    H148571   4.549   5.912   6.055  1.3334  0.4692 -0.0407
 9052TIP3    H248572   4.560   5.770   6.106 -0.1668 -0.0316 -1.0884
 9053TIP3   OH248573   3.799   2.617   2.176 -0.0097 -0.1656 -0.3265
 9053TIP3    H148574   3.706   2.621   2.200 -0.5974 -2.1163 -2.0227
 9053TIP3    H248575   3.800   2.646   2.084  0.7277 -2.1554 -0.9708
 9054TIP3   OH248576   2.605   1.681   0.400 -0.3125  0.0323 -0.0170
 9054TIP3    H148577   2.655   1.757   0.431  0.5529 -0.4436 -0.2332
 9054TIP3    H248578   2.670   1.611   0.392 -0.7860 -0.2702 -1.4553
 9055TIP3   OH248579   0.229   1.877   5.925  0.2383 -0.6178  0.4904
 9055TIP3    H148580   0.140   1.870   5.959 -0.1768  1.9138  0.0358
 9055TIP3    H248581   0.284   1.839   5.994 -1.2024 -2.8155  0.4831
 9056TIP3   OH248582   6.115   3.225   1.836  0.2206 -0.4522 -1.0033
 9056TIP3    H148583   6.187   3.167   1.862  0.8506 -0.3463 -2.4551
 9056TIP3    H248584   6.040   3.166   1.824 -0.8801 -0.2260  3.5879
 9057TIP3   OH248585   1.920   6.573   1.945 -0.5865 -0.2084  0.6414
 9057TIP3    H148586   2.006   6.602   1.975 -0.6110  1.6485 -0.9673
 9057TIP3    H248587   1.929   6.565   1.850 -2.3221  0.5020  0.3986
 9058TIP3   OH248588   3.016   1.450   1.708 -0.0261  0.4612  0.0473
 9058TIP3    H148589   3.043   1.527   1.658 -1.3854  0.3479 -0.8715
 9058TIP3    H248590   3.026   1.377   1.647  2.5564 -0.3299  1.3149
 9059TIP3   OH248591   3.828   2.310   2.134 -0.1572 -0.4964  0.1494
 9059TIP3    H148592   3.821   2.386   2.191 -0.5789 -0.5658  0.1936
 9059TIP3    H248593   3.922   2.299   2.120 -0.0931 -0.0007  0.1846
 9060TIP3   OH248594   0.984   1.051   1.011 -0.1635  0.0254 -0.2875
 9060TIP3    H148595   1.008   0.996   1.085 -1.5027  1.2595  1.0880
 9060TIP3    H248596   1.039   1.129   1.020  0.5602 -0.3616 -1.3027
 9061TIP3   OH248597   3.517   3.701  15.148  0.2695 -0.0886  0.3096
 9061TIP3    H148598   3.450   3.741  15.092  0.7294 -0.2864 -0.3738
 9061TIP3    H248599   3.516   3.608  15.125  0.3534 -0.1977  0.7411
 9062TIP3   OH248600   4.800   1.434   0.386  0.0454 -0.7460  0.3529
 9062TIP3    H148601   4.755   1.502   0.337 -0.8400 -0.9609  0.8580
 9062TIP3    H248602   4.886   1.470   0.404  1.3350 -1.6302 -3.5187
 9063TIP3   OH248603   4.317   6.002  14.879 -0.0807  0.3316 -0.0513
 9063TIP3    H148604   4.326   6.021  14.973 -1.2184  2.4790 -0.3409
 9063TIP3    H248605   4.244   5.939  14.875 -0.2904  0.5335  0.4834
 9064TIP3   OH248606   2.312   0.143   4.881 -0.2369  0.1164  0.3249
 9064TIP3    H148607   2.318   0.070   4.819 -1.8717  0.4264 -0.2200
 9064TIP3    H248608   2.380   0.204   4.853 -0.6015  0.0030 -0.8304
 9065TIP3   OH248609   4.089   2.281  12.098 -0.2293 -0.4281  0.6853
 9065TIP3    H148610   4.071   2.240  12.014 -1.3610 -0.9528  1.1714
 9065TIP3    H248611   4.162   2.341  12.081  0.1529 -1.2036 -0.4557
 9066TIP3   OH248612   5.918   3.224   2.886  0.3755 -0.1214  0.2969
 9066TIP3    H148613   5.876   3.237   2.971  0.4611 -2.4191  0.7295
 9066TIP3    H248614   5.846   3.204   2.826  0.4613 -0.0974  0.1871
 9067TIP3   OH248615   6.004   5.708  17.212 -0.6220 -0.2196  0.1967
 9067TIP3    H148616   6.086   5.751  17.236  0.2900 -1.1814 -1.1228
 9067TIP3    H248617   5.948   5.779  17.182 -0.0543  0.3844  0.5456
 9068TIP3   OH248618   6.619   0.961   5.015  0.2454  0.2806 -0.3498
 9068TIP3    H148619   6.695   1.019   5.025  1.4015 -1.0532 -1.2882
 9068TIP3    H248620   6.572   0.969   5.098  0.4213  2.4844 -0.4145
 9069TIP3   OH248621   0.257   2.813  12.513  0.1850 -0.1526  0.1729
 9069TIP3    H148622   0.234   2.721  12.519 -1.3569  0.2619  0.8620
 9069TIP3    H248623   0.252   2.833  12.419 -1.2555 -0.3481  0.1906
 9070TIP3   OH248624   1.418   2.903   1.069 -0.8061 -0.4642  0.2171
 9070TIP3    H148625   1.507   2.888   1.099 -1.1614  1.1978  2.2471
 9070TIP3    H248626   1.427   2.961   0.994 -0.0910 -1.8135 -0.7497
 9071TIP3   OH248627   0.588   1.000  16.338  0.2182  0.0926  0.2817
 9071TIP3    H148628   0.648   0.927  16.354 -1.4973 -1.8032 -1.5604
 9071TIP3    H248629   0.640   1.062  16.286  0.9014 -1.0762 -0.4626
 9072TIP3   OH248630   2.517   0.200  15.536 -0.4254 -0.1279 -0.2108
 9072TIP3    H148631   2.485   0.275  15.586 -1.1974 -0.6733  0.1277
 9072TIP3    H248632   2.454   0.130  15.555 -0.3899 -0.5077 -1.4863
 9073TIP3   OH248633   0.730   1.096  12.649  0.4088  0.5973  0.1410
 9073TIP3    H148634   0.684   1.120  12.569  0.8125 -0.2581 -0.3574
 9073TIP3    H248635   0.664   1.102  12.718 -0.6951 -1.4633 -0.6830
 9074TIP3   OH248636   6.635   4.310  11.757  0.2049  0.1342  0.4061
 9074TIP3    H148637   6.596   4.253  11.691  0.9510 -0.6237  0.5978
 9074TIP3    H248638   6.682   4.377  11.707 -2.2269  1.7071  0.1755
 9075TIP3   OH248639   6.723   1.455  15.295  0.7072 -0.9893  0.2867
 9075TIP3    H148640   6.791   1.436  15.230 -0.9917  2.5401 -2.6784
 9075TIP3    H248641   6.641   1.449  15.246 -0.6527  1.4067  2.1554
 9076TIP3   OH248642   1.741   4.366  13.456 -0.9180  0.3743  0.5468
 9076TIP3    H148643   1.760   4.350  13.363 -1.0614 -0.2965  0.6246
 9076TIP3    H248644   1.707   4.282  13.487  2.0768 -0.3720  1.9852
 9077TIP3   OH248645   2.859   4.844   5.423 -0.1291 -0.1917  0.1969
 9077TIP3    H148646   2.881   4.756   5.392  0.4863 -0.2491  0.7626
 9077TIP3    H248647   2.817   4.830   5.508  0.6953  0.0905  0.6624
 9078TIP3   OH248648   2.954   1.956   1.291  0.0990  0.2728  0.0948
 9078TIP3    H148649   2.895   1.951   1.367  2.3369  0.0730  1.8960
 9078TIP3    H248650   2.899   1.936   1.216 -1.6752 -2.0312  1.9419
 9079TIP3   OH248651   3.219   2.827  14.081  0.8186 -0.0466  0.7809
 9079TIP3    H148652   3.268   2.858  14.157 -2.1926  0.5036  2.5786
 9079TIP3    H248653   3.236   2.732  14.079  1.8387  0.1128  1.4185
 9080TIP3   OH248654   0.654   5.889  11.549 -0.5973  0.0997 -0.1151
 9080TIP3    H148655   0.619   5.815  11.598  0.5608  0.8477  1.9037
 9080TIP3    H248656   0.585   5.911  11.486 -1.3755 -2.0087 -0.0466
 9081TIP3   OH248657   0.690   4.215  13.218  0.4333 -0.1786 -0.2284
 9081TIP3    H148658   0.607   4.261  13.226  0.4474 -0.0349 -0.8903
 9081TIP3    H248659   0.669   4.135  13.169  1.0516  0.8489 -2.1921
 9082TIP3   OH248660   4.285   0.585  15.938  0.6020 -0.0832 -0.8963
 9082TIP3    H148661   4.267   0.576  15.844 -0.7361 -0.5110 -0.6186
 9082TIP3    H248662   4.367   0.538  15.952  1.5397  1.1636 -2.0801
 9083TIP3   OH248663   0.371   0.579   0.996 -0.4450  0.3376 -0.3843
 9083TIP3    H148664   0.418   0.605   1.076  1.0172  0.7659 -1.3700
 9083TIP3    H248665   0.317   0.505   1.024  0.2473  0.3110  0.9477
 9084TIP3   OH248666   4.939   6.585   4.759 -0.1408  0.2217 -0.2273
 9084TIP3    H148667   4.871   6.590   4.826 -1.4861  0.5074 -1.5973
 9084TIP3    H248668   4.898   6.620   4.680  0.8065 -1.9015 -1.6996
 9085TIP3   OH248669   3.133   4.964  15.585  0.4103 -0.4599  0.1270
 9085TIP3    H148670   3.213   4.980  15.634  0.8131 -1.2378 -0.2735
 9085TIP3    H248671   3.155   4.985  15.494  0.1489 -0.6371  0.0202
 9086TIP3   OH248672   5.679   3.668  15.258  0.7478 -0.1286 -0.0351
 9086TIP3    H148673   5.702   3.598  15.198 -1.0631 -0.6164 -0.1786
 9086TIP3    H248674   5.692   3.630  15.345 -0.5128 -0.7438 -0.1110
 9087TIP3   OH248675   4.977   2.813   6.736 -0.2858  0.6865 -0.5576
 9087TIP3    H148676   5.028   2.800   6.815  0.8366  1.6437 -1.1086
 9087TIP3    H248677   4.887   2.826   6.767  0.2868  1.9105  0.6101
 9088TIP3   OH248678   1.202   3.585   1.189  0.7603  0.2082 -0.4585
 9088TIP3    H148679   1.164   3.672   1.191 -0.3635 -0.2497  4.2627
 9088TIP3    H248680   1.129   3.527   1.167  0.5125  0.0754  0.6923
 9089TIP3   OH248681   1.676   5.921  11.404 -0.2072  0.1040  0.0335
 9089TIP3    H148682   1.631   5.945  11.485 -0.0715  2.4275 -0.5421
 9089TIP3    H248683   1.607   5.911  11.340 -0.2857 -1.3627  0.3481
 9090TIP3   OH248684   3.354   0.231   1.611  0.3449  0.4428 -0.2365
 9090TIP3    H148685   3.415   0.251   1.540  1.5846 -1.7379  0.1496
 9090TIP3    H248686   3.283   0.183   1.569  0.8226 -0.3922 -0.1079
 9091TIP3   OH248687   2.614   5.613  16.703  0.2694 -0.9799 -0.0937
 9091TIP3    H148688   2.566   5.686  16.742  0.7142 -0.4059 -0.6182
 9091TIP3    H248689   2.546   5.553  16.673 -0.1291 -0.1177 -0.9386
 9092TIP3   OH248690   4.929   2.490   5.641  0.2031  0.0915  0.1065
 9092TIP3    H148691   4.913   2.561   5.703  0.7620  0.2513  0.0679
 9092TIP3    H248692   4.934   2.412   5.696 -2.2692 -0.2077 -0.0128
 9093TIP3   OH248693   6.408   5.588  15.690 -0.4025  0.3133  0.8779
 9093TIP3    H148694   6.481   5.527  15.680  0.1611  0.7234  2.4291
 9093TIP3    H248695   6.447   5.675  15.680 -1.2083  0.4757 -1.3444
 9094TIP3   OH248696   3.788   5.747  15.297 -0.2196 -0.2720  0.2875
 9094TIP3    H148697   3.849   5.680  15.325 -0.6752 -1.4828 -1.5013
 9094TIP3    H248698   3.716   5.699  15.256 -0.1544  1.2985 -1.8137
 9095TIP3   OH248699   2.553   1.991  11.731 -0.2607 -0.3580 -0.1309
 9095TIP3    H148700   2.469   2.017  11.767 -1.8208 -0.0989 -3.7481
 9095TIP3    H248701   2.616   2.054  11.767 -2.3749  2.3012 -0.9728
 9096TIP3   OH248702   5.673   2.760   0.512 -0.8030  0.0445  0.5967
 9096TIP3    H148703   5.669   2.744   0.418 -0.1317  1.7401  0.2675
 9096TIP3    H248704   5.759   2.798   0.526 -0.5430 -1.0305  2.0531
 9097TIP3   OH248705   5.301   5.370  14.894  0.0627  0.1122  0.1261
 9097TIP3    H148706   5.386   5.326  14.889 -0.9028 -1.8720  0.8207
 9097TIP3    H248707   5.278   5.368  14.987 -0.2022  1.6940  0.1012
 9098TIP3   OH248708   1.181   0.200  17.189  0.0662 -0.1082 -0.3320
 9098TIP3    H148709   1.216   0.192  17.277  1.6369 -1.7039 -1.0752
 9098TIP3    H248710   1.225   0.132  17.139 -2.5818 -0.8030 -1.8084
 9099TIP3   OH248711   5.271   5.371   3.965 -0.0364 -0.7304 -0.2373
 9099TIP3    H148712   5.217   5.447   3.987  0.6665  0.0431 -1.1267
 9099TIP3    H248713   5.212   5.311   3.920 -1.0689 -1.5732  2.1840
 9100TIP3   OH248714   2.572   4.080   3.920  0.0693  0.1480 -0.7416
 9100TIP3    H148715   2.528   4.122   3.994 -1.5240 -2.3825 -0.2048
 9100TIP3    H248716   2.645   4.139   3.899  0.1266  1.2623  2.3762
 9101TIP3   OH248717   3.093   5.298  16.769 -0.1749 -0.0448 -1.0536
 9101TIP3    H148718   3.088   5.211  16.728 -0.1983  0.5029 -2.2217
 9101TIP3    H248719   3.049   5.356  16.708  2.6743  1.3695 -1.8371
 9102TIP3   OH248720   2.989   3.951   1.367  0.0092  0.3150  0.1941
 9102TIP3    H148721   2.929   3.960   1.293  1.8240  0.8901 -1.2504
 9102TIP3    H248722   3.065   3.904   1.331  0.4997 -0.2719  1.9382
 9103TIP3   OH248723   2.502   3.045   3.894 -0.7172  0.0159 -0.4009
 9103TIP3    H148724   2.512   3.071   3.803 -2.5497  0.7874 -0.4087
 9103TIP3    H248725   2.499   2.949   3.891  2.1602 -0.1023 -0.8000
 9104TIP3   OH248726   0.117   1.158  11.962 -0.0203  0.6206 -0.4395
 9104TIP3    H148727   0.029   1.121  11.963 -0.5592  1.8984  0.1843
 9104TIP3    H248728   0.173   1.090  12.000 -0.6294 -0.4431 -1.4235
 9105TIP3   OH248729   3.147   4.549   4.478  0.4247 -0.0093  0.8795
 9105TIP3    H148730   3.057   4.517   4.467 -0.2007  1.5443  1.2674
 9105TIP3    H248731   3.146   4.592   4.564  1.0181  1.7184  0.0238
 9106TIP3   OH248732   5.817   1.506   5.660  0.5368  0.3438 -0.5623
 9106TIP3    H148733   5.728   1.509   5.696  0.6050  0.3829 -0.3962
 9106TIP3    H248734   5.847   1.596   5.663  0.5267  0.3548 -0.7622
 9107TIP3   OH248735   3.905   0.440  17.160  0.0109  0.5291  0.0944
 9107TIP3    H148736   3.990   0.457  17.201  0.4896  0.6608 -0.9355
 9107TIP3    H248737   3.907   0.348  17.136 -0.4400  0.3454  0.7625
 9108TIP3   OH248738   6.356   5.798   3.322  0.3327 -0.1366 -0.2648
 9108TIP3    H148739   6.448   5.792   3.346  0.4028  2.3644  0.2508
 9108TIP3    H248740   6.356   5.836   3.234 -0.1936 -0.3737 -0.3711
 9109TIP3   OH248741   2.552   4.173   1.661  0.3131 -0.0799  0.2450
 9109TIP3    H148742   2.480   4.110   1.656 -1.0427  1.4196  0.6237
 9109TIP3    H248743   2.552   4.202   1.752 -0.5173  2.1416 -0.4447
 9110TIP3   OH248744   5.055   2.396  14.490  0.6802 -0.0463 -0.4536
 9110TIP3    H148745   5.022   2.319  14.536  0.1016 -0.2144 -1.1487
 9110TIP3    H248746   5.150   2.394  14.505  0.5265 -0.2034  0.5683
 9111TIP3   OH248747   5.184   0.265  15.238 -0.4144  0.1326 -0.3685
 9111TIP3    H148748   5.208   0.356  15.222 -0.4503 -0.0548 -1.5206
 9111TIP3    H248749   5.088   0.266  15.242 -0.3534  0.4173  1.3629
 9112TIP3   OH248750   1.292   6.666   3.501  0.5839  0.1215  0.1870
 9112TIP3    H148751   1.227   6.700   3.563 -1.1956 -1.4810 -0.7558
 9112TIP3    H248752   1.366   6.640   3.557 -1.4981 -2.5276  1.8768
 9113TIP3   OH248753   3.667   1.217   2.661  0.1612 -0.4621 -0.6467
 9113TIP3    H148754   3.649   1.184   2.749  0.9967  1.5231  0.2912
 9113TIP3    H248755   3.752   1.260   2.669 -1.1415  2.3586 -1.6911
 9114TIP3   OH248756   3.503   2.164  13.106 -0.2934  0.0819  0.1915
 9114TIP3    H148757   3.536   2.076  13.124  0.1513  0.1729 -0.1747
 9114TIP3    H248758   3.581   2.215  13.084 -0.4339  0.8030  1.3139
 9115TIP3   OH248759   2.036   2.528  13.733  0.7474 -0.0935  0.1976
 9115TIP3    H148760   2.042   2.550  13.640  0.4124 -0.7833  0.0085
 9115TIP3    H248761   1.987   2.446  13.735 -0.0909  0.4138  1.0440
 9116TIP3   OH248762   0.021   1.339  15.863 -0.4846 -0.2974  0.0167
 9116TIP3    H148763   0.109   1.301  15.865 -0.8296 -1.1737 -0.9695
 9116TIP3    H248764  -0.028   1.283  15.804 -1.2994  1.0842 -0.6455
 9117TIP3   OH248765   2.558   0.982   5.106 -0.1783 -0.0818  0.3236
 9117TIP3    H148766   2.471   1.020   5.093  0.4988  2.0604  1.8190
 9117TIP3    H248767   2.544   0.911   5.168 -1.0213 -0.4691 -0.2979
 9118TIP3   OH248768   5.284   5.019   1.591  0.1436 -0.4227  0.8550
 9118TIP3    H148769   5.330   5.021   1.675 -0.2672 -1.7063  1.1233
 9118TIP3    H248770   5.344   5.061   1.530 -0.4048  2.4213  2.1894
 9119TIP3   OH248771   1.765   3.549   4.055 -0.7055 -0.1610  0.8913
 9119TIP3    H148772   1.729   3.560   3.967 -1.9811  0.2293  1.4379
 9119TIP3    H248773   1.795   3.637   4.080  0.1997 -0.3896  0.6243
 9120TIP3   OH248774   1.017   3.197   3.112 -0.3980  0.1347  0.6645
 9120TIP3    H148775   0.984   3.120   3.064  0.1438 -0.1591  0.7599
 9120TIP3    H248776   0.974   3.271   3.069 -1.9960 -0.3007  1.4545
 9121TIP3   OH248777   5.661   6.045   1.463  0.0968  1.1434 -0.1869
 9121TIP3    H148778   5.735   6.017   1.517 -0.5008  1.6488  0.9072
 9121TIP3    H248779   5.675   6.138   1.449 -1.5520  1.7572  2.0079
 9122TIP3   OH248780   3.736   6.743   3.030  0.3484  0.1885  0.5316
 9122TIP3    H148781   3.668   6.772   2.969 -0.2506  0.3915  1.2854
 9122TIP3    H248782   3.765   6.824   3.073  0.5619  0.0074  0.7251
 9123TIP3   OH248783   6.524   3.894   1.990 -0.1858  0.1338 -0.1886
 9123TIP3    H148784   6.540   3.826   2.055  2.1672  1.2031  0.4147
 9123TIP3    H248785   6.561   3.859   1.909  1.9499  1.0573  0.3499
 9124TIP3   OH248786   1.581   3.112  14.963  0.1546 -0.3618 -0.3188
 9124TIP3    H148787   1.517   3.178  14.935  0.6983  1.5569  2.8082
 9124TIP3    H248788   1.527   3.037  14.990 -0.8070  1.0434  1.7852
 9125TIP3   OH248789   3.088   6.419  14.294 -0.0190 -0.2777  0.6837
 9125TIP3    H148790   3.166   6.465  14.265  0.3787 -0.6471  1.1703
 9125TIP3    H248791   3.034   6.488  14.335 -0.2664  0.1057 -0.2734
 9126TIP3   OH248792   0.032   2.243   1.206 -0.1400 -0.3434 -0.3057
 9126TIP3    H148793   0.048   2.176   1.273  0.4340 -0.6024 -0.7016
 9126TIP3    H248794  -0.046   2.289   1.237 -1.0872 -1.7921 -0.5037
 9127TIP3   OH248795   6.771   5.576  15.810  0.3178 -0.1988  0.1434
 9127TIP3    H148796   6.819   5.619  15.880 -0.4457  0.8571  0.0310
 9127TIP3    H248797   6.763   5.485  15.839 -0.8059  0.4298  1.8762
 9128TIP3   OH248798   0.944   1.164  17.122 -0.4620 -0.0056  0.0979
 9128TIP3    H148799   0.915   1.136  17.036  1.2462  0.3411 -0.6064
 9128TIP3    H248800   0.979   1.084  17.163  2.1747  0.5504 -0.9838
 9129TIP3   OH248801   2.660   0.455   4.577 -0.3253  0.4266  0.1050
 9129TIP3    H148802   2.645   0.401   4.500 -1.2170  0.8977 -0.0623
 9129TIP3    H248803   2.610   0.413   4.646  2.0375 -1.0962  0.9309
 9130TIP3   OH248804   5.597   2.957   0.762  0.0731 -0.2405  0.1026
 9130TIP3    H148805   5.552   2.881   0.800  0.0783  0.4113  1.4600
 9130TIP3    H248806   5.630   2.926   0.678 -2.1223 -1.0136 -0.5238
 9131TIP3   OH248807   6.058   6.454  12.826  0.0695  0.3493  0.1460
 9131TIP3    H148808   6.074   6.382  12.886 -0.8374 -0.8346 -1.0289
 9131TIP3    H248809   6.096   6.531  12.870 -1.3624 -0.3328  2.6095
 9132TIP3   OH248810   4.756   4.157   5.699  0.3021 -0.3479 -0.2618
 9132TIP3    H148811   4.772   4.063   5.697  0.0601 -0.4065  0.5397
 9132TIP3    H248812   4.739   4.177   5.791  0.7152  0.5418 -0.3747
 9133TIP3   OH248813   4.125   2.667  14.260  0.6780  0.0866  0.3127
 9133TIP3    H148814   4.103   2.720  14.184  0.9769  0.0826  0.2204
 9133TIP3    H248815   4.096   2.579  14.237 -0.5899  0.3625  0.8033
 9134TIP3   OH248816   2.585   1.120   4.474  0.4391 -0.3516  0.2971
 9134TIP3    H148817   2.678   1.131   4.453  0.5962  0.9393  1.6269
 9134TIP3    H248818   2.545   1.093   4.392  2.0507 -1.2889 -0.2089
 9135TIP3   OH248819   0.154   1.418  14.561 -0.4135  0.1610  0.5859
 9135TIP3    H148820   0.126   1.431  14.471  1.5796  1.8699  0.1569
 9135TIP3    H248821   0.073   1.410  14.612 -1.5474 -0.3523 -1.2763
 9136TIP3   OH248822   0.243   2.738  11.423  0.1239  0.2086  0.0583
 9136TIP3    H148823   0.162   2.731  11.372  0.0746  0.4619  0.1006
 9136TIP3    H248824   0.214   2.760  11.511  0.2482  0.4436  0.0397
 9137TIP3   OH248825   3.225   4.413  13.091  0.1902  0.6333  0.7659
 9137TIP3    H148826   3.221   4.459  13.008  2.2832 -0.5058 -0.0056
 9137TIP3    H248827   3.251   4.324  13.068  0.9162  0.3292  2.6402
 9138TIP3   OH248828   5.811   1.591  10.868 -0.0131  0.6908 -0.1862
 9138TIP3    H148829   5.764   1.603  10.786 -1.1297 -0.4261  0.2692
 9138TIP3    H248830   5.899   1.566  10.843 -0.6699 -0.8216 -1.0589
 9139TIP3   OH248831   2.156   1.304  13.894  0.5314  0.6662 -0.0958
 9139TIP3    H148832   2.147   1.287  13.800  2.9357 -0.1723 -0.2064
 9139TIP3    H248833   2.138   1.220  13.935  3.0846  0.0938 -0.0634
 9140TIP3   OH248834   4.805   1.730  11.746  0.6104  0.3088 -0.4191
 9140TIP3    H148835   4.744   1.773  11.686 -2.9015 -0.0419  2.7128
 9140TIP3    H248836   4.811   1.640  11.715  0.5470  0.6619 -1.4724
 9141TIP3   OH248837   1.495   4.669  11.631  0.0691 -0.1394 -0.3957
 9141TIP3    H148838   1.583   4.703  11.618  0.3457 -1.1779 -1.3475
 9141TIP3    H248839   1.492   4.643  11.723  1.7973 -2.9109 -1.0388
 9142TIP3   OH248840   3.300   2.108   1.625 -0.0402 -0.1551 -0.5572
 9142TIP3    H148841   3.352   2.138   1.699  2.9904 -2.1595 -1.7905
 9142TIP3    H248842   3.293   2.013   1.637 -1.1050 -0.2623 -1.8722
 9143TIP3   OH248843   0.735   4.406   4.261 -0.4256  0.0891  0.3956
 9143TIP3    H148844   0.762   4.440   4.176 -1.3798 -0.3958 -0.1019
 9143TIP3    H248845   0.737   4.482   4.319 -0.3078  0.5289 -0.1868
 9144TIP3   OH248846   2.757   1.466   5.540  0.0509  0.3931  0.2327
 9144TIP3    H148847   2.805   1.546   5.560 -0.7913  1.0962 -0.5101
 9144TIP3    H248848   2.781   1.446   5.450  0.2201 -0.1632  0.4023
 9145TIP3   OH248849   3.031   4.158  14.200 -0.3040  0.1835 -0.0339
 9145TIP3    H148850   3.043   4.250  14.179 -1.8976 -0.0297 -2.1430
 9145TIP3    H248851   2.937   4.149  14.219 -0.1333 -0.9558  0.3270
 9146TIP3   OH248852   4.101   5.037   5.697 -0.2150  0.2141 -0.4758
 9146TIP3    H148853   4.040   5.069   5.763  0.6273  2.4281 -0.7238
 9146TIP3    H248854   4.175   5.003   5.748  0.2490  1.5409 -0.2328
 9147TIP3   OH248855   5.051   2.915   2.069  0.4661  0.2383  0.4257
 9147TIP3    H148856   4.970   2.913   2.018  0.4601 -0.2822  0.4546
 9147TIP3    H248857   5.119   2.893   2.005  0.2309 -2.4575  1.0820
 9148TIP3   OH248858   4.570   5.044   0.021  0.5768  0.1403  0.6670
 9148TIP3    H148859   4.548   5.079  -0.065  0.3107 -3.0622 -0.6686
 9148TIP3    H248860   4.640   4.980   0.004 -1.3357 -2.5511  2.3711
 9149TIP3   OH248861   1.723   1.705   3.414  0.4268 -0.8726  0.0241
 9149TIP3    H148862   1.701   1.747   3.331  0.2720  1.4157  1.1863
 9149TIP3    H248863   1.751   1.617   3.390 -1.2441 -0.8107 -2.3094
 9150TIP3   OH248864   1.670   4.781  13.788  0.1299 -0.5582 -0.6203
 9150TIP3    H148865   1.610   4.798  13.860  0.3860  1.6599 -0.8946
 9150TIP3    H248866   1.750   4.750  13.829  0.2716  0.6854  0.0683
 9151TIP3   OH248867   6.283   3.047  14.020 -0.1931 -0.6629 -0.5287
 9151TIP3    H148868   6.326   3.117  13.972 -0.2002  0.2025  0.6980
 9151TIP3    H248869   6.224   3.006  13.957 -0.1419  0.3954 -1.2648
 9152TIP3   OH248870   0.850   5.193   3.764  0.0357 -0.1715 -0.0103
 9152TIP3    H148871   0.926   5.170   3.710 -0.3138  0.2599 -0.6857
 9152TIP3    H248872   0.776   5.150   3.721 -0.1373 -0.4356  0.5442
 9153TIP3   OH248873   6.068   4.286  15.052  0.3827 -0.0733 -0.0201
 9153TIP3    H148874   6.041   4.279  14.961 -1.9022 -0.8065  0.6849
 9153TIP3    H248875   6.072   4.195  15.083  0.7271  0.1953  0.7375
 9154TIP3   OH248876   4.684   4.514  13.268 -0.2777  0.0054  0.2710
 9154TIP3    H148877   4.650   4.460  13.339  0.1560  0.2119  0.6366
 9154TIP3    H248878   4.606   4.554  13.228 -0.5422 -0.3483  0.4370
 9155TIP3   OH248879   2.442   6.457  10.693 -0.2358 -0.4373  0.0181
 9155TIP3    H148880   2.518   6.419  10.649 -0.2164  0.2534 -0.5575
 9155TIP3    H248881   2.368   6.403  10.665 -0.3256  0.3938 -1.4090
 9156TIP3   OH248882   4.665   3.554  15.370  0.2652 -0.5067 -0.0485
 9156TIP3    H148883   4.666   3.575  15.463  0.7198 -0.0694 -0.1516
 9156TIP3    H248884   4.732   3.611  15.332  0.3929 -1.0088 -0.5719
 9157TIP3   OH248885   5.135   1.956   0.386 -0.0812  0.5342  0.3332
 9157TIP3    H148886   5.149   1.920   0.299  0.1492 -1.5693  1.2108
 9157TIP3    H248887   5.210   1.925   0.437 -0.0014  2.0766  1.1960
 9158TIP3   OH248888   4.397   2.893   6.580 -0.6715  0.2466  0.4714
 9158TIP3    H148889   4.310   2.855   6.566 -0.5579 -0.2368  1.0655
 9158TIP3    H248890   4.455   2.842   6.523 -0.6609  0.1033  0.6112
 9159TIP3   OH248891   2.527   6.455   6.066 -0.4460  0.0337 -0.5079
 9159TIP3    H148892   2.469   6.482   6.137 -1.4360 -0.6872 -1.0397
 9159TIP3    H248893   2.598   6.520   6.067 -0.5571  0.1474  0.9991
 9160TIP3   OH248894   1.842   1.038  15.160  0.6206  0.0116  0.2315
 9160TIP3    H148895   1.775   1.031  15.228 -0.9638 -0.5243 -1.3686
 9160TIP3    H248896   1.888   1.119  15.180 -0.4988  0.3803  1.3521
 9161TIP3   OH248897   6.401   3.326   3.125 -0.2137 -0.5196  0.2167
 9161TIP3    H148898   6.466   3.378   3.078 -0.8019 -0.7005 -0.8231
 9161TIP3    H248899   6.420   3.236   3.101 -1.4352 -0.5091 -0.8961
 9162TIP3   OH248900   3.677   0.311  15.460 -0.2124 -0.2091  0.7806
 9162TIP3    H148901   3.709   0.243  15.400 -0.8425 -0.6522  0.9333
 9162TIP3    H248902   3.748   0.324  15.522  0.4463  0.2559 -0.0658
 9163TIP3   OH248903   2.327   1.194  15.202  0.1552  0.0485  0.5661
 9163TIP3    H148904   2.354   1.156  15.286  0.7815 -0.7230  0.0295
 9163TIP3    H248905   2.407   1.233  15.166 -0.4260  1.6812  0.9956
 9164TIP3   OH248906   5.234   4.459  13.628 -0.1130 -0.1732  1.2105
 9164TIP3    H148907   5.148   4.500  13.620 -0.6250 -1.4528 -0.1280
 9164TIP3    H248908   5.216   4.373  13.667  0.5400 -0.4831  0.8399
 9165TIP3   OH248909   0.358   2.252  12.786  0.6910 -0.0187 -0.3876
 9165TIP3    H148910   0.329   2.227  12.699  0.4725  0.2963 -0.4076
 9165TIP3    H248911   0.345   2.174  12.840  0.4477 -0.0865 -0.5467
 9166TIP3   OH248912   1.639   4.324   3.293 -0.0478 -0.3089  0.3332
 9166TIP3    H148913   1.625   4.313   3.387 -0.6139 -0.5075  0.2305
 9166TIP3    H248914   1.608   4.413   3.274 -2.3853 -1.1714 -0.1054
 9167TIP3   OH248915   5.959   6.573   1.172 -0.0473  0.0253 -0.3633
 9167TIP3    H148916   5.890   6.507   1.175  0.9186 -1.1168 -2.3794
 9167TIP3    H248917   5.919   6.652   1.209 -1.7627 -1.1779  0.4230
 9168TIP3   OH248918   0.387   1.556  16.333  0.0634  0.5643 -0.2332
 9168TIP3    H148919   0.400   1.461  16.330  0.8885  0.6942 -1.4633
 9168TIP3    H248920   0.293   1.568  16.342 -0.0083 -0.3728  0.3197
 9169TIP3   OH248921   3.074   6.540   0.503 -0.8507  0.3142  0.0065
 9169TIP3    H148922   3.078   6.576   0.591 -0.7466  0.7743 -0.1859
 9169TIP3    H248923   3.052   6.448   0.515 -1.6605  0.5709  0.4703
 9170TIP3   OH248924   0.126   4.252  13.607 -0.2704 -0.4131  1.2303
 9170TIP3    H148925   0.047   4.307  13.605 -1.3041 -1.8590  1.3197
 9170TIP3    H248926   0.198   4.314  13.601 -1.3827  1.0363  2.2702
 9171TIP3   OH248927   1.351   5.975  16.457  0.5955  0.0534 -0.0186
 9171TIP3    H148928   1.265   5.970  16.500  0.3425 -1.5140 -0.6899
 9171TIP3    H248929   1.379   6.065  16.471 -1.2692  0.6529  0.0328
 9172TIP3   OH248930   6.241   6.292   3.883  0.0752 -0.0752 -0.0478
 9172TIP3    H148931   6.280   6.347   3.814 -0.2256 -1.1967 -1.1231
 9172TIP3    H248932   6.298   6.215   3.887  0.0357 -0.0581  0.9060
 9173TIP3   OH248933   5.845   0.516  14.154 -0.0452 -0.5230 -0.5987
 9173TIP3    H148934   5.756   0.550  14.159 -0.0219 -0.1086 -2.6182
 9173TIP3    H248935   5.850   0.473  14.068  1.8630 -0.0304 -0.7718
 9174TIP3   OH248936   5.825   4.382   6.032 -0.1562 -0.2146  0.2945
 9174TIP3    H148937   5.757   4.431   6.079 -0.2101  0.7520 -0.7657
 9174TIP3    H248938   5.875   4.449   5.985  0.2399 -1.1186 -0.5909
 9175TIP3   OH248939   6.043   4.979   6.058  0.4656 -0.0892 -0.5210
 9175TIP3    H148940   5.953   4.996   6.028 -0.2242  0.3927  1.7701
 9175TIP3    H248941   6.034   4.959   6.151  2.5196 -2.1683 -0.7356
 9176TIP3   OH248942   1.220   1.474  14.709  0.7715  0.4976 -0.2525
 9176TIP3    H148943   1.171   1.482  14.627  1.0955  0.7041 -0.4286
 9176TIP3    H248944   1.305   1.514  14.690  1.0570  0.0201  0.0097
 9177TIP3   OH248945   4.827   1.966  14.628 -0.6484  0.1167 -0.3437
 9177TIP3    H148946   4.807   2.040  14.571 -2.2350 -1.3859 -1.7990
 9177TIP3    H248947   4.749   1.955  14.682 -0.0644  0.0477  0.5113
 9178TIP3   OH248948   3.580   4.913  12.502  0.2511 -0.4015  0.0374
 9178TIP3    H148949   3.575   4.859  12.423  1.1836 -0.9678  0.3601
 9178TIP3    H248950   3.521   4.987  12.484  0.1030 -0.7595 -0.9967
 9179TIP3   OH248951   3.370   0.400  16.831  0.3164 -0.2207 -0.4637
 9179TIP3    H148952   3.316   0.374  16.756  0.3765  3.2540 -1.8215
 9179TIP3    H248953   3.346   0.492  16.847  1.9882 -0.2005  2.3328
 9180TIP3   OH248954   4.747   4.592   1.335  0.1364 -0.2354 -0.1012
 9180TIP3    H148955   4.691   4.626   1.405  0.3691  0.5332 -0.2789
 9180TIP3    H248956   4.696   4.606   1.255  1.0704  1.6159 -0.4028
 9181TIP3   OH248957   3.658   2.221   0.554  0.2258  0.6962  0.3059
 9181TIP3    H148958   3.589   2.188   0.497 -0.7212  0.5273  1.5291
 9181TIP3    H248959   3.615   2.285   0.610  1.0035  0.3899  1.2721
 9182TIP3   OH248960   1.407   3.756  11.242 -0.3620  0.0425  0.4038
 9182TIP3    H148961   1.488   3.757  11.190 -0.5077 -0.2349  0.1735
 9182TIP3    H248962   1.437   3.752  11.333 -0.0828  1.3436  0.3905
 9183TIP3   OH248963   0.669   1.610   5.181  0.1747 -0.7109 -0.3575
 9183TIP3    H148964   0.649   1.518   5.164 -0.2059 -0.2179 -2.6754
 9183TIP3    H248965   0.696   1.646   5.097  3.5585  0.5377  1.1859
 9184TIP3   OH248966   4.383   4.294  16.067  0.2474  0.0479 -0.5490
 9184TIP3    H148967   4.440   4.306  15.990  1.1248  0.8890  0.2214
 9184TIP3    H248968   4.379   4.380  16.108 -0.2434 -0.3913  0.3454
 9185TIP3   OH248969   3.781   1.312  15.956  0.5419 -0.1935 -0.0047
 9185TIP3    H148970   3.696   1.336  15.921  1.1844  1.7525 -0.2994
 9185TIP3    H248971   3.766   1.302  16.050 -0.3339 -1.4870 -0.2687
 9186TIP3   OH248972   3.173   4.935  13.788 -0.7153  0.0368  0.0164
 9186TIP3    H148973   3.141   5.000  13.725 -2.4651 -1.0581 -0.2462
 9186TIP3    H248974   3.107   4.867  13.789  0.9812 -1.6519  0.4869
 9187TIP3   OH248975   6.376   4.614  14.953  0.4390 -0.5897 -0.1315
 9187TIP3    H148976   6.351   4.597  14.862  0.9813  0.1512 -0.4205
 9187TIP3    H248977   6.293   4.626  14.998  0.2067  1.1958 -0.9625
 9188TIP3   OH248978   0.556   0.705  11.263 -0.1423 -0.1756 -0.0183
 9188TIP3    H148979   0.558   0.718  11.168 -2.6959 -0.9606 -0.2253
 9188TIP3    H248980   0.516   0.786  11.296  1.0650  0.2417  0.4305
 9189TIP3   OH248981   6.174   3.363   6.710 -0.0616  0.1849 -0.2022
 9189TIP3    H148982   6.109   3.417   6.664 -0.7093 -1.1585 -0.9050
 9189TIP3    H248983   6.173   3.280   6.663  0.1125 -0.8259  1.5356
 9190TIP3   OH248984   1.326   2.333  14.031 -0.1683 -0.2550 -0.7374
 9190TIP3    H148985   1.286   2.415  14.061 -1.4775 -1.1286 -0.0724
 9190TIP3    H248986   1.419   2.355  14.021 -0.6182  1.5058 -1.2713
 9191TIP3   OH248987   2.184   4.461  12.927  0.1005 -0.0358 -0.1004
 9191TIP3    H148988   2.134   4.534  12.962  1.2877  1.0694 -0.6409
 9191TIP3    H248989   2.204   4.406  13.003 -2.0489 -0.5960  0.0898
 9192TIP3   OH248990   5.902   2.496   0.599  0.0944  0.0346 -0.1019
 9192TIP3    H148991   5.969   2.495   0.531  0.7203  0.6787  0.5092
 9192TIP3    H248992   5.894   2.404   0.626  1.2140  0.0455  0.2922
 9193TIP3   OH248993   1.457   2.188   2.045  0.0946  0.2125 -0.3818
 9193TIP3    H148994   1.544   2.212   2.014  0.1956  0.2212 -0.0959
 9193TIP3    H248995   1.466   2.183   2.140 -0.1739  0.0412 -0.3639
 9194TIP3   OH248996   1.212   0.515  13.384 -0.1769 -0.1566  0.0987
 9194TIP3    H148997   1.243   0.427  13.362 -2.0929 -0.6793 -0.6134
 9194TIP3    H248998   1.269   0.543  13.455 -0.5915 -2.6569  1.4787
 9195TIP3   OH248999   0.140   1.712   1.806  0.3933 -0.4317 -0.6844
 9195TIP3    H149000   0.044   1.710   1.807  0.4347 -2.4883  0.2925
 9195TIP3    H249001   0.166   1.672   1.888  2.1119  1.1120 -0.4497
 9196TIP3   OH249002   4.366   6.389   1.452  0.1419 -0.7678  1.0013
 9196TIP3    H149003   4.369   6.469   1.399 -1.7141  0.7327  3.0429
 9196TIP3    H249004   4.457   6.364   1.464  0.6799  0.1629 -0.9462
 9197TIP3   OH249005   4.490   3.898   1.377  0.1131 -0.3137  0.3162
 9197TIP3    H149006   4.439   3.979   1.377 -0.9187 -0.9346  2.3523
 9197TIP3    H249007   4.581   3.927   1.368 -0.1828  1.1223  1.7303
 9198TIP3   OH249008   0.835   6.633  11.665  0.1652  0.2988 -0.2692
 9198TIP3    H149009   0.895   6.626  11.590  0.0507 -1.2993 -0.2443
 9198TIP3    H249010   0.748   6.627  11.626  0.1287 -2.2859  0.1057
 9199TIP3   OH249011   5.490   1.005  13.648  0.2892  0.2832 -0.0681
 9199TIP3    H149012   5.531   1.085  13.682 -0.6506  1.5639 -1.9173
 9199TIP3    H249013   5.523   0.997  13.558 -0.1817 -1.0305 -0.1381
 9200TIP3   OH249014   4.498   5.262  17.097 -0.3916  0.1665 -0.2546
 9200TIP3    H149015   4.559   5.326  17.060  0.5470  0.1409  1.1982
 9200TIP3    H249016   4.465   5.304  17.177  2.1145 -2.0984  2.0740
 9201TIP3   OH249017   5.585   0.524   1.865 -0.2791 -0.6400  0.4477
 9201TIP3    H149018   5.587   0.490   1.775  2.5390 -1.7536  0.8782
 9201TIP3    H249019   5.496   0.508   1.895 -1.0319 -1.0177 -1.8594
 9202TIP3   OH249020   2.664   3.641   5.802 -0.2073 -0.6970 -0.8478
 9202TIP3    H149021   2.636   3.628   5.893  0.9187  0.8416 -0.2586
 9202TIP3    H249022   2.661   3.554   5.763 -0.6950 -1.3736  0.6780
 9203TIP3   OH249023   3.398   4.324   5.301 -0.3442  0.1806  0.0208
 9203TIP3    H149024   3.405   4.407   5.348 -2.8126  0.6935 -0.4259
 9203TIP3    H249025   3.339   4.271   5.355  2.0582 -1.7400  0.8680
 9204TIP3   OH249026   5.862   3.152  15.603 -0.5437  0.3664 -0.5535
 9204TIP3    H149027   5.864   3.070  15.553 -0.0876  0.7646 -1.1992
 9204TIP3    H249028   5.861   3.124  15.695  1.1189 -0.3529 -0.7369
 9205TIP3   OH249029   0.354   4.251  16.937  0.1247  0.5927  0.0440
 9205TIP3    H149030   0.415   4.197  16.885 -0.5949  0.5024 -0.7252
 9205TIP3    H249031   0.286   4.189  16.965 -0.1384  0.8875  0.0544
 9206TIP3   OH249032   3.435   5.255   2.353  0.3344  0.0045  0.1473
 9206TIP3    H149033   3.475   5.173   2.323  0.8467 -0.2077  1.3838
 9206TIP3    H249034   3.507   5.317   2.357 -0.3394  1.0733 -2.5363
 9207TIP3   OH249035   2.770   3.446   5.210  1.0187  1.0030 -0.4116
 9207TIP3    H149036   2.720   3.411   5.136  0.4356 -1.9503  1.3132
 9207TIP3    H249037   2.861   3.435   5.186  0.8586 -2.1676  0.2299
 9208TIP3   OH249038   3.946   2.492  15.979  0.2117 -0.1344  0.1666
 9208TIP3    H149039   3.946   2.509  16.073  0.8930  0.0529  0.1371
 9208TIP3    H249040   3.854   2.475  15.957  0.1134 -0.6548  0.9524
 9209TIP3   OH249041   2.401   5.944  16.537  0.1789 -0.2691 -0.2607
 9209TIP3    H149042   2.361   6.016  16.585 -0.4753 -1.5939  1.2277
 9209TIP3    H249043   2.493   5.947  16.562  0.0138 -0.3906  0.3624
 9210TIP3   OH249044   6.350   2.649  15.215 -0.0807  0.2692  0.5508
 9210TIP3    H149045   6.411   2.628  15.286  0.3615  0.1561  0.1324
 9210TIP3    H249046   6.375   2.591  15.143 -1.6036 -0.8047  0.8718
 9211TIP3   OH249047   3.765   3.037   0.330  0.1351 -0.3173 -0.7119
 9211TIP3    H149048   3.713   2.988   0.393 -1.9469 -0.3183 -2.3592
 9211TIP3    H249049   3.847   2.989   0.323 -0.2335 -1.1828  0.7979
 9212TIP3   OH249050   2.734   5.318   0.972  0.5063 -0.3114 -0.1513
 9212TIP3    H149051   2.645   5.352   0.975  1.3754  2.1940 -1.2558
 9212TIP3    H249052   2.774   5.347   1.054  0.5496 -0.6919 -0.0383
 9213TIP3   OH249053   6.251   4.765   6.636  0.5450 -0.0323 -0.2075
 9213TIP3    H149054   6.342   4.786   6.617  1.3392 -1.4333  1.8720
 9213TIP3    H249055   6.217   4.842   6.680  1.2470 -0.1840  0.6066
 9214TIP3   OH249056   1.963   1.104   4.171 -0.1440  0.5437 -0.1143
 9214TIP3    H149057   1.893   1.073   4.229  0.9739  0.9863  1.4921
 9214TIP3    H249058   1.944   1.197   4.159 -0.5645  0.3821 -0.7574
 9215TIP3   OH249059   1.685   1.803  12.921 -1.1509 -0.1534 -0.2749
 9215TIP3    H149060   1.696   1.898  12.918  0.3018 -0.3159 -0.8387
 9215TIP3    H249061   1.591   1.789  12.916 -1.3119  1.2205 -1.5200
 9216TIP3   OH249062   0.053   3.082  13.018  0.7781 -0.7619  0.3113
 9216TIP3    H149063   0.134   3.032  13.026  1.2861  0.2799  1.8356
 9216TIP3    H249064   0.040   3.122  13.104 -1.2783 -0.7979  0.0560
 9217TIP3   OH249065   3.184   2.543  13.855  1.1480 -0.0885 -1.1030
 9217TIP3    H149066   3.110   2.599  13.833 -0.0417 -2.0023 -2.0402
 9217TIP3    H249067   3.178   2.532  13.950  0.4709  0.0930 -1.1236
 9218TIP3   OH249068   5.570   1.947  11.198 -0.3500 -0.3958  0.5878
 9218TIP3    H149069   5.542   1.943  11.289 -0.7910  0.8147  0.5220
 9218TIP3    H249070   5.559   1.858  11.165 -0.2427 -0.8258  1.6962
 9219TIP3   OH249071   5.083   5.641   5.593 -0.0641  0.0316 -0.0334
 9219TIP3    H149072   5.062   5.568   5.536  0.4137 -0.6234  0.6229
 9219TIP3    H249073   5.176   5.659   5.576 -0.3697  0.9582 -0.7288
 9220TIP3   OH249074   6.363   1.451  15.428  0.0281  0.0653 -0.2721
 9220TIP3    H149075   6.276   1.491  15.428  0.3294  0.7381 -0.0152
 9220TIP3    H249076   6.423   1.525  15.433  0.6148 -0.4030 -0.2993
 9221TIP3   OH249077   3.735   6.134   3.610 -0.2463  0.0583 -0.2564
 9221TIP3    H149078   3.800   6.071   3.642  1.4067  1.5878 -0.5450
 9221TIP3    H249079   3.778   6.219   3.617 -1.0871  0.7941 -3.2791
 9222TIP3   OH249080   4.378   3.642  17.013  0.3617 -0.8292 -0.1234
 9222TIP3    H149081   4.343   3.691  16.939  0.9937  0.2066  0.2550
 9222TIP3    H249082   4.301   3.605  17.056 -0.2460  1.0096  0.4015
 9223TIP3   OH249083   4.143   6.194   6.366 -0.0042 -0.6161 -0.0854
 9223TIP3    H149084   4.130   6.103   6.341  2.8934 -0.9423 -0.4936
 9223TIP3    H249085   4.238   6.207   6.365 -0.3514  2.3510  0.1681
 9224TIP3   OH249086   5.362   5.940   3.319  0.8451  0.5906 -0.1226
 9224TIP3    H149087   5.287   5.993   3.346  1.3487  0.7748  0.9556
 9224TIP3    H249088   5.423   5.946   3.393  1.4063 -0.5375 -0.4840
 9225TIP3   OH249089   2.446   4.992  11.382  0.5539 -0.0586  0.2617
 9225TIP3    H149090   2.400   4.974  11.464  0.8268 -0.0746  0.4140
 9225TIP3    H249091   2.471   4.905  11.348  0.5843 -0.0445  0.2462
 9226TIP3   OH249092   6.714   3.829  15.350  0.0601  0.5070 -0.4492
 9226TIP3    H149093   6.671   3.852  15.432 -2.1922 -0.4292 -1.3447
 9226TIP3    H249094   6.804   3.861  15.360 -1.1930  3.7466  0.9093
 9227TIP3   OH249095   2.819   2.191   0.360 -0.5473 -0.5758  0.2799
 9227TIP3    H149096   2.817   2.212   0.454 -1.3975 -0.2843  0.1981
 9227TIP3    H249097   2.904   2.148   0.348  0.0546  0.3841  0.9617
 9228TIP3   OH249098   1.931   4.683  17.006  0.5645 -0.1808 -0.1058
 9228TIP3    H149099   2.007   4.685  16.947 -0.0160 -1.0948 -0.8943
 9228TIP3    H249100   1.960   4.629  17.080  1.1042  0.5207  0.2138
 9229TIP3   OH249101   3.269   3.347  12.438 -0.2431  0.3030 -0.5568
 9229TIP3    H149102   3.319   3.292  12.498  0.1232  1.9738  0.7208
 9229TIP3    H249103   3.204   3.391  12.493  0.0370  1.7953 -1.3737
 9230TIP3   OH249104   4.497   2.953   1.293 -0.2581 -0.8950 -0.2766
 9230TIP3    H149105   4.501   3.003   1.212 -1.9859 -2.2775 -1.2456
 9230TIP3    H249106   4.586   2.957   1.328 -0.1221  1.9146 -0.8763
 9231TIP3   OH249107   3.819   2.860  14.521 -0.0874 -0.4723 -0.4166
 9231TIP3    H149108   3.876   2.812  14.461 -0.1406 -1.6935  0.4826
 9231TIP3    H249109   3.732   2.822  14.509 -0.2519 -0.2026 -0.1173
 9232TIP3   OH249110   2.068   6.161   1.683  0.3305 -0.5117  0.6771
 9232TIP3    H149111   2.044   6.158   1.591 -1.7942  0.5421  1.1746
 9232TIP3    H249112   2.052   6.072   1.715 -1.5184 -0.2165  0.6304
 9233TIP3   OH249113   3.339   0.368  14.429  0.4049  0.5285  0.2199
 9233TIP3    H149114   3.286   0.327  14.360  0.2862  1.6412 -0.3549
 9233TIP3    H249115   3.413   0.309  14.440  0.7034  0.6153 -1.2472
 9234TIP3   OH249116   6.010   0.097  11.373  0.0011 -0.0728  0.6243
 9234TIP3    H149117   5.961   0.014  11.371 -1.2766  0.6576  0.5811
 9234TIP3    H249118   5.998   0.133  11.285  1.6519 -0.4483  0.2350
 9235TIP3   OH249119   3.805   0.467   3.104  0.4146 -0.1716  0.0615
 9235TIP3    H149120   3.858   0.542   3.131 -0.2519  0.1023  0.6278
 9235TIP3    H249121   3.727   0.506   3.064  1.1040 -0.5703 -1.7137
 9236TIP3   OH249122   6.193   0.994   1.491 -0.0245 -0.2308 -0.2047
 9236TIP3    H149123   6.248   1.002   1.413 -0.3137  0.4344 -0.3382
 9236TIP3    H249124   6.255   0.971   1.561  0.1809 -1.2386 -0.6977
 9237TIP3   OH249125   6.002   4.786  15.036  0.0484 -0.0024  0.3026
 9237TIP3    H149126   5.914   4.777  15.074 -0.1826 -1.1501 -0.4776
 9237TIP3    H249127   6.043   4.701  15.051  1.2652  0.7562  1.2490
 9238TIP3   OH249128   0.158   1.008   5.167 -0.0337  0.3592  0.4437
 9238TIP3    H149129   0.135   1.043   5.081 -0.4963 -0.7872  0.0932
 9238TIP3    H249130   0.235   1.059   5.194  0.1966  0.6315 -0.7059
 9239TIP3   OH249131   1.767   6.062   6.435  0.0870  0.6065 -0.6027
 9239TIP3    H149132   1.816   6.137   6.401  3.8853 -0.8510  1.4817
 9239TIP3    H249133   1.806   5.986   6.391 -0.5199 -0.5681  0.8617
 9240TIP3   OH249134   1.856   0.798   5.725  0.1734 -0.2744  0.0003
 9240TIP3    H149135   1.836   0.868   5.662  1.5464 -0.5395 -0.7680
 9240TIP3    H249136   1.949   0.812   5.745  0.8653 -2.7364 -1.2791
 9241TIP3   OH249137   3.681   4.157  11.715 -0.1221 -1.1465  0.4220
 9241TIP3    H149138   3.701   4.115  11.631 -1.5247  0.4284 -0.7252
 9241TIP3    H249139   3.762   4.204  11.738 -0.9942  1.8126 -2.1501
 9242TIP3   OH249140   2.784   4.164   0.192 -0.3393  0.5384  0.1038
 9242TIP3    H149141   2.818   4.127   0.110  0.8061  0.4029  0.6236
 9242TIP3    H249142   2.743   4.246   0.166 -0.1320  0.4147 -0.6309
 9243TIP3   OH249143   0.238   6.637   4.354 -0.3075 -0.5133  0.5782
 9243TIP3    H149144   0.187   6.707   4.313 -0.6588 -0.4211  1.1598
 9243TIP3    H249145   0.323   6.676   4.371  0.1524 -0.8455 -0.9289
 9244TIP3   OH249146   2.081   1.925   1.531  0.1533  0.3193 -0.2594
 9244TIP3    H149147   2.069   1.976   1.451 -2.2909  0.1255 -0.0606
 9244TIP3    H249148   2.022   1.851   1.520  0.7188 -0.3560  1.2044
 9245TIP3   OH249149   3.893   0.497  15.318  0.2143 -0.4593 -0.4826
 9245TIP3    H149150   3.875   0.428  15.255 -1.8995 -0.6356  0.2543
 9245TIP3    H249151   3.862   0.577  15.276  1.4906 -0.1430 -0.8275
 9246TIP3   OH249152   3.943   3.805   3.902 -0.3488  0.4456 -0.2319
 9246TIP3    H149153   3.888   3.882   3.920 -0.5492 -0.1521  1.8788
 9246TIP3    H249154   3.888   3.731   3.929  0.1061 -0.3892 -1.6010
 9247TIP3   OH249155   2.482   1.262  14.696 -0.5297 -0.1533 -0.5555
 9247TIP3    H149156   2.484   1.201  14.769  1.8741 -0.4712 -0.8388
 9247TIP3    H249157   2.461   1.347  14.735 -0.5164 -0.5547  0.3274
 9248TIP3   OH249158   1.108   3.000  17.014 -0.4144  0.1462  0.0547
 9248TIP3    H149159   1.045   2.991  16.942 -1.0110 -0.4817  0.6503
 9248TIP3    H249160   1.054   3.020  17.091  0.2079  0.6759  0.3517
 9249TIP3   OH249161   3.563   6.050   5.277  0.1092  0.0483 -0.2923
 9249TIP3    H149162   3.507   6.000   5.337  0.2226 -0.5648 -0.6969
 9249TIP3    H249163   3.647   6.056   5.323  0.2916 -0.6927 -0.5191
 9250TIP3   OH249164   5.834   5.754   0.923 -0.6467 -0.0761  0.1700
 9250TIP3    H149165   5.826   5.663   0.953 -0.4835  0.2973  1.3863
 9250TIP3    H249166   5.840   5.748   0.828  1.4523 -1.4733  0.3770
 9251TIP3   OH249167   3.569   3.936  10.811  0.2644 -0.1796 -0.6758
 9251TIP3    H149168   3.515   3.962  10.886  1.3500  0.9046 -0.2621
 9251TIP3    H249169   3.587   4.018  10.765  0.4519 -0.7125 -1.5518
 9252TIP3   OH249170   0.701   2.274  16.746 -0.3207 -0.2620  0.6099
 9252TIP3    H149171   0.704   2.337  16.675  0.8978 -1.4479 -0.4130
 9252TIP3    H249172   0.615   2.288  16.787 -0.9299  0.5857 -0.9298
 9253TIP3   OH249173   1.203   0.216  13.591 -0.1729 -0.0426 -0.5693
 9253TIP3    H149174   1.231   0.232  13.681 -0.0305  1.6045 -0.8817
 9253TIP3    H249175   1.283   0.220  13.539 -0.4209  0.3536 -0.9285
 9254TIP3   OH249176   2.159   5.407  16.523  0.3571 -0.1891 -0.0692
 9254TIP3    H149177   2.164   5.311  16.519 -2.2202 -0.4346  1.3498
 9254TIP3    H249178   2.066   5.425  16.538  0.7976  2.5535 -0.4267
 9255TIP3   OH249179   5.392   5.702  11.146 -0.3791  0.1100 -0.4372
 9255TIP3    H149180   5.462   5.712  11.210 -0.7136 -0.0869 -0.0421
 9255TIP3    H249181   5.413   5.765  11.077  1.0291 -0.9922 -1.0562
 9256TIP3   OH249182   3.811   1.595  16.027 -0.2797 -0.1551 -0.0375
 9256TIP3    H149183   3.719   1.586  16.049 -0.2000  1.4002  0.9401
 9256TIP3    H249184   3.837   1.507  15.999 -2.2181 -0.4394 -1.0191
 9257TIP3   OH249185   0.421   6.175  14.494 -0.2708 -0.1241  0.3609
 9257TIP3    H149186   0.505   6.128  14.500  0.8634  1.9915  2.0013
 9257TIP3    H249187   0.385   6.150  14.409  1.3794 -2.1437  0.2198
 9258TIP3   OH249188   2.931   2.384  14.417 -0.0510 -0.1191  0.1784
 9258TIP3    H149189   2.875   2.442  14.468  0.2989  0.1151  0.3026
 9258TIP3    H249190   2.907   2.401  14.326 -0.9845 -0.8566  0.2755
 9259TIP3   OH249191   4.659   5.577   3.046  0.0690  0.0002  0.5854
 9259TIP3    H149192   4.587   5.530   3.088  2.1289 -1.6254  2.4483
 9259TIP3    H249193   4.665   5.659   3.094  0.1705 -0.3417  1.1590
 9260TIP3   OH249194   1.904   6.013   0.386  0.4952  0.5476  0.0879
 9260TIP3    H149195   1.924   6.064   0.464 -1.4525 -0.3231  1.2077
 9260TIP3    H249196   1.962   5.936   0.392 -1.8003 -1.1061  2.4007
 9261TIP3   OH249197   3.830   0.565   0.860  0.0548 -0.7474  0.1183
 9261TIP3    H149198   3.827   0.527   0.948  2.6183  0.2910  0.6982
 9261TIP3    H249199   3.851   0.491   0.802 -0.7403 -1.2644  0.4827
 9262TIP3   OH249200   2.824   3.651  11.567  0.8886  0.0588 -0.3783
 9262TIP3    H149201   2.863   3.595  11.500 -0.6786  0.5344 -1.7577
 9262TIP3    H249202   2.898   3.695  11.608  2.0465 -2.1235 -0.0830
 9263TIP3   OH249203   2.002   1.059  14.428 -0.1610 -0.2101  0.1661
 9263TIP3    H149204   1.919   1.035  14.468  0.1649  0.2886  1.1471
 9263TIP3    H249205   2.005   1.155  14.434 -0.1219 -0.1287 -1.0725
 9264TIP3   OH249206   1.168   1.526   0.573  0.4382  0.2186 -0.6564
 9264TIP3    H149207   1.222   1.562   0.503  0.4034  0.2862 -0.6482
 9264TIP3    H249208   1.079   1.556   0.554  0.0508 -1.5821 -1.8054
 9265TIP3   OH249209   5.185   3.938  13.819  0.2626 -0.2993 -0.1115
 9265TIP3    H149210   5.202   3.858  13.870 -0.1987 -0.1179  0.3334
 9265TIP3    H249211   5.185   4.008  13.883 -1.9741 -0.2717 -0.0965
 9266TIP3   OH249212   5.708   4.096  15.434  0.2150 -0.2599  0.0422
 9266TIP3    H149213   5.782   4.156  15.427  0.7798 -0.8301  1.0162
 9266TIP3    H249214   5.645   4.127  15.369  0.5468  1.3193  0.4628
 9267TIP3   OH249215   2.848   1.300  16.502  0.2144  0.1851  0.3715
 9267TIP3    H149216   2.753   1.285  16.506  0.4604 -1.4401  0.6040
 9267TIP3    H249217   2.874   1.308  16.594  0.3074  0.6201  0.3082
 9268TIP3   OH249218   0.263   6.686  14.257 -0.5891  0.1439 -0.8437
 9268TIP3    H149219   0.319   6.741  14.202 -0.6137  0.3938 -0.6174
 9268TIP3    H249220   0.195   6.745  14.289 -2.1704 -0.5673 -2.7429
 9269TIP3   OH249221   3.941   3.070   4.059 -0.1815  0.1027 -0.4718
 9269TIP3    H149222   3.859   3.072   4.109 -0.3268 -2.6344 -0.5270
 9269TIP3    H249223   4.010   3.079   4.125 -0.3869 -3.0618  0.2850
 9270TIP3   OH249224   1.351   0.221  12.191  0.2946 -0.0926 -0.3112
 9270TIP3    H149225   1.405   0.291  12.155  0.1673  1.4698  2.4311
 9270TIP3    H249226   1.276   0.215  12.132  0.6286  1.6497 -0.9291
 9271TIP3   OH249227   0.822   0.560   0.706 -0.5039 -0.0605 -0.5444
 9271TIP3    H149228   0.804   0.577   0.613  1.7275 -1.4214 -1.2551
 9271TIP3    H249229   0.761   0.490   0.730  0.1179 -0.9425 -1.4824
 9272TIP3   OH249230   5.457   5.972  12.642  0.2749  0.2615 -0.5191
 9272TIP3    H149231   5.504   5.972  12.558 -0.8313 -1.4950 -1.1845
 9272TIP3    H249232   5.497   5.900  12.691 -0.1564  0.2524 -0.1799
 9273TIP3   OH249233   3.410   3.964  14.856  0.5678  0.2042 -0.0452
 9273TIP3    H149234   3.343   3.928  14.797  1.1618 -0.3277 -0.3966
 9273TIP3    H249235   3.401   3.912  14.937 -0.4945  1.1775  0.4792
 9274TIP3   OH249236   1.322   1.717  17.179 -0.0724 -0.1895  0.2606
 9274TIP3    H149237   1.292   1.807  17.167  3.3516  0.5867 -3.8873
 9274TIP3    H249238   1.275   1.668  17.112  0.8329 -0.7432  0.0287
 9275TIP3   OH249239   2.559   4.971  15.908  0.3193 -0.3420  0.1053
 9275TIP3    H149240   2.479   4.918  15.901 -0.5367  1.0826 -1.4632
 9275TIP3    H249241   2.530   5.060  15.885  2.3856  0.1764 -0.5616
 9276TIP3   OH249242   3.622   3.160  12.207 -0.2926  0.3190 -0.7612
 9276TIP3    H149243   3.559   3.231  12.224  0.8739  1.0931  0.4347
 9276TIP3    H249244   3.671   3.190  12.131 -0.4785  0.3232 -0.8799
 9277TIP3   OH249245   1.726   6.313  15.350  0.5966 -0.5037  0.1146
 9277TIP3    H149246   1.680   6.397  15.361  0.7148 -0.5659  1.0900
 9277TIP3    H249247   1.663   6.247  15.379  1.2103 -0.6067  1.2187
 9278TIP3   OH249248   4.656   0.391   6.071 -0.4419  0.9340  0.0536
 9278TIP3    H149249   4.618   0.309   6.103 -1.1398  0.8434 -0.9741
 9278TIP3    H249250   4.703   0.367   5.991 -1.1361  1.6136 -0.5748
 9279TIP3   OH249251   4.254   0.043   2.330 -0.3923  0.2897 -0.2844
 9279TIP3    H149252   4.344   0.059   2.359  0.0894  1.1464 -2.1611
 9279TIP3    H249253   4.247  -0.053   2.325  0.7071  0.2379 -0.9725
 9280TIP3   OH249254   1.335   6.371  11.229  0.0324 -0.2564  0.1979
 9280TIP3    H149255   1.355   6.304  11.294 -0.1017 -0.8087 -0.3259
 9280TIP3    H249256   1.317   6.322  11.149 -2.5137  0.2675  0.4071
 9281TIP3   OH249257   3.474   3.253   2.131 -0.1388  0.2248  0.1184
 9281TIP3    H149258   3.478   3.328   2.190 -3.8074  0.2173  0.5065
 9281TIP3    H249259   3.495   3.178   2.187  0.2838  0.6153  0.4889
 9282TIP3   OH249260   5.456   4.150  14.587 -0.1698 -0.0896  0.0814
 9282TIP3    H149261   5.487   4.217  14.647  1.5269 -0.1010 -0.7692
 9282TIP3    H249262   5.436   4.075  14.643 -2.3487  1.1610  1.0782
 9283TIP3   OH249263   4.940   1.418   0.773 -0.5798  0.2774 -0.2791
 9283TIP3    H149264   4.941   1.386   0.863  0.1816  0.4182 -0.2400
 9283TIP3    H249265   5.019   1.471   0.764 -1.6382  1.8854 -0.4380
 9284TIP3   OH249266   0.803   2.074   6.033 -0.7541  0.2554  0.1378
 9284TIP3    H149267   0.825   2.080   6.126 -0.5130  0.6445  0.0565
 9284TIP3    H249268   0.736   2.006   6.029 -0.4760 -0.0446  0.5446
 9285TIP3   OH249269   3.290   5.720   2.977  0.1590  0.1239  0.2813
 9285TIP3    H149270   3.211   5.685   2.936 -1.0344  0.5681  2.1298
 9285TIP3    H249271   3.359   5.657   2.954 -1.0209 -1.0367 -0.1571
 9286TIP3   OH249272   3.867   0.625  13.679 -0.0871 -0.0823  0.2012
 9286TIP3    H149273   3.788   0.571  13.675 -1.9191  2.5105  0.1852
 9286TIP3    H249274   3.905   0.620  13.591 -1.1063 -0.0854 -0.2404
 9287TIP3   OH249275   3.108   6.214   1.308  0.4686  0.0836  0.3239
 9287TIP3    H149276   3.055   6.134   1.314 -1.4903  1.2768 -0.6136
 9287TIP3    H249277   3.180   6.200   1.370  0.3971 -2.5709 -0.1542
 9288TIP3   OH249278   3.181   6.390   3.529  0.1179  0.1879 -0.5852
 9288TIP3    H149279   3.227   6.334   3.467 -1.3493 -1.1420 -0.4900
 9288TIP3    H249280   3.230   6.381   3.611  0.4839 -0.1431 -0.8421
 9289TIP3   OH249281   3.205   6.378   2.693  0.0987  0.2765 -0.1341
 9289TIP3    H149282   3.269   6.315   2.725 -1.8866 -1.4466  0.5418
 9289TIP3    H249283   3.239   6.463   2.720  2.3476 -0.5540 -0.2503
 9290TIP3   OH249284   4.516   5.220   1.921 -0.6024  0.1580 -0.4074
 9290TIP3    H149285   4.452   5.199   1.852  0.8324 -0.1632 -1.6569
 9290TIP3    H249286   4.553   5.136   1.945  0.3566  0.5039 -0.6744
 9291TIP3   OH249287   6.693   3.665  16.686  0.2702 -0.1905  0.8292
 9291TIP3    H149288   6.706   3.718  16.765  0.4583  1.8963 -0.5457
 9291TIP3    H249289   6.621   3.708  16.640 -0.3059 -1.7991  0.1921
 9292TIP3   OH249290   4.300   5.243   1.105  0.0252 -0.4569 -0.3798
 9292TIP3    H149291   4.325   5.315   1.047 -1.5344  0.9823  0.6648
 9292TIP3    H249292   4.307   5.280   1.193 -0.4027 -1.7213  0.1948
 9293TIP3   OH249293   2.034   3.261   3.974 -0.4627 -0.5932  0.4108
 9293TIP3    H149294   1.961   3.258   3.913  1.1910  2.1587 -1.8865
 9293TIP3    H249295   2.006   3.322   4.043 -0.0243  1.2823 -1.0169
 9294TIP3   OH249296   2.075   2.894  12.302 -0.0532 -0.1901 -0.0298
 9294TIP3    H149297   2.168   2.911  12.289  0.2459 -0.9936  0.9897
 9294TIP3    H249298   2.035   2.918  12.219  1.0604  0.1907 -0.4702
 9295TIP3   OH249299   4.089   5.937   5.789 -0.5145  0.0395 -0.0403
 9295TIP3    H149300   4.117   5.847   5.806  0.2456  0.1484 -0.6799
 9295TIP3    H249301   4.010   5.948   5.841 -0.2351 -0.7877  0.5684
 9296TIP3   OH249302   3.057   1.031   3.691  0.3988  0.2360 -0.5556
 9296TIP3    H149303   3.062   1.056   3.783  0.3589 -0.4398 -0.3639
 9296TIP3    H249304   2.972   0.988   3.682 -0.0190  1.1688 -1.1338
 9297TIP3   OH249305   0.582   5.569   0.183  0.0718 -0.0267 -0.1772
 9297TIP3    H149306   0.670   5.569   0.146 -0.1131 -1.4950 -0.6910
 9297TIP3    H249307   0.592   5.531   0.270  0.0472  0.3989  0.0086
 9298TIP3   OH249308   1.695   6.267  11.904  0.0942  0.3002 -0.3866
 9298TIP3    H149309   1.759   6.254  11.834  2.5362 -0.5604  1.9147
 9298TIP3    H249310   1.642   6.341  11.874  1.5969  0.4697 -2.7717
 9299TIP3   OH249311   2.799   0.588  14.196 -0.6320  0.3468  0.1076
 9299TIP3    H149312   2.748   0.607  14.116 -1.4004  1.9178  0.9427
 9299TIP3    H249313   2.738   0.606  14.267  0.6816  0.8846  1.1023
 9300TIP3   OH249314   0.856   4.948  15.243 -0.4226  0.0875  0.1680
 9300TIP3    H149315   0.943   4.976  15.273 -0.6730  2.0419 -0.8740
 9300TIP3    H249316   0.799   4.961  15.319  0.0936 -0.7199  0.6992
 9301TIP3   OH249317   3.712   4.340   1.394 -0.1672 -0.0149  0.4246
 9301TIP3    H149318   3.651   4.344   1.320  0.3175  0.8519  0.0676
 9301TIP3    H249319   3.698   4.253   1.432 -0.4552 -0.4381 -0.6449
 9302TIP3   OH249320   0.289   5.546   2.562  0.0431  0.3647  0.2480
 9302TIP3    H149321   0.352   5.617   2.577 -0.5952  0.8908  0.4576
 9302TIP3    H249322   0.320   5.504   2.482 -0.0801  1.4438 -0.3794
 9303TIP3   OH249323   2.052   3.257   2.002 -0.5751  0.7434  0.2290
 9303TIP3    H149324   2.118   3.202   2.044 -0.5785  0.3356 -0.2940
 9303TIP3    H249325   2.060   3.341   2.046 -0.8113  0.2269  1.2834
 9304TIP3   OH249326   4.904   5.815  11.556  0.1827 -0.4377  0.1264
 9304TIP3    H149327   4.877   5.869  11.483 -0.8025 -0.9054  0.1352
 9304TIP3    H249328   4.858   5.851  11.632 -1.1111 -1.7754 -0.0113
 9305TIP3   OH249329   6.713   2.621   4.436 -0.3237  0.8004 -0.2780
 9305TIP3    H149330   6.768   2.641   4.360  0.0104 -1.1675 -0.5744
 9305TIP3    H249331   6.623   2.629   4.403 -0.1782 -0.3269 -0.9727
 9306TIP3   OH249332   3.496   0.460   6.179 -0.7325  0.4323  0.2709
 9306TIP3    H149333   3.554   0.485   6.251  0.0486  0.5156 -0.3706
 9306TIP3    H249334   3.441   0.538   6.164 -0.9014  0.4096  0.7811
 9307TIP3   OH249335   2.372   1.757  14.393  0.5616  0.0295 -0.1541
 9307TIP3    H149336   2.406   1.701  14.324  0.6171 -0.0023 -0.1027
 9307TIP3    H249337   2.347   1.838  14.349 -0.3336 -0.3593 -0.3654
 9308TIP3   OH249338   4.884   4.343  12.271  0.0947 -0.4015  0.4110
 9308TIP3    H149339   4.858   4.255  12.298  0.9459 -0.5494  0.7547
 9308TIP3    H249340   4.945   4.330  12.198 -0.5224 -0.0641 -0.1723
 9309TIP3   OH249341   1.149   4.223   6.243  0.1688 -0.6481 -0.1679
 9309TIP3    H149342   1.104   4.165   6.305 -1.1290 -0.8408 -1.2794
 9309TIP3    H249343   1.211   4.271   6.297 -2.3648  0.6588  1.6680
 9310TIP3   OH249344   2.453   5.958  12.191 -0.0545 -0.4158  0.8004
 9310TIP3    H149345   2.478   5.871  12.161  0.5502 -0.8903  2.5826
 9310TIP3    H249346   2.360   5.948  12.215 -1.0215  0.3957 -2.3616
 9311TIP3   OH249347   4.286   1.523   3.366  0.4941 -0.3823 -0.4715
 9311TIP3    H149348   4.276   1.531   3.272  2.6814  1.0823 -0.6207
 9311TIP3    H249349   4.202   1.552   3.402  0.0002  0.0360 -1.9182
 9312TIP3   OH249350   0.925   5.799   6.286  0.5178  0.2245 -0.1320
 9312TIP3    H149351   0.953   5.710   6.308 -0.3816 -0.2707 -0.9486
 9312TIP3    H249352   0.917   5.843   6.370 -0.1559 -0.8087  0.3577
 9313TIP3   OH249353   0.876   0.209   0.571  0.4057  0.5812  0.3033
 9313TIP3    H149354   0.835   0.124   0.591  0.4861  0.8476  1.6692
 9313TIP3    H249355   0.804   0.265   0.545  0.3086  0.1776 -0.3057
 9314TIP3   OH249356   2.041   3.037   4.802  0.0048 -0.1843 -0.4676
 9314TIP3    H149357   2.082   3.088   4.732 -0.6468 -1.5391 -1.8865
 9314TIP3    H249358   2.107   3.031   4.870  1.0708  0.2002 -1.4524
 9315TIP3   OH249359   1.792   5.473   3.448  0.6489 -0.0846  0.3533
 9315TIP3    H149360   1.867   5.415   3.462  0.3159 -0.9851 -1.5221
 9315TIP3    H249361   1.730   5.448   3.517  1.3593 -0.4943  0.8568
 9316TIP3   OH249362   5.397   5.133  14.537  0.3444 -0.6123  0.3759
 9316TIP3    H149363   5.470   5.174  14.584  0.1720 -0.6703  0.7004
 9316TIP3    H249364   5.362   5.070  14.600  0.6667 -1.3247 -0.1499
 9317TIP3   OH249365   1.102   4.209  12.345  0.5130 -0.2974  0.3434
 9317TIP3    H149366   1.119   4.227  12.437  0.6885 -1.0332  0.4608
 9317TIP3    H249367   1.146   4.279  12.297 -0.2866  0.5715  0.8486
 9318TIP3   OH249368   2.024   1.484  11.747 -0.3512  0.1885  0.4820
 9318TIP3    H149369   2.115   1.480  11.776 -0.4013  1.8616  0.8976
 9318TIP3    H249370   1.989   1.565  11.785 -1.5053  0.4644 -1.0973
 9319TIP3   OH249371   4.506   4.845   4.438 -0.8436 -0.1133 -0.0182
 9319TIP3    H149372   4.592   4.808   4.421 -0.6506  0.2790  0.1068
 9319TIP3    H249373   4.449   4.769   4.447 -0.4072 -0.3900  0.4423
 9320TIP3   OH249374   1.710   5.753  13.796 -0.5217 -0.3352  0.2705
 9320TIP3    H149375   1.618   5.735  13.813 -0.5488  0.0847  0.5796
 9320TIP3    H249376   1.710   5.817  13.725 -0.5572  1.6752  2.0316
 9321TIP3   OH249377   2.473   2.012  17.124 -0.2536 -0.6117  0.2535
 9321TIP3    H149378   2.511   1.933  17.163  1.8311 -0.1853 -0.8174
 9321TIP3    H249379   2.428   1.981  17.046  0.4126 -0.7676 -0.0703
 9322TIP3   OH249380   6.562   2.339  14.800  0.6278  0.4837 -0.6221
 9322TIP3    H149381   6.631   2.403  14.814  0.3597  0.6945 -0.2402
 9322TIP3    H249382   6.603   2.255  14.815  0.5660  0.6571  0.5920
 9323TIP3   OH249383   0.061   0.807  16.732  0.7210  0.2039 -0.2550
 9323TIP3    H149384  -0.007   0.767  16.678 -1.5319  1.9453  1.1714
 9323TIP3    H249385   0.134   0.744  16.730 -0.8702 -1.6641 -1.8980
 9324TIP3   OH249386   2.334   5.212   5.802 -0.5818 -0.1334 -0.0926
 9324TIP3    H149387   2.354   5.222   5.709 -0.8074 -1.9673 -0.3600
 9324TIP3    H249388   2.256   5.265   5.816  0.3317  1.3681 -0.6035
 9325TIP3   OH249389   0.546   2.608   2.393  0.1087  0.2671  0.0014
 9325TIP3    H149390   0.567   2.576   2.481  0.2644  1.0140  0.2362
 9325TIP3    H249391   0.629   2.602   2.345  0.0772  0.0747 -0.0295
 9326TIP3   OH249392   6.127   4.756   0.499  0.2261 -0.3957  0.0876
 9326TIP3    H149393   6.035   4.733   0.483  0.4459 -0.9666 -0.3793
 9326TIP3    H249394   6.123   4.829   0.561 -0.5486 -0.3075 -0.0576
 9327TIP3   OH249395   5.301   5.672   3.428  0.2446 -0.4482  0.2904
 9327TIP3    H149396   5.289   5.733   3.356 -1.3528 -0.4191  0.5623
 9327TIP3    H249397   5.377   5.620   3.403  0.5674  0.5025 -0.7413
 9328TIP3   OH249398   0.059   0.873   2.479 -0.4509  0.1740  0.4044
 9328TIP3    H149399   0.120   0.798   2.479  0.0115  0.5398  1.0362
 9328TIP3    H249400  -0.002   0.855   2.408  1.5142  0.7143 -1.4618
 9329TIP3   OH249401   3.920   3.042   4.462 -0.3446 -0.1303  0.4685
 9329TIP3    H149402   3.838   3.045   4.414 -0.9941 -0.0799  1.5785
 9329TIP3    H249403   3.988   3.043   4.394 -1.2545 -0.1978 -0.4436
 9330TIP3   OH249404   5.577   5.243  11.232  0.3689 -0.2689 -0.5683
 9330TIP3    H149405   5.514   5.274  11.297  0.9076 -0.0795 -0.1270
 9330TIP3    H249406   5.556   5.292  11.153 -1.9871 -2.3921 -1.3164
 9331TIP3   OH249407   2.294   3.495  16.682  0.3553  0.6121  0.0068
 9331TIP3    H149408   2.282   3.456  16.769  0.3413  0.9496  0.1565
 9331TIP3    H249409   2.230   3.566  16.679 -0.2427  0.0588 -0.6012
 9332TIP3   OH249410   6.056   1.307  14.560 -0.1335  0.2883  0.4475
 9332TIP3    H149411   6.110   1.328  14.636 -0.1510  1.0450  0.2538
 9332TIP3    H249412   6.071   1.378  14.498 -1.4239  0.5745  0.4355
 9333TIP3   OH249413   0.767   0.323  12.303  0.1546  0.0838  0.5826
 9333TIP3    H149414   0.803   0.244  12.264  0.4236 -0.3303  1.6672
 9333TIP3    H249415   0.674   0.322  12.277  0.3170 -0.2147  0.0095
 9334TIP3   OH249416   3.518   5.644   3.387 -0.0619  0.0397  1.0135
 9334TIP3    H149417   3.479   5.704   3.324 -1.9276 -1.2142  0.9047
 9334TIP3    H249418   3.476   5.665   3.470 -0.3579 -0.7524  1.0742
 9335TIP3   OH249419   2.938   4.638   5.956  0.0631 -0.3082  0.4340
 9335TIP3    H149420   2.911   4.729   5.949  1.4738  0.1068  0.0907
 9335TIP3    H249421   2.911   4.611   6.044 -2.7104 -0.3795 -0.4196
 9336TIP3   OH249422   5.710   6.682   0.209 -0.4500  0.2700  0.3016
 9336TIP3    H149423   5.802   6.669   0.233 -0.7266  0.1443  1.3007
 9336TIP3    H249424   5.691   6.772   0.233 -0.9826 -0.1283  1.4139
 9337TIP3   OH249425   4.016   3.847  17.084  0.4975 -0.2144  0.0725
 9337TIP3    H149426   3.953   3.918  17.099  0.1198 -0.8802  1.6812
 9337TIP3    H249427   4.085   3.861  17.148  1.0617 -0.5802 -0.4460
 9338TIP3   OH249428   2.003   1.482  12.833 -0.0121  0.9102  0.2790
 9338TIP3    H149429   1.977   1.469  12.741 -0.3423  0.5372  0.4244
 9338TIP3    H249430   1.920   1.495  12.879  0.2395  2.3965  0.3165
 9339TIP3   OH249431   5.669   6.671   1.342  0.5599  0.3164 -0.0154
 9339TIP3    H149432   5.721   6.742   1.305  1.6410 -0.8980 -0.8910
 9339TIP3    H249433   5.706   6.657   1.429  0.1196  1.0298  0.2954
 9340TIP3   OH249434   3.802   3.190  12.007  0.2755 -0.2952  0.2541
 9340TIP3    H149435   3.758   3.170  11.924 -0.6240  3.4073 -0.2461
 9340TIP3    H249436   3.892   3.211  11.981  0.5880 -1.3068  0.4988
 9341TIP3   OH249437   4.743   1.495   3.670 -0.3133  0.6346  0.1467
 9341TIP3    H149438   4.755   1.472   3.577 -0.7934  1.6562 -0.1689
 9341TIP3    H249439   4.651   1.520   3.677 -0.7183 -1.0526  1.2602
 9342TIP3   OH249440   1.348   4.963  15.549  0.1974 -0.4503 -0.2616
 9342TIP3    H149441   1.299   4.955  15.631  1.1892 -2.6289  0.1679
 9342TIP3    H249442   1.428   5.010  15.572 -0.2568  0.3673 -0.3297
 9343TIP3   OH249443   2.053   1.360  14.438  0.6349  0.3557 -0.1270
 9343TIP3    H149444   2.064   1.306  14.517 -1.3769 -0.7178 -0.5435
 9343TIP3    H249445   2.111   1.434  14.452  0.5800  0.0046  2.2213
 9344TIP3   OH249446   1.687   5.756   2.507  0.0590 -0.1553 -0.0691
 9344TIP3    H149447   1.757   5.787   2.563  1.3812  0.9217 -2.2372
 9344TIP3    H249448   1.607   5.777   2.555  1.0090  4.0847 -0.1698
 9345TIP3   OH249449   3.809   0.952   4.610 -0.4442  0.0107 -0.0524
 9345TIP3    H149450   3.878   0.899   4.650 -1.1629 -0.8847  0.0186
 9345TIP3    H249451   3.802   0.918   4.521 -0.9447 -0.0542  0.0106
 9346TIP3   OH249452   4.928   4.053   0.436  0.4262 -0.0420  0.2645
 9346TIP3    H149453   4.852   3.999   0.454  1.6253 -1.6864  0.5029
 9346TIP3    H249454   4.964   4.074   0.523 -0.5781  1.9790  0.2251
 9347TIP3   OH249455   0.463   2.927  12.147 -0.0709 -0.4346  0.6542
 9347TIP3    H149456   0.472   3.001  12.087  1.3467 -0.9439  0.2256
 9347TIP3    H249457   0.369   2.921  12.164 -0.1531  1.8536  1.1925
 9348TIP3   OH249458   3.370   2.865  14.333  0.0515  0.2723  0.5352
 9348TIP3    H149459   3.429   2.851  14.407 -0.7110  0.2223  1.1569
 9348TIP3    H249460   3.284   2.878  14.375 -0.7618 -1.8300 -0.4372
 9349TIP3   OH249461   4.418   5.404   5.606  0.4541  0.4446  0.3684
 9349TIP3    H149462   4.416   5.484   5.555 -0.9468 -0.5331 -1.1284
 9349TIP3    H249463   4.464   5.341   5.551  0.0299 -0.2804  0.8376
 9350TIP3   OH249464   0.852   4.497  13.647  0.2203  0.0554 -0.0220
 9350TIP3    H149465   0.819   4.586  13.656  1.0391  0.4958 -1.2351
 9350TIP3    H249466   0.881   4.473  13.735  2.6567  2.0612 -0.2112
 9351TIP3   OH249467   6.126   1.259  10.590  0.5359 -0.2410  0.6581
 9351TIP3    H149468   6.144   1.216  10.673 -0.2763 -0.6971  0.6089
 9351TIP3    H249469   6.157   1.198  10.524  0.5091 -0.2067  0.6138
 9352TIP3   OH249470   0.266   3.937   3.494 -0.6680 -0.2395 -0.1483
 9352TIP3    H149471   0.207   3.959   3.422 -0.8085 -1.0466 -0.2849
 9352TIP3    H249472   0.278   3.842   3.487 -0.2376 -0.2394  0.5517
 9353TIP3   OH249473   1.373   1.136  16.515  0.0874 -0.1348  0.3709
 9353TIP3    H149474   1.329   1.209  16.471  0.4394  0.2366  0.6293
 9353TIP3    H249475   1.462   1.137  16.480  0.1127 -0.4056  0.4255
 9354TIP3   OH249476   1.392   3.020  11.275  0.1567  0.5513  0.2461
 9354TIP3    H149477   1.345   2.936  11.275 -1.2431  1.3191  0.4948
 9354TIP3    H249478   1.435   3.023  11.361 -0.6070  0.5283  0.6369
 9355TIP3   OH249479   4.996   6.507   1.394  0.4351 -0.2472  0.0265
 9355TIP3    H149480   5.010   6.571   1.323  0.5873 -0.1990  0.1013
 9355TIP3    H249481   4.961   6.560   1.466 -0.7441 -0.4597 -0.3654
 9356TIP3   OH249482   6.774   5.469  10.787 -0.5321  0.4563 -0.8735
 9356TIP3    H149483   6.780   5.374  10.788  0.7752  0.5222 -0.6347
 9356TIP3    H249484   6.859   5.498  10.753  1.1063  1.6238  3.7930
 9357TIP3   OH249485   6.506   4.745  14.132 -0.4742 -0.2447  0.5873
 9357TIP3    H149486   6.473   4.655  14.129 -0.7615 -0.1946  1.7195
 9357TIP3    H249487   6.558   4.755  14.053 -1.4980 -0.9957 -0.1875
 9358TIP3   OH249488   5.130   6.065   3.359 -0.1823  0.5433  0.2759
 9358TIP3    H149489   5.058   6.004   3.343  0.2884 -0.3622  1.5701
 9358TIP3    H249490   5.091   6.151   3.347 -1.3163  0.0403  0.2674
 9359TIP3   OH249491   5.987   2.102  13.388  0.2278  0.3241 -0.4498
 9359TIP3    H149492   6.070   2.107  13.340  0.8939  1.9421  0.8327
 9359TIP3    H249493   5.962   2.193  13.402 -0.7765 -0.1400  0.8511
 9360TIP3   OH249494   4.889   2.866  13.867  0.3429  0.0376 -0.6470
 9360TIP3    H149495   4.882   2.925  13.942 -0.4995  0.1129 -0.7743
 9360TIP3    H249496   4.921   2.921  13.795  1.5789 -0.1348 -0.2335
 9361TIP3   OH249497   3.797   0.703  13.185 -0.0854 -0.0089  0.0301
 9361TIP3    H149498   3.739   0.745  13.121  0.9204  1.3234 -0.0201
 9361TIP3    H249499   3.743   0.635  13.225 -1.3438  0.4860 -0.7970
 9362TIP3   OH249500   0.245   6.337   5.181 -0.5891 -0.6560 -0.0981
 9362TIP3    H149501   0.283   6.349   5.094 -0.4416 -0.2161  0.0240
 9362TIP3    H249502   0.270   6.248   5.206 -1.5539 -1.1707 -0.9548
 9363TIP3   OH249503   1.126   1.868   6.491 -0.3770 -0.2664  0.3553
 9363TIP3    H149504   1.147   1.958   6.467  1.2006 -0.2885  1.5659
 9363TIP3    H249505   1.032   1.869   6.507 -0.0299  1.7087  2.5452
 9364TIP3   OH249506   2.806   0.599  11.630  0.1311 -0.4965  0.0407
 9364TIP3    H149507   2.882   0.569  11.680  1.4943  1.4564 -0.8201
 9364TIP3    H249508   2.832   0.589  11.538 -2.1179 -3.4470 -0.3500
 9365TIP3   OH249509   4.115   6.218  16.475  0.1387 -0.1303 -0.1502
 9365TIP3    H149510   4.140   6.261  16.393 -0.6106  1.8994  0.6602
 9365TIP3    H249511   4.026   6.248  16.492 -0.2937 -1.7701  0.6231
 9366TIP3   OH249512   6.293   2.582  12.066 -0.3837  0.0581 -0.4968
 9366TIP3    H149513   6.343   2.551  11.991  0.2243  1.2912 -0.6197
 9366TIP3    H249514   6.202   2.584  12.035 -0.2150 -0.0156 -1.0037
 9367TIP3   OH249515   5.098   2.428   2.991 -0.1646  0.0637 -0.7177
 9367TIP3    H149516   5.077   2.430   2.897 -0.4336  1.4517 -0.6361
 9367TIP3    H249517   5.047   2.499   3.029  1.4666  0.7827  0.1695
 9368TIP3   OH249518   0.460   6.290   1.926 -0.5259  0.3786  0.1382
 9368TIP3    H149519   0.403   6.347   1.873 -1.2007  1.4089  1.9530
 9368TIP3    H249520   0.548   6.323   1.909 -0.3065 -1.6646 -3.2453
 9369TIP3   OH249521   2.479   5.521  15.682  0.6480  0.0547  0.2067
 9369TIP3    H149522   2.454   5.578  15.755  0.3008 -3.4766  3.0029
 9369TIP3    H249523   2.574   5.515  15.687  0.5596 -0.9261  1.0354
 9370TIP3   OH249524   4.295   3.547  12.184 -0.8994 -0.1022 -0.2441
 9370TIP3    H149525   4.294   3.643  12.190 -1.6911 -0.1122 -0.1606
 9370TIP3    H249526   4.312   3.529  12.092 -0.3349  0.1145 -0.1859
 9371TIP3   OH249527   1.099   4.902   3.130 -0.2192 -0.2285  0.0165
 9371TIP3    H149528   1.162   4.974   3.142 -1.4342  0.5461  2.0886
 9371TIP3    H249529   1.027   4.942   3.081  0.9810 -1.1752 -2.5558
 9372TIP3   OH249530   5.647   5.809  12.749  0.4503  0.1550 -0.4486
 9372TIP3    H149531   5.742   5.808  12.766  0.1174  0.4731  1.6549
 9372TIP3    H249532   5.608   5.824  12.836 -1.5962 -1.7934 -1.0043
 9373TIP3   OH249533   1.012   6.561   1.397 -0.1924 -0.2399 -0.6517
 9373TIP3    H149534   1.083   6.500   1.417 -1.7585 -1.8033  0.3718
 9373TIP3    H249535   1.010   6.621   1.472 -1.7472 -1.9657  0.7503
 9374TIP3   OH249536   3.052   2.977  13.665  0.4424  0.2208 -0.1835
 9374TIP3    H149537   2.957   2.989  13.669  0.5117  0.7845 -0.2208
 9374TIP3    H249538   3.088   3.063  13.683  0.9621 -0.1345  0.4920
 9375TIP3   OH249539   4.220   3.440  14.492  0.8464  0.3389  0.0694
 9375TIP3    H149540   4.263   3.429  14.577 -0.8329  1.2659  1.0722
 9375TIP3    H249541   4.291   3.438  14.428  2.2942  1.1123  1.6327
 9376TIP3   OH249542   0.047   0.476  12.735 -0.0571  0.0383  0.2278
 9376TIP3    H149543   0.015   0.543  12.796 -1.7310  0.1051 -0.7082
 9376TIP3    H249544  -0.018   0.475  12.665  2.5639  0.9588 -2.2848
 9377TIP3   OH249545   5.695   6.323   1.532  0.2232 -0.1067 -0.3450
 9377TIP3    H149546   5.696   6.268   1.610  0.7144 -1.0298 -0.9962
 9377TIP3    H249547   5.780   6.366   1.532 -0.0902  0.5231  0.0644
 9378TIP3   OH249548   1.219   1.624  16.950 -0.0064 -0.0484 -0.2716
 9378TIP3    H149549   1.204   1.540  16.905 -0.5768 -0.4601  0.6693
 9378TIP3    H249550   1.142   1.676  16.929  0.5969  0.4453 -1.2949
 9379TIP3   OH249551   2.420   3.056   4.676  0.0667  0.5580  0.1162
 9379TIP3    H149552   2.400   3.004   4.754  0.1857  1.4113  0.7300
 9379TIP3    H249553   2.438   2.992   4.608  0.4836 -0.2038  0.9292
 9380TIP3   OH249554   1.783   4.848   6.706 -0.8981 -0.6179  0.0526
 9380TIP3    H149555   1.806   4.892   6.624 -0.7054 -0.0701  0.3990
 9380TIP3    H249556   1.769   4.757   6.681  0.8048 -0.7913 -0.2999
 9381TIP3   OH249557   2.660   4.626  17.011  0.1786 -0.5538  0.2224
 9381TIP3    H149558   2.655   4.621  16.915 -1.6147  1.1343  0.1957
 9381TIP3    H249559   2.751   4.604  17.031  1.4532  2.2052 -2.1266
 9382TIP3   OH249560   1.511   5.509  11.984 -0.2583 -0.0477  0.6947
 9382TIP3    H149561   1.598   5.481  12.012  0.2437 -0.2293 -1.0078
 9382TIP3    H249562   1.524   5.547  11.897 -1.7393  0.7279  0.7860
 9383TIP3   OH249563   1.248   1.152   2.895 -0.4718  0.2811  0.1624
 9383TIP3    H149564   1.342   1.161   2.909 -0.8850  2.1435  2.0613
 9383TIP3    H249565   1.228   1.214   2.825 -0.6045  1.5781  1.3186
 9384TIP3   OH249566   3.015   6.674  16.627  0.8428  0.1037  0.2386
 9384TIP3    H149567   2.929   6.698  16.663  1.3677  1.6085  0.5078
 9384TIP3    H249568   3.005   6.583  16.601 -1.2040  0.5821 -0.7577
 9385TIP3   OH249569   1.450   2.608  11.280 -0.2738  0.0546 -0.3491
 9385TIP3    H149570   1.408   2.624  11.196 -0.4864 -0.2640 -0.3045
 9385TIP3    H249571   1.515   2.540  11.262  0.3000  0.6150 -0.4411
 9386TIP3   OH249572   5.654   6.552  13.108 -0.7188 -0.2385 -0.2113
 9386TIP3    H149573   5.588   6.549  13.178 -0.3443  0.3779  0.1722
 9386TIP3    H249574   5.634   6.631  13.059 -0.3547 -0.1294 -0.1874
 9387TIP3   OH249575   0.357   4.267  10.525  0.3079  0.0560  0.6600
 9387TIP3    H149576   0.284   4.297  10.470  0.9022 -1.4756 -1.0167
 9387TIP3    H249577   0.366   4.174  10.504  3.5481  0.5004 -0.0787
 9388TIP3   OH249578   3.753   0.225  11.606 -0.0701 -0.3601  0.5979
 9388TIP3    H149579   3.691   0.254  11.673 -1.2314  1.5814 -1.2477
 9388TIP3    H249580   3.839   0.252  11.639 -0.6738  0.9488  1.1210
 9389TIP3   OH249581   2.524   3.031  15.938  0.4444 -0.2112  0.4783
 9389TIP3    H149582   2.466   3.072  16.002  0.6676 -0.9678  1.1742
 9389TIP3    H249583   2.609   3.074  15.951  1.2265 -2.2796  2.6305
 9390TIP3   OH249584   1.999   0.182  16.129  0.2011 -0.6518 -0.1803
 9390TIP3    H149585   1.987   0.219  16.217  0.1709 -1.2788  0.0815
 9390TIP3    H249586   2.078   0.226  16.096 -0.6559  0.7075 -0.4403
 9391TIP3   OH249587   0.414   5.161   5.489 -0.2103 -0.4571  0.0184
 9391TIP3    H149588   0.488   5.213   5.519  2.3115 -2.6744 -2.0691
 9391TIP3    H249589   0.400   5.097   5.558 -0.0602 -0.1729  0.3162
 9392TIP3   OH249590   6.562   3.573   5.242 -0.1577 -0.0259  0.5128
 9392TIP3    H149591   6.545   3.479   5.237 -0.5280  0.0489  0.3032
 9392TIP3    H249592   6.486   3.608   5.287 -2.1386  0.7208 -3.1671
 9393TIP3   OH249593   1.314   0.931   4.329 -0.2401  0.4114 -0.4522
 9393TIP3    H149594   1.375   0.954   4.399 -1.0883  1.7797 -0.1487
 9393TIP3    H249595   1.335   0.991   4.258 -1.0745  0.7402 -0.4297
 9394TIP3   OH249596   6.156   2.045  12.818  0.2623 -0.0732  0.8946
 9394TIP3    H149597   6.228   2.008  12.768 -0.3321 -0.5479  0.3921
 9394TIP3    H249598   6.120   2.113  12.762  1.0624  0.9689  1.6287
 9395TIP3   OH249599   5.740   2.628   4.487  0.3506  0.2113  0.0798
 9395TIP3    H149600   5.678   2.556   4.475 -1.2517  1.4291  0.8685
 9395TIP3    H249601   5.744   2.640   4.582  2.4793 -0.4018  0.0986
 9396TIP3   OH249602   0.261   4.086   1.410 -0.2251 -0.2051 -0.1131
 9396TIP3    H149603   0.297   4.150   1.471 -0.1527  1.1161 -1.5005
 9396TIP3    H249604   0.219   4.139   1.342 -2.4131 -1.6803  0.0461
 9397TIP3   OH249605   6.165   3.917   1.532  0.0303  0.0937 -0.0702
 9397TIP3    H149606   6.171   3.834   1.484  0.1758  1.4572 -2.4401
 9397TIP3    H249607   6.233   3.910   1.599  1.7536 -0.6830 -1.8572
 9398TIP3   OH249608   3.326   0.747   5.017 -0.0791 -0.1585  0.7189
 9398TIP3    H149609   3.244   0.790   4.994  0.7875  1.0318 -0.1824
 9398TIP3    H249610   3.353   0.788   5.099  1.1187  1.5754 -0.5126
 9399TIP3   OH249611   3.464   2.292   4.392  0.1549  0.1937 -0.0779
 9399TIP3    H149612   3.412   2.213   4.381 -1.0451  0.7368  1.5371
 9399TIP3    H249613   3.477   2.325   4.303 -2.1275 -0.0425 -0.5045
 9400TIP3   OH249614   4.066   5.749  12.467 -0.1111  0.1450  0.2600
 9400TIP3    H149615   3.999   5.692  12.431 -1.0148  1.6332 -0.4436
 9400TIP3    H249616   4.104   5.793  12.391 -0.3907  1.5231  0.9015
 9401TIP3   OH249617   3.326   4.568   0.565 -0.3658 -0.1358 -0.3914
 9401TIP3    H149618   3.362   4.608   0.643 -0.2030  1.7122 -1.3891
 9401TIP3    H249619   3.331   4.474   0.582 -0.9356  0.2466  2.0585
 9402TIP3   OH249620   1.189   1.513   2.431  0.6925  0.2630 -0.0936
 9402TIP3    H149621   1.260   1.534   2.492  0.6747 -1.5602  0.5713
 9402TIP3    H249622   1.228   1.456   2.366  0.3331  0.9773 -0.9528
 9403TIP3   OH249623   3.258   2.075   3.182  0.5885 -0.3676 -0.1653
 9403TIP3    H149624   3.227   2.136   3.115  0.8891  1.6023  1.4321
 9403TIP3    H249625   3.352   2.094   3.190  0.7390 -1.2228  0.1583
 9404TIP3   OH249626   1.056   0.081   5.154 -0.2302 -0.2506  0.7361
 9404TIP3    H149627   0.967   0.089   5.120 -1.1168 -2.5884  2.3440
 9404TIP3    H249628   1.049   0.106   5.246  0.6082 -1.2469  1.0794
 9405TIP3   OH249629   2.607   2.512   4.146 -0.1533  0.1809 -0.0654
 9405TIP3    H149630   2.645   2.429   4.173  0.0334  0.9316  2.0699
 9405TIP3    H249631   2.667   2.578   4.178  0.4363  1.1390 -2.9780
 9406TIP3   OH249632   6.066   1.546  10.782  0.1738 -0.6585 -0.0553
 9406TIP3    H149633   6.140   1.486  10.769  0.3597 -0.6284  0.7775
 9406TIP3    H249634   6.039   1.570  10.694  1.4392 -0.3300 -0.3713
 9407TIP3   OH249635   5.644   3.195   2.935 -0.3211  0.1765 -0.2530
 9407TIP3    H149636   5.564   3.244   2.916 -0.8434 -1.1097 -1.4596
 9407TIP3    H249637   5.619   3.131   3.002 -0.4977 -0.7047 -1.1474
 9408TIP3   OH249638   3.687   4.786  16.580 -0.0348  0.2259  0.4939
 9408TIP3    H149639   3.742   4.712  16.606 -0.8813 -0.7393 -0.4151
 9408TIP3    H249640   3.687   4.844  16.657  0.4801 -0.8034  1.2878
 9409TIP3   OH249641   1.620   0.331  16.084 -0.2532  0.5798  0.4555
 9409TIP3    H149642   1.692   0.380  16.044  0.4975 -0.8152  0.0899
 9409TIP3    H249643   1.636   0.337  16.178  0.0415  0.7270  0.3979
 9410TIP3   OH249644   1.303   5.989   5.339 -0.0310  0.1831 -0.1764
 9410TIP3    H149645   1.374   6.045   5.307  0.3329  0.0319  0.3604
 9410TIP3    H249646   1.336   5.900   5.331 -0.1587  0.1116  0.0708
 9411TIP3   OH249647   1.590   4.857   3.965 -0.2199  0.1747 -0.4494
 9411TIP3    H149648   1.659   4.798   3.994 -0.6382  0.4951  1.2598
 9411TIP3    H249649   1.582   4.840   3.871  0.6590 -1.4378 -0.2563
 9412TIP3   OH249650   5.564   3.988  14.387  0.5210 -0.4906  0.0904
 9412TIP3    H149651   5.536   4.024  14.303  0.9832 -1.8130 -0.6380
 9412TIP3    H249652   5.536   4.053  14.451  0.1506  0.5206 -1.0811
 9413TIP3   OH249653   6.124   3.306   3.710  0.5342 -0.2974  0.0057
 9413TIP3    H149654   6.202   3.309   3.766  0.1773 -0.7949  0.5404
 9413TIP3    H249655   6.093   3.215   3.718 -1.4716  0.4900  1.7046
 9414TIP3   OH249656   5.017   2.364   3.878 -0.4027 -0.4443  0.3677
 9414TIP3    H149657   5.020   2.391   3.970  0.6142  2.2082 -0.4103
 9414TIP3    H249658   5.108   2.343   3.857 -0.4996 -0.1769 -0.2983
 9415TIP3   OH249659   3.998   0.382   3.573  0.0161  0.0451 -0.4824
 9415TIP3    H149660   4.068   0.446   3.566  0.5812 -0.5038  0.0186
 9415TIP3    H249661   3.989   0.367   3.667  0.8422 -1.6320 -0.6573
 9416TIP3   OH249662   2.287   0.785  10.744  0.1332  0.3137  0.2713
 9416TIP3    H149663   2.376   0.814  10.724 -0.0061  1.4655  1.2661
 9416TIP3    H249664   2.281   0.790  10.839 -1.3143  1.2584  0.1549
 9417TIP3   OH249665   6.729   2.618   3.526  0.1718  0.4820 -0.2508
 9417TIP3    H149666   6.711   2.524   3.518 -1.8745  0.4421  3.7278
 9417TIP3    H249667   6.821   2.622   3.551  0.1520 -0.5021  0.0309
 9418TIP3   OH249668   2.300   4.711   2.171 -0.4420  0.1252  0.0355
 9418TIP3    H149669   2.232   4.663   2.217 -0.5045  1.2590  1.1581
 9418TIP3    H249670   2.253   4.760   2.103 -0.6585  0.3264  0.3290
 9419TIP3   OH249671   0.365   2.460  10.985  0.1809  0.3697  0.0384
 9419TIP3    H149672   0.450   2.417  10.981  0.6044  1.0784  1.2550
 9419TIP3    H249673   0.310   2.400  11.036  0.1593  0.2498 -0.1262
 9420TIP3   OH249674   2.456   5.173   0.049  0.1713 -0.0172  0.1009
 9420TIP3    H149675   2.498   5.110  -0.009  0.3226  2.1218 -2.1872
 9420TIP3    H249676   2.392   5.122   0.098 -0.3084 -1.8148 -2.3262
 9421TIP3   OH249677   1.881   2.425   0.381  0.1242  0.1218 -0.0432
 9421TIP3    H149678   1.957   2.467   0.420  1.0046  0.4454 -2.0357
 9421TIP3    H249679   1.853   2.485   0.312 -0.6765 -0.9555 -0.6836
 9422TIP3   OH249680   3.007   0.716  14.463  0.3829  0.2744  0.1631
 9422TIP3    H149681   2.996   0.789  14.523  1.7922  0.2651  0.4473
 9422TIP3    H249682   3.101   0.714  14.444  0.1932 -0.7575 -0.7246
 9423TIP3   OH249683   2.185   0.447  13.599  0.1503  0.6497 -0.1757
 9423TIP3    H149684   2.101   0.428  13.559  0.1423  0.7137 -0.1883
 9423TIP3    H249685   2.184   0.397  13.681  0.3170  0.2166 -0.4320
 9424TIP3   OH249686   1.146   5.590  17.186 -0.8307  0.1137 -0.3345
 9424TIP3    H149687   1.227   5.610  17.140 -2.1172 -0.3542 -2.9379
 9424TIP3    H249688   1.157   5.499  17.216 -0.5325 -0.0695 -0.9953
 9425TIP3   OH249689   0.887   3.081  11.306 -0.3201  0.2673 -0.1928
 9425TIP3    H149690   0.916   3.153  11.251 -2.5119  0.6074 -0.9341
 9425TIP3    H249691   0.933   3.005  11.272  0.7525  1.0182 -0.4478
 9426TIP3   OH249692   1.389   5.614   1.009  0.0941  0.1302  0.0324
 9426TIP3    H149693   1.324   5.544   1.015  0.7372 -0.9516 -3.8804
 9426TIP3    H249694   1.434   5.613   1.094 -0.2883 -3.8622  0.2966
 9427TIP3   OH249695   3.513   4.013   5.351 -0.0569  0.2334 -0.2622
 9427TIP3    H149696   3.496   4.071   5.425 -0.0078 -0.2877  0.1584
 9427TIP3    H249697   3.592   3.965   5.376  0.5049  0.7247 -1.0516
 9428TIP3   OH249698   6.767   4.211   3.934 -0.9149  0.7243 -0.1672
 9428TIP3    H149699   6.833   4.243   3.994 -0.4310 -0.3710 -0.1059
 9428TIP3    H249700   6.735   4.290   3.889  0.3429  1.2764 -0.1200
 9429TIP3   OH249701   3.297   2.467   5.013 -0.3323 -0.3588 -0.4627
 9429TIP3    H149702   3.212   2.506   5.032 -0.2009 -0.6693  0.7675
 9429TIP3    H249703   3.277   2.392   4.957 -0.9754 -1.1123  0.7600
 9430TIP3   OH249704   1.126   4.301   5.304  0.1865  0.0653  0.4495
 9430TIP3    H149705   1.065   4.333   5.238 -0.0088  0.7009  0.9239
 9430TIP3    H249706   1.185   4.375   5.320  1.8827 -0.9788 -0.9368
 9431TIP3   OH249707   2.908   3.417  12.371 -0.1150 -0.7247 -0.2553
 9431TIP3    H149708   2.876   3.334  12.406  1.4662 -0.9810  0.6126
 9431TIP3    H249709   2.883   3.482  12.436  1.8204 -1.0433  0.8452
 9432TIP3   OH249710   3.643   4.028   0.498 -0.3018 -0.0783  0.2938
 9432TIP3    H149711   3.603   3.991   0.577 -1.5188  0.4054 -0.0875
 9432TIP3    H249712   3.627   3.964   0.430 -0.0168 -0.0974  0.2444
 9433TIP3   OH249713   6.367   3.968  12.424 -0.2907  0.3580  0.0478
 9433TIP3    H149714   6.353   3.997  12.515  0.5534 -0.6088  0.4932
 9433TIP3    H249715   6.405   3.881  12.432  0.5284  0.5866 -1.2343
 9434TIP3   OH249716   5.533   4.119   3.221 -0.2787  0.1957 -0.1783
 9434TIP3    H149717   5.594   4.058   3.180 -0.2876  0.5487 -0.7322
 9434TIP3    H249718   5.565   4.129   3.310  0.4369  0.3206 -0.4430
 9435TIP3   OH249719   3.553   4.828   5.591 -0.4180  0.4464 -0.2245
 9435TIP3    H149720   3.509   4.746   5.613 -0.7322  0.8710  0.7771
 9435TIP3    H249721   3.519   4.851   5.505  0.6827 -1.1468 -1.1014
 9436TIP3   OH249722   1.364   5.585  16.807 -0.2956  0.3974  0.5098
 9436TIP3    H149723   1.319   5.664  16.777  0.1797  0.5301  0.1264
 9436TIP3    H249724   1.345   5.519  16.741  1.0991  0.8061 -0.3393
 9437TIP3   OH249725   5.635   0.096  14.586  0.4931 -0.1524  0.4571
 9437TIP3    H149726   5.602   0.161  14.648 -1.2020 -0.4365 -0.1083
 9437TIP3    H249727   5.601   0.125  14.501  2.4861  0.0283 -0.2998
 9438TIP3   OH249728   4.880   6.664  13.909  0.0989 -0.4515  0.1501
 9438TIP3    H149729   4.945   6.601  13.877 -1.2595 -2.0132  0.3653
 9438TIP3    H249730   4.800   6.612  13.918 -1.3019  1.5353 -0.5573
 9439TIP3   OH249731   1.272   3.199  11.931  0.4383 -0.0928 -0.3345
 9439TIP3    H149732   1.298   3.228  11.844 -0.6442  1.0904 -0.2757
 9439TIP3    H249733   1.348   3.217  11.986  0.3168  1.2684 -0.5965
 9440TIP3   OH249734   4.385   2.443   5.824 -0.1704  0.0331  0.6615
 9440TIP3    H149735   4.368   2.404   5.910  0.0292  0.4223  0.8772
 9440TIP3    H249736   4.346   2.530   5.829  0.2564  0.2321  0.5156
 9441TIP3   OH249737   5.400   1.211   2.767  0.1037 -0.8179  0.8663
 9441TIP3    H149738   5.370   1.302   2.760  0.4682 -0.6835  1.0775
 9441TIP3    H249739   5.320   1.159   2.758  0.1730 -0.5734 -1.7575
 9442TIP3   OH249740   0.178   2.853  12.824  0.1305 -0.2713 -0.1392
 9442TIP3    H149741   0.169   2.776  12.768 -0.3432 -0.4891  0.2376
 9442TIP3    H249742   0.253   2.834  12.880  0.2846 -0.2717 -0.3456
 9443TIP3   OH249743   0.798   0.063   2.469  0.5466  1.0154 -0.0740
 9443TIP3    H149744   0.834  -0.022   2.442 -2.2122 -0.8021  1.7803
 9443TIP3    H249745   0.874   0.111   2.503  2.0304 -0.9688 -0.5044
 9444TIP3   OH249746   2.265   5.181   4.173  0.1245 -0.5479 -0.0926
 9444TIP3    H149747   2.339   5.137   4.214  0.1232 -0.6166 -0.1644
 9444TIP3    H249748   2.238   5.248   4.236 -0.0907 -0.8802  0.1703
 9445TIP3   OH249749   1.267   4.282   5.597  0.6030 -0.2602 -0.4834
 9445TIP3    H149750   1.351   4.236   5.594  0.3305 -0.9696  1.9046
 9445TIP3    H249751   1.207   4.228   5.545  1.1190 -0.8291 -0.4862
 9446TIP3   OH249752   1.904   4.639   1.388  0.9752  0.2757 -0.5332
 9446TIP3    H149753   1.846   4.712   1.368 -0.0032 -0.6643 -1.1660
 9446TIP3    H249754   1.895   4.580   1.313  2.5999  0.0253 -0.5500
 9447TIP3   OH249755   0.008   4.716   4.051  0.0058  0.0772 -0.0981
 9447TIP3    H149756  -0.037   4.632   4.040  0.1612  0.0080 -0.2050
 9447TIP3    H249757   0.079   4.697   4.112 -0.1601  0.2057  0.1360
 9448TIP3   OH249758   5.124   2.868   5.123  0.0328  0.4784 -0.3343
 9448TIP3    H149759   5.122   2.962   5.109 -0.1615  0.7667  1.4739
 9448TIP3    H249760   5.035   2.839   5.100 -0.4320  1.0089  0.7332
 9449TIP3   OH249761   4.158   4.447  12.517  0.6293  0.0034 -0.2307
 9449TIP3    H149762   4.184   4.481  12.431  1.3102  0.2882  0.0873
 9449TIP3    H249763   4.224   4.382  12.539 -0.6205 -1.4736 -0.7856
 9450TIP3   OH249764   1.922   4.912   6.399 -0.4384  0.8116 -0.5798
 9450TIP3    H149765   1.932   4.828   6.443 -0.4496  0.6884 -0.8123
 9450TIP3    H249766   1.934   4.892   6.306 -0.4775  1.0603 -0.6386
 9451TIP3   OH249767   2.274   2.440   3.755  0.0057  0.0779  0.2473
 9451TIP3    H149768   2.279   2.439   3.851  0.8205  1.9572  0.2437
 9451TIP3    H249769   2.357   2.478   3.727 -1.0285  1.3814 -1.1253
 9452TIP3   OH249770   4.943   6.030  17.223  0.3804  0.5612  0.7737
 9452TIP3    H149771   4.885   6.063  17.292 -1.1779 -1.1180  0.3043
 9452TIP3    H249772   4.995   5.962  17.266  0.8788  0.9540  0.7964
 9453TIP3   OH249773   6.068   3.364  13.911 -0.0665  0.0930 -0.2569
 9453TIP3    H149774   5.983   3.339  13.948  0.0229 -0.8285 -0.6548
 9453TIP3    H249775   6.046   3.408  13.829 -0.1414 -0.6763 -0.6545
 9454TIP3   OH249776   5.275   6.612  17.171 -0.1215  0.3334  0.3071
 9454TIP3    H149777   5.209   6.583  17.233 -0.1181  0.6009  0.4359
 9454TIP3    H249778   5.346   6.549  17.181 -1.1061 -1.0499 -1.1620
 9455TIP3   OH249779   3.016   0.587  15.638 -0.2593  0.2190  0.1065
 9455TIP3    H149780   3.035   0.653  15.571 -2.1231  1.1212  0.4565
 9455TIP3    H249781   3.082   0.519  15.623 -0.8084  0.2590 -2.8453
 9456TIP3   OH249782   5.135   1.395   2.926 -0.8686 -0.6994  0.3794
 9456TIP3    H149783   5.216   1.434   2.894 -0.6397 -1.4055  0.0973
 9456TIP3    H249784   5.142   1.400   3.022 -0.2995 -1.1427  0.3653
 9457TIP3   OH249785   3.413   1.986  11.015  0.0766 -0.2406 -0.4482
 9457TIP3    H149786   3.421   2.078  10.991 -1.1040 -0.2158 -0.7589
 9457TIP3    H249787   3.371   1.945  10.940  1.1021 -1.1409 -0.5402
 9458TIP3   OH249788   2.475   1.307   1.766 -0.0096  0.1172  0.3484
 9458TIP3    H149789   2.457   1.236   1.704  0.3399  0.9021 -0.6553
 9458TIP3    H249790   2.564   1.290   1.796 -0.0707 -0.0952  0.4125
 9459TIP3   OH249791   1.371   0.391   4.007 -0.2331 -0.6591  0.3515
 9459TIP3    H149792   1.279   0.417   4.004  0.3910  1.6817  0.8025
 9459TIP3    H249793   1.371   0.310   4.058 -2.1615 -1.2580 -0.5601
 9460TIP3   OH249794   4.167   5.824  11.997  0.8078  0.1050 -0.0395
 9460TIP3    H149795   4.206   5.904  11.962  0.6584  0.3167  0.2793
 9460TIP3    H249796   4.200   5.754  11.939  1.4518  0.3116  0.0708
 9461TIP3   OH249797   0.221   0.212  11.045 -0.6738 -0.3695 -0.6102
 9461TIP3    H149798   0.187   0.126  11.020 -0.8035  0.0205 -1.8188
 9461TIP3    H249799   0.219   0.263  10.963 -0.1492  0.6278 -0.0071
 9462TIP3   OH249800   3.605   0.559  16.861  0.3002 -0.1237 -0.3102
 9462TIP3    H149801   3.600   0.628  16.796  0.3598  1.4909  1.3590
 9462TIP3    H249802   3.525   0.508  16.848 -0.3715  1.0191 -0.7178
 9463TIP3   OH249803   4.676   1.835  16.187 -0.4528  0.2796  0.4789
 9463TIP3    H149804   4.661   1.916  16.139 -1.8045  0.4666  1.2191
 9463TIP3    H249805   4.613   1.773  16.149  1.6583 -0.9216 -1.2273
 9464TIP3   OH249806   5.418   2.523  16.848 -0.8090  0.4259 -0.4136
 9464TIP3    H149807   5.347   2.507  16.787 -0.6014  1.5115 -0.9608
 9464TIP3    H249808   5.395   2.605  16.891  0.3429  1.0595 -0.9697
 9465TIP3   OH249809   4.223   1.349  14.268  0.3745  0.3507  0.6165
 9465TIP3    H149810   4.237   1.348  14.173  1.5047 -0.9429  0.7661
 9465TIP3    H249811   4.302   1.390  14.304  1.4635 -2.1183  1.1650
 9466TIP3   OH249812   4.176   1.534   5.232  0.0355 -0.1064  0.3165
 9466TIP3    H149813   4.147   1.444   5.215 -0.4136  0.2433 -0.8105
 9466TIP3    H249814   4.108   1.571   5.289 -0.4707 -0.0649 -0.3103
 9467TIP3   OH249815   5.477   3.401   5.408 -0.2015  0.5007  0.4287
 9467TIP3    H149816   5.477   3.338   5.481 -0.6012  0.9664  0.8354
 9467TIP3    H249817   5.523   3.477   5.442 -2.2266  1.5361  0.9164
 9468TIP3   OH249818   6.417   5.844  12.818 -0.1172  0.0763 -0.4754
 9468TIP3    H149819   6.481   5.896  12.866  2.7204 -1.8730 -2.0512
 9468TIP3    H249820   6.444   5.851  12.726 -2.0663 -0.9573 -1.1586
 9469TIP3   OH249821   4.941   6.388  11.892 -0.4637  0.2195 -0.1518
 9469TIP3    H149822   4.887   6.464  11.871 -0.4352  0.9409  2.3062
 9469TIP3    H249823   4.884   6.329  11.941 -1.0197 -2.2394 -3.4973
 9470TIP3   OH249824   5.298   6.427   3.646 -0.1265  0.1038 -0.4424
 9470TIP3    H149825   5.239   6.493   3.611 -0.9264 -1.5474 -2.3680
 9470TIP3    H249826   5.275   6.419   3.738 -1.8891  0.5431 -0.8407
 9471TIP3   OH249827   3.961   2.124  12.696  0.3243  0.1512  0.4489
 9471TIP3    H149828   4.049   2.116  12.732  0.1019  1.2946  1.2907
 9471TIP3    H249829   3.940   2.217  12.705 -0.1922  0.2664 -1.6028
 9472TIP3   OH249830   2.983   2.159  15.095 -0.0484 -0.2995 -0.4895
 9472TIP3    H149831   3.036   2.206  15.031  0.8609 -0.6308  0.0218
 9472TIP3    H249832   2.970   2.073  15.056  1.2026 -0.7801  0.1382
 9473TIP3   OH249833   3.943   4.494  11.450 -0.0749  0.3211 -0.1731
 9473TIP3    H149834   3.849   4.481  11.439 -0.3222  2.7562 -1.2849
 9473TIP3    H249835   3.979   4.478  11.363  0.2536  1.5309 -0.2713
 9474TIP3   OH249836   0.624   5.975  15.491 -0.1234  0.0952  0.0491
 9474TIP3    H149837   0.712   5.942  15.511  0.2768  1.6981  1.0692
 9474TIP3    H249838   0.639   6.054  15.439 -0.9538  0.3954  0.2570
 9475TIP3   OH249839   5.297   1.128  10.269 -0.1214 -0.1749 -0.1560
 9475TIP3    H149840   5.361   1.190  10.305  1.4303 -1.0516 -1.3388
 9475TIP3    H249841   5.264   1.169  10.190  0.5236 -0.6154 -0.6598
 9476TIP3   OH249842   5.750   0.902  13.333  0.7870 -0.3283 -0.2588
 9476TIP3    H149843   5.743   0.989  13.295 -1.5161 -0.6595 -0.6945
 9476TIP3    H249844   5.682   0.900  13.400  1.4088 -1.4941  0.3482
 9477TIP3   OH249845   1.157   1.708  15.555  0.2069  0.5852 -0.1664
 9477TIP3    H149846   1.116   1.722  15.640 -0.3274  0.4376 -0.3975
 9477TIP3    H249847   1.091   1.661  15.504  0.1336  1.5340 -0.9764
 9478TIP3   OH249848   0.492   3.251  16.163  0.4859  0.1780 -0.1115
 9478TIP3    H149849   0.440   3.326  16.134  0.0358  0.7463  2.0459
 9478TIP3    H249850   0.579   3.267  16.127  0.2682  1.4841 -0.1047
 9479TIP3   OH249851   1.788   6.778   1.707 -0.2627  0.6955 -0.4747
 9479TIP3    H149852   1.879   6.796   1.683 -0.7149  0.4092 -2.4927
 9479TIP3    H249853   1.761   6.710   1.646 -1.7917  0.6752  0.2165
 9480TIP3   OH249854   2.894   2.821   2.145 -0.0002  0.1947 -0.4118
 9480TIP3    H149855   2.937   2.842   2.228 -1.0963  0.0871  0.1920
 9480TIP3    H249856   2.903   2.726   2.137 -1.0233  0.0308  0.2368
 9481TIP3   OH249857   3.863   0.931   0.648 -0.0642  0.2603  0.0081
 9481TIP3    H149858   3.948   0.917   0.606 -0.0200  1.5529 -0.3548
 9481TIP3    H249859   3.813   0.982   0.585 -0.9898 -0.1705  0.3799
 9482TIP3   OH249860   6.501   2.173  13.894  0.0142  0.2106 -0.5487
 9482TIP3    H149861   6.409   2.159  13.914 -0.2470  0.5371 -1.4763
 9482TIP3    H249862   6.503   2.186  13.799  0.9532  0.6476 -0.4761
 9483TIP3   OH249863   5.060   1.233  14.844 -0.2556  0.2483  0.2765
 9483TIP3    H149864   5.055   1.200  14.754  0.1031  1.1208 -0.0633
 9483TIP3    H249865   5.051   1.154  14.899  1.4222 -0.5282 -0.5249
 9484TIP3   OH249866   5.680   2.987   4.942  0.3502 -0.2566  0.2885
 9484TIP3    H149867   5.678   2.948   4.855  0.1163  1.3791 -0.4500
 9484TIP3    H249868   5.612   3.054   4.941  1.4539  0.9192  1.1807
 9485TIP3   OH249869   4.357   4.043  15.628  0.5972  0.5059 -0.4721
 9485TIP3    H149870   4.274   4.071  15.667 -0.3401 -0.3499 -1.8295
 9485TIP3    H249871   4.415   4.031  15.703 -0.8198  0.0532  0.5806
 9486TIP3   OH249872   0.018   3.269   4.039 -0.6549 -0.0283  0.2366
 9486TIP3    H149873   0.032   3.356   4.003  0.1068 -0.2255  0.0548
 9486TIP3    H249874   0.009   3.282   4.133 -1.1121  0.3116  0.1462
 9487TIP3   OH249875   3.641   2.885   0.818 -0.9253 -0.3504 -0.4036
 9487TIP3    H149876   3.735   2.867   0.826 -0.5091  0.8603 -2.1436
 9487TIP3    H249877   3.599   2.800   0.834  0.4835 -0.9723  0.0977
 9488TIP3   OH249878   1.328   2.823   5.758 -0.2278  0.0274 -0.2014
 9488TIP3    H149879   1.283   2.895   5.801 -0.8573 -1.0329  0.9712
 9488TIP3    H249880   1.333   2.754   5.825  2.0287 -0.3414 -0.6921
 9489TIP3   OH249881   0.619   5.247   5.685 -0.1037 -0.7606  0.1462
 9489TIP3    H149882   0.659   5.191   5.753 -0.2571 -0.5197  0.4346
 9489TIP3    H249883   0.693   5.294   5.648  0.0222 -1.1214 -0.0681
 9490TIP3   OH249884   1.287   4.629  12.875  0.6114  0.0168 -0.0189
 9490TIP3    H149885   1.280   4.548  12.926  0.8436 -0.1132 -0.1939
 9490TIP3    H249886   1.380   4.650  12.875  0.3969  1.0403  1.1921
 9491TIP3   OH249887   6.168   2.255  17.051 -0.0597  0.2834  0.4953
 9491TIP3    H149888   6.217   2.191  17.103  0.3368  0.3090  0.1572
 9491TIP3    H249889   6.207   2.250  16.964 -0.1566  0.8449  0.4178
 9492TIP3   OH249890   4.072   3.477   4.214  0.6475  0.5566 -0.7181
 9492TIP3    H149891   4.134   3.547   4.194  0.7805  0.5222 -0.4358
 9492TIP3    H249892   4.080   3.464   4.308  1.0857 -0.2607 -0.8585
 9493TIP3   OH249893   5.549   3.731  16.523 -0.5331  0.1929  0.0444
 9493TIP3    H149894   5.532   3.744  16.617 -0.4943  1.2228 -0.0927
 9493TIP3    H249895   5.475   3.680  16.492  0.0357 -1.1921  0.8887
 9494TIP3   OH249896   4.615   5.975  16.928  0.1802  0.8275 -0.0815
 9494TIP3    H149897   4.639   5.944  17.015 -0.8315  1.5361  0.4662
 9494TIP3    H249898   4.697   6.005  16.890  0.9866 -1.4901 -0.2216
 9495TIP3   OH249899   0.679   2.138  12.562  0.4074 -0.4088  0.1684
 9495TIP3    H149900   0.644   2.226  12.546 -0.4301 -0.5291  1.2731
 9495TIP3    H249901   0.730   2.118  12.483 -1.5240  0.0125 -1.2202
 9496TIP3   OH249902   4.204   6.700   3.439  0.4808 -0.1516 -0.4389
 9496TIP3    H149903   4.242   6.782   3.472  3.6184 -1.4764 -0.5540
 9496TIP3    H249904   4.168   6.724   3.353  0.0425  1.4183  0.1619
 9497TIP3   OH249905   5.633   1.956   0.720 -0.1393 -0.2989 -0.1071
 9497TIP3    H149906   5.598   2.045   0.724 -1.2040 -0.6236 -1.8217
 9497TIP3    H249907   5.558   1.901   0.696  1.5070 -0.9464 -4.2715
 9498TIP3   OH249908   2.936   6.198  14.656 -0.2986 -0.1654  0.0939
 9498TIP3    H149909   2.901   6.211  14.568  0.1616 -0.9574 -0.2182
 9498TIP3    H249910   2.911   6.108  14.678  0.7198 -0.4181  0.2404
 9499TIP3   OH249911   4.095   1.023   0.126 -0.2130 -0.0706 -0.2589
 9499TIP3    H149912   4.172   1.029   0.069  0.6407 -1.4804  0.7360
 9499TIP3    H249913   4.088   1.110   0.166  1.6944 -0.3395  0.7128
 9500TIP3   OH249914   1.574   0.301  13.330 -0.3769  0.6815  0.1392
 9500TIP3    H149915   1.643   0.303  13.396  1.4299  3.7486 -1.7451
 9500TIP3    H249916   1.619   0.279  13.248 -2.3135 -1.3842 -0.4312
 9501TIP3   OH249917   5.099   1.505   4.465 -0.4560  0.3542 -0.1257
 9501TIP3    H149918   5.181   1.470   4.432  0.1835  1.0887  0.6754
 9501TIP3    H249919   5.039   1.430   4.464  0.9917 -0.8653  1.8628
 9502TIP3   OH249920   3.024   2.709   6.083  0.2038 -0.2963  0.1449
 9502TIP3    H149921   2.975   2.708   6.165  2.2799  0.3263  1.4374
 9502TIP3    H249922   3.113   2.686   6.109  1.6629  3.3564 -1.3793
 9503TIP3   OH249923   5.137   1.659  14.680  0.3930 -0.7614 -0.2321
 9503TIP3    H149924   5.140   1.742  14.728  0.4234  0.2918 -2.0079
 9503TIP3    H249925   5.195   1.601  14.729  1.0931  0.5607  0.5290
 9504TIP3   OH249926   4.051   5.807   1.998 -0.0262 -0.5198  0.5280
 9504TIP3    H149927   3.993   5.856   2.057 -1.3598  0.0740 -1.2526
 9504TIP3    H249928   4.062   5.864   1.922  0.2778 -1.9961 -0.5533
 9505TIP3   OH249929   3.250   3.974  14.336  0.4565 -0.0654  0.6155
 9505TIP3    H149930   3.190   4.038  14.297 -1.3463 -0.2751  2.9421
 9505TIP3    H249931   3.278   4.014  14.418 -0.0455 -1.8744  1.7011
 9506TIP3   OH249932   2.414   3.110  11.152 -0.3136  0.0333  0.2185
 9506TIP3    H149933   2.472   3.105  11.076  0.3608  3.2720  0.4544
 9506TIP3    H249934   2.335   3.153  11.120  0.2005  1.9333  1.4339
 9507TIP3   OH249935   2.167   4.768  12.805 -0.3318 -0.2893 -0.6340
 9507TIP3    H149936   2.202   4.842  12.756 -0.2717  0.3935  0.4346
 9507TIP3    H249937   2.074   4.765  12.780 -0.2590 -0.0720 -0.9340
 9508TIP3   OH249938   2.434   3.307  15.212 -0.1562  0.2094  0.0222
 9508TIP3    H149939   2.347   3.268  15.199 -0.0644  0.5811 -1.7910
 9508TIP3    H249940   2.495   3.238  15.186  0.0380  0.8373 -1.2272
 9509TIP3   OH249941   2.606   2.957  14.439 -0.1775 -1.3426  0.5699
 9509TIP3    H149942   2.586   3.034  14.385  1.6051 -0.3946  1.2377
 9509TIP3    H249943   2.520   2.919  14.457 -1.0448  0.1102 -0.3209
 9510TIP3   OH249944   1.488   6.526   3.673 -0.0516 -0.0445  0.0236
 9510TIP3    H149945   1.470   6.601   3.729  0.1662 -0.1316  0.2139
 9510TIP3    H249946   1.520   6.458   3.733 -1.6382 -0.7818  0.0504
 9511TIP3   OH249947   3.243   1.483   1.108  0.9218  0.0641  0.4447
 9511TIP3    H149948   3.281   1.422   1.045  1.6629  0.3768  0.5914
 9511TIP3    H249949   3.270   1.448   1.193  1.6315  0.7823  0.5180
 9512TIP3   OH249950   3.885   1.276  16.811  0.0876  0.1485  0.1417
 9512TIP3    H149951   3.902   1.208  16.745  0.8361  1.7839 -1.3725
 9512TIP3    H249952   3.968   1.282  16.860 -0.8579 -1.9422  2.1124
 9513TIP3   OH249953   3.608   2.464   4.824 -0.5488 -0.8183 -0.4741
 9513TIP3    H149954   3.678   2.437   4.883  1.4330  1.3392 -1.7592
 9513TIP3    H249955   3.566   2.382   4.798 -0.0007 -1.9816  2.0990
 9514TIP3   OH249956   6.713   5.625   2.126 -0.4128  0.1644 -0.1626
 9514TIP3    H149957   6.691   5.716   2.145  0.9098  0.4432  0.0830
 9514TIP3    H249958   6.770   5.629   2.049 -0.3479 -0.4555 -0.1522
 9515TIP3   OH249959   4.650   2.589   5.975  0.2526 -0.1615  0.1104
 9515TIP3    H149960   4.658   2.495   5.960 -0.4789 -0.4565  1.5573
 9515TIP3    H249961   4.615   2.597   6.063  2.1001  1.5131  0.7364
 9516TIP3   OH249962   0.819   2.667  12.093  0.3829 -0.7271  0.1918
 9516TIP3    H149963   0.838   2.658  11.999  1.6395 -0.4330  0.4071
 9516TIP3    H249964   0.848   2.755  12.115  2.8707 -1.8229  1.4710
 9517TIP3   OH249965   2.671   6.299  13.819  0.1269 -0.1806 -0.1087
 9517TIP3    H149966   2.714   6.297  13.733 -0.5353  0.5841 -0.4579
 9517TIP3    H249967   2.661   6.392  13.839 -3.9176 -0.2534 -1.3420
 9518TIP3   OH249968   6.432   0.740   0.203 -0.0231  0.1540 -0.1753
 9518TIP3    H149969   6.341   0.715   0.217  0.2466 -0.2554  0.8999
 9518TIP3    H249970   6.429   0.833   0.181 -0.7757 -0.0898 -1.1413
 9519TIP3   OH249971   1.145   1.129  12.988  0.0378  0.0060 -0.1595
 9519TIP3    H149972   1.090   1.170  13.055 -1.5625 -0.6332 -1.0611
 9519TIP3    H249973   1.123   1.175  12.907  0.7985 -0.2883 -0.5382
 9520TIP3   OH249974   5.759   0.253   3.084  0.0421  0.2626  0.2132
 9520TIP3    H149975   5.705   0.332   3.085 -1.2987 -0.6416  1.2987
 9520TIP3    H249976   5.716   0.194   3.022  1.9872  0.9764 -1.9185
 9521TIP3   OH249977   4.046   0.557  16.078  0.5796  0.5092 -0.3443
 9521TIP3    H149978   4.003   0.479  16.042  0.2220  0.9188 -0.8145
 9521TIP3    H249979   4.108   0.584  16.011  0.7312  0.6057 -0.1641
 9522TIP3   OH249980   3.612   0.035   6.561  0.0235  0.0810  0.1266
 9522TIP3    H149981   3.518   0.022   6.577 -0.1410 -1.2194 -1.7211
 9522TIP3    H249982   3.649  -0.053   6.567  0.8589  0.3662 -0.7908
 9523TIP3   OH249983   3.752   0.595  14.942 -0.4058 -0.0372  0.7346
 9523TIP3    H149984   3.761   0.623  15.033  0.9318 -2.2084  1.3067
 9523TIP3    H249985   3.666   0.553  14.938 -1.9530  3.0334  0.1276
 9524TIP3   OH249986   5.433   2.550  11.803 -1.0065 -0.0907  0.3160
 9524TIP3    H149987   5.352   2.511  11.837 -0.0411 -1.0743  1.5244
 9524TIP3    H249988   5.492   2.552  11.878  1.1281 -2.1823 -1.2726
 9525TIP3   OH249989   0.732   4.841  15.521 -0.2803  0.4279 -0.0867
 9525TIP3    H149990   0.797   4.862  15.588  0.6301 -1.1477 -0.4358
 9525TIP3    H249991   0.674   4.777  15.563 -0.3137  0.1983 -0.4826
 9526TIP3   OH249992   4.077   0.233  12.885 -0.5966  0.4402  0.2005
 9526TIP3    H149993   4.121   0.297  12.941  1.0627  0.8666 -1.5136
 9526TIP3    H249994   4.139   0.160  12.878 -0.9225  0.2463 -0.7917
 9527TIP3   OH249995   4.308   3.628  13.766 -0.0654  0.3928  0.6761
 9527TIP3    H149996   4.339   3.635  13.676  0.3011  2.1665  0.9242
 9527TIP3    H249997   4.388   3.614  13.817 -0.1719  0.3232  0.8206
 9528TIP3   OH249998   4.058   3.918  13.068 -0.3511 -0.0639 -0.2852
 9528TIP3    H149999   4.108   3.997  13.046 -1.1418  0.2171 -1.1154
 9528TIP3    H250000   3.975   3.928  13.021 -1.0466 -0.6947  0.7923
 9529TIP3   OH250001   4.153   3.519   0.047 -0.3297  0.1558 -0.0143
 9529TIP3    H150002   4.180   3.458  -0.023  0.4107 -0.6991  0.9863
 9529TIP3    H250003   4.211   3.498   0.120  0.9978  3.1319 -0.1390
 9530TIP3   OH250004   3.168   0.833  15.603 -0.2811  0.5448 -0.1637
 9530TIP3    H150005   3.088   0.883  15.584  0.1697  1.9776  1.5681
 9530TIP3    H250006   3.163   0.813  15.696  0.3046 -1.3558 -0.5176
 9531TIP3   OH250007   0.914   6.745   1.604  0.0785  0.1309 -0.5157
 9531TIP3    H150008   0.988   6.765   1.661 -0.0005 -0.5190 -0.1729
 9531TIP3    H250009   0.862   6.825   1.601 -0.2410 -0.0114  0.8148
 9532TIP3   OH250010   2.957   3.407   4.305 -0.0566  0.0662 -0.7056
 9532TIP3    H150011   3.016   3.480   4.289  1.5831 -1.0702 -0.0022
 9532TIP3    H250012   2.989   3.338   4.246  0.9818 -1.4279  1.5121
 9533TIP3   OH250013   3.069   5.651   2.797  0.6773 -0.3849 -0.1020
 9533TIP3    H150014   3.014   5.578   2.772 -0.4489  0.1103  0.9091
 9533TIP3    H250015   3.058   5.715   2.727  1.5428 -1.1116 -0.9077
 9534TIP3   OH250016   3.539   0.695   1.367  0.3921 -0.2067 -0.1550
 9534TIP3    H150017   3.468   0.674   1.428  1.1636 -0.2817  0.7188
 9534TIP3    H250018   3.513   0.777   1.327  0.2059  0.1903  0.7730
 9535TIP3   OH250019   6.183   5.918   4.080 -0.5901  0.5152  0.5861
 9535TIP3    H150020   6.101   5.940   4.125  0.0039  0.3052  1.7954
 9535TIP3    H250021   6.208   5.833   4.117 -0.3155  0.1334 -0.4653
 9536TIP3   OH250022   5.001   0.295   3.967  0.5013  0.1635  0.0686
 9536TIP3    H150023   5.061   0.301   3.892  0.4106 -1.2289 -0.1229
 9536TIP3    H250024   4.935   0.363   3.950  0.1212 -0.5506 -1.4358
 9537TIP3   OH250025   6.332   5.772  15.313  0.0765  0.3906 -0.4478
 9537TIP3    H150026   6.374   5.755  15.229  2.4056  3.7830 -0.0912
 9537TIP3    H250027   6.331   5.868  15.320  0.0783  0.1717  3.4535
 9538TIP3   OH250028   4.789   2.737  14.542  0.6972  0.9573 -0.5799
 9538TIP3    H150029   4.800   2.831  14.531 -0.5159  1.2267  0.3835
 9538TIP3    H250030   4.734   2.729  14.620  1.1683 -0.5614 -0.3914
 9539TIP3   OH250031   4.604   1.031   4.361 -0.3820 -0.2275  0.2961
 9539TIP3    H150032   4.636   1.106   4.310  0.9325 -0.3887  0.8727
 9539TIP3    H250033   4.591   1.065   4.449 -0.2038 -0.5746  0.4587
 9540TIP3   OH250034   1.066   0.881  12.893  0.0658 -0.1389  0.2299
 9540TIP3    H150035   1.023   0.885  12.808 -0.8630  1.1326  0.7407
 9540TIP3    H250036   1.075   0.973  12.920  1.2241 -0.4865  1.0659
 9541TIP3   OH250037   3.708   2.897   5.017 -0.4398  0.2161 -0.0702
 9541TIP3    H150038   3.790   2.895   5.067  0.0157 -2.6965 -0.8240
 9541TIP3    H250039   3.640   2.894   5.083  0.1262 -0.7162  0.4823
 9542TIP3   OH250040   1.479   5.988   3.459 -0.1554  0.2042 -0.1765
 9542TIP3    H150041   1.564   5.953   3.431 -0.6419  0.6444 -2.2914
 9542TIP3    H250042   1.488   6.000   3.554  1.5250 -1.4205 -0.1016
 9543TIP3   OH250043   3.907   1.490  15.220 -0.4986 -0.2573  0.0627
 9543TIP3    H150044   3.870   1.573  15.188 -0.1305 -0.3158 -0.5321
 9543TIP3    H250045   3.939   1.510  15.308  2.9251  1.2437 -1.4198
 9544TIP3   OH250046   2.470   0.888  11.965  0.2818 -0.1280  0.1083
 9544TIP3    H150047   2.403   0.952  11.942  1.5637  1.6670  1.2396
 9544TIP3    H250048   2.485   0.902  12.059  1.9020 -0.7975 -0.0377
 9545TIP3   OH250049   4.305   0.671   5.812 -0.0071  0.4388 -0.2317
 9545TIP3    H150050   4.354   0.753   5.812 -0.1097  0.5001  0.0321
 9545TIP3    H250051   4.237   0.683   5.879 -0.6033  0.4845 -0.8431
 9546TIP3   OH250052   4.362   4.010   0.683  0.4872  0.1087  0.1462
 9546TIP3    H150053   4.448   4.037   0.714  0.2245  0.5202  0.5303
 9546TIP3    H250054   4.324   4.090   0.645 -0.0381  0.1217  0.6981
 9547TIP3   OH250055   2.458   5.671  15.448 -0.1336  0.7376 -0.9864
 9547TIP3    H150056   2.445   5.623  15.530  0.2718  2.5873  0.2027
 9547TIP3    H250057   2.370   5.687  15.414 -0.2544 -1.2079 -1.6304
 9548TIP3   OH250058   4.542   3.888  13.582 -0.1406 -0.1541 -0.1345
 9548TIP3    H150059   4.527   3.794  13.572  1.0546 -0.5392  1.4134
 9548TIP3    H250060   4.533   3.904  13.676  0.8239  1.0599 -0.2356
 9549TIP3   OH250061   5.656   4.813  14.926 -0.4175 -0.4242 -0.1155
 9549TIP3    H150062   5.680   4.900  14.894 -1.7335  0.6292  1.7224
 9549TIP3    H250063   5.686   4.812  15.017  0.4794 -2.2651 -0.4095
 9550TIP3   OH250064   6.518   6.577   3.707  0.6212  0.4717  0.3768
 9550TIP3    H150065   6.460   6.501   3.703  1.3473 -0.0058 -1.4338
 9550TIP3    H250066   6.493   6.630   3.631  0.9791  1.4203  0.9147
 9551TIP3   OH250067   4.498   0.475   1.298 -0.1231 -0.3052 -0.0874
 9551TIP3    H150068   4.579   0.518   1.325  0.7814 -1.2590 -1.2187
 9551TIP3    H250069   4.471   0.424   1.374  0.5598 -0.3022  0.1611
 9552TIP3   OH250070   5.653   1.138   2.759 -0.3771  0.0515 -0.5238
 9552TIP3    H150071   5.561   1.138   2.783 -0.1042  0.7018  0.5611
 9552TIP3    H250072   5.666   1.220   2.711 -0.2719  0.1383 -0.3456
 9553TIP3   OH250073   2.386   0.024  14.166  0.1964 -0.1440  0.2903
 9553TIP3    H150074   2.295   0.051  14.170 -0.8295 -3.3826 -0.2792
 9553TIP3    H250075   2.388  -0.063  14.207  2.7296 -0.7932 -1.0671
 9554TIP3   OH250076   4.818   0.904   1.833  0.7058 -0.0237  0.0440
 9554TIP3    H150077   4.821   0.946   1.919 -0.2805 -0.0150  0.0830
 9554TIP3    H250078   4.734   0.932   1.796  1.4622  0.5841 -1.2329
 9555TIP3   OH250079   2.652   0.688   4.248  0.2263  0.3593  0.4080
 9555TIP3    H150080   2.651   0.610   4.192 -0.9303  0.1081  0.7733
 9555TIP3    H250081   2.663   0.760   4.186 -0.7530  0.0601 -0.1441
 9556TIP3   OH250082   4.575   3.105  16.871 -0.2999 -0.3582  0.2052
 9556TIP3    H150083   4.513   3.170  16.903 -1.4743 -1.1454 -0.4500
 9556TIP3    H250084   4.653   3.118  16.924 -1.2518  0.2228  1.4765
 9557TIP3   OH250085   6.728   0.088   2.579 -0.2167  0.3375  0.4640
 9557TIP3    H150086   6.633   0.098   2.576 -0.4858 -1.9862  0.8123
 9557TIP3    H250087   6.747   0.063   2.670  0.5217 -1.0713 -0.0648
 9558TIP3   OH250088   4.344   5.082   2.845 -0.4237 -0.5300 -0.1348
 9558TIP3    H150089   4.410   5.146   2.873 -1.1114 -0.3401  1.1077
 9558TIP3    H250090   4.392   5.022   2.787  1.0214 -0.8035  1.2813
 9559TIP3   OH250091   4.978   0.982   4.542 -0.1302 -0.6922  0.1699
 9559TIP3    H150092   5.020   1.050   4.595 -0.2180 -0.0654 -0.5447
 9559TIP3    H250093   4.971   0.907   4.600  3.1837 -1.2788 -0.0675
 9560TIP3   OH250094   4.733   5.308  15.101  0.7471  0.3889 -0.6526
 9560TIP3    H150095   4.720   5.235  15.041  0.2843  0.2543 -0.3890
 9560TIP3    H250096   4.665   5.372  15.077  1.0531  0.6685 -0.7822
 9561TIP3   OH250097   6.344   0.941  12.184  0.1025 -0.3458 -0.0109
 9561TIP3    H150098   6.305   1.012  12.134 -0.0976 -0.1403  0.4299
 9561TIP3    H250099   6.272   0.905  12.235  0.3228 -0.4729  0.2156
 9562TIP3   OH250100   2.790   0.398   6.467 -0.1667 -0.0236 -0.2604
 9562TIP3    H150101   2.698   0.424   6.469  0.0015  0.5317  0.5648
 9562TIP3    H250102   2.838   0.478   6.489  0.5260 -0.2731 -0.8422
 9563TIP3   OH250103   5.548   0.059   0.733  0.4150  0.1585 -0.6466
 9563TIP3    H150104   5.498  -0.018   0.758  0.4818  0.1955 -0.3930
 9563TIP3    H250105   5.514   0.084   0.647  0.5990 -0.3269 -0.8637
 9564TIP3   OH250106   2.591   6.668   4.131  0.6205  0.0054 -0.2517
 9564TIP3    H150107   2.668   6.692   4.078  1.3645  2.5907  1.8692
 9564TIP3    H250108   2.529   6.740   4.116  0.5844  0.4297  1.8337
 9565TIP3   OH250109   2.645   6.054  14.207 -0.6615 -0.0211  0.1013
 9565TIP3    H150110   2.638   5.963  14.177  0.0823 -0.4353  1.1489
 9565TIP3    H250111   2.559   6.074  14.244 -0.5573 -0.5852  0.6522
 9566TIP3   OH250112   6.037   4.012  15.494  0.0910 -0.3363 -0.1885
 9566TIP3    H150113   6.032   3.959  15.574  1.5106 -2.3137 -1.3582
 9566TIP3    H250114   5.994   3.958  15.428 -0.7103  1.1103 -0.8639
 9567TIP3   OH250115   3.991   0.557  12.654  0.5577  0.8136  0.4398
 9567TIP3    H150116   4.001   0.613  12.578  0.0169  0.0199 -0.2270
 9567TIP3    H250117   3.991   0.468  12.619 -0.0309  0.4540  1.3253
 9568TIP3   OH250118   3.935   5.654  14.145  0.0473  0.0907 -0.1159
 9568TIP3    H150119   4.025   5.674  14.119 -0.3488  2.7356  0.4459
 9568TIP3    H250120   3.902   5.598  14.074  1.1773  1.5449 -1.8498
 9569TIP3   OH250121   0.684   3.555  16.635 -0.3821 -0.1473 -0.6763
 9569TIP3    H150122   0.610   3.511  16.593  0.0536 -0.4947 -1.0885
 9569TIP3    H250123   0.735   3.484  16.673  0.7526 -0.0664 -2.0349
 9570TIP3   OH250124   6.199   4.035  14.905  0.1284 -1.0525  0.2709
 9570TIP3    H150125   6.252   4.094  14.959  0.8689 -1.3501 -0.1193
 9570TIP3    H250126   6.225   4.056  14.815  0.1928 -1.7835  0.1168
 9571TIP3   OH250127   5.876   4.161   2.003  0.2118 -0.1104  0.0969
 9571TIP3    H150128   5.961   4.122   1.984 -0.5611 -1.2271 -1.1522
 9571TIP3    H250129   5.871   4.163   2.098  1.6669  0.0671  0.1886
 9572TIP3   OH250130   2.539   4.762  13.436  0.0034 -0.2573  0.1438
 9572TIP3    H150131   2.552   4.694  13.369  1.9870  0.1659  0.0689
 9572TIP3    H250132   2.623   4.808  13.440 -1.2060  1.9617  0.4731
 9573TIP3   OH250133   5.454   2.536   0.012  0.1089  0.8737 -0.6024
 9573TIP3    H150134   5.412   2.486  -0.058  0.8606  1.4366 -1.4746
 9573TIP3    H250135   5.423   2.496   0.093  2.9326 -2.8710 -1.2741
 9574TIP3   OH250136   1.681   2.173  16.049  0.2795 -0.5773  0.3910
 9574TIP3    H150137   1.776   2.163  16.036  0.2785 -1.5051  1.1269
 9574TIP3    H250138   1.651   2.087  16.078 -0.8364 -0.3537 -0.0850
 9575TIP3   OH250139   1.288   2.550   2.360 -0.4363  0.3015 -0.2615
 9575TIP3    H150140   1.256   2.584   2.443  1.7404  2.1161 -0.1253
 9575TIP3    H250141   1.209   2.541   2.306 -1.7743 -0.2730  1.7539
 9576TIP3   OH250142   6.414   2.687  12.286 -0.4356 -0.0467 -0.0318
 9576TIP3    H150143   6.395   2.626  12.215 -0.5191  0.8081 -0.7394
 9576TIP3    H250144   6.375   2.770  12.259 -0.3089  0.3389  0.9232
 9577TIP3   OH250145   6.133   5.468   5.574 -0.1857 -0.3050  0.3405
 9577TIP3    H150146   6.191   5.446   5.501 -0.3616 -0.6944  0.3154
 9577TIP3    H250147   6.132   5.564   5.576  2.3062 -0.2690  1.8242
 9578TIP3   OH250148   5.491   4.549  12.409  0.7260  0.3414  0.1741
 9578TIP3    H150149   5.518   4.526  12.498  1.4082 -3.1295 -0.8492
 9578TIP3    H250150   5.569   4.588  12.370  0.9137  0.4273  0.6328
 9579TIP3   OH250151   0.184   1.025   2.667  0.2723  0.8292  0.0790
 9579TIP3    H150152   0.129   0.979   2.603 -0.0609  1.4478 -0.0846
 9579TIP3    H250153   0.252   0.961   2.690 -0.0958  0.3085 -0.2574
 9580TIP3   OH250154   0.539   2.263   1.788 -0.0221  0.0938  0.0745
 9580TIP3    H150155   0.538   2.352   1.752 -1.0616 -0.7900 -2.1896
 9580TIP3    H250156   0.626   2.253   1.826  0.3506  1.8493 -0.2980
 9581TIP3   OH250157   5.713   2.887   4.702  0.5215  0.1593  0.0384
 9581TIP3    H150158   5.799   2.895   4.660  0.8303 -0.5591  0.5249
 9581TIP3    H250159   5.658   2.949   4.655  0.9320 -0.4241 -1.2237
 9582TIP3   OH250160   6.146   1.033   0.848 -1.2841  0.2880  0.0630
 9582TIP3    H150161   6.072   1.093   0.843 -0.7844  0.8295 -1.1559
 9582TIP3    H250162   6.220   1.088   0.876 -1.4854 -0.3843  1.9391
 9583TIP3   OH250163   3.037   0.624   3.044 -0.1447 -0.0660  0.6305
 9583TIP3    H150164   2.943   0.619   3.059 -0.2634 -0.9033 -0.3072
 9583TIP3    H250165   3.048   0.596   2.953  0.7823  2.3909 -0.0560
 9584TIP3   OH250166   3.274   1.025  14.377  0.0584  0.4138 -0.0993
 9584TIP3    H150167   3.187   0.998  14.406 -0.4341  1.2659 -0.7590
 9584TIP3    H250168   3.294   1.103  14.429  0.0717  0.6985 -0.5287
 9585TIP3   OH250169   1.199   1.878  14.952 -0.4034 -0.4186  0.4379
 9585TIP3    H150170   1.138   1.903  14.883  1.4099  0.9139 -0.7260
 9585TIP3    H250171   1.143   1.851  15.025 -2.3526 -0.6792 -1.1058
 9586TIP3   OH250172   0.399   2.012  16.319  0.3477 -0.5055 -0.5574
 9586TIP3    H150173   0.442   2.098  16.323 -1.2039  0.2165  2.0743
 9586TIP3    H250174   0.306   2.033  16.313 -0.0053 -2.0313 -0.5022
 9587TIP3   OH250175   2.864   2.265   5.162 -0.2982 -0.1764  0.5025
 9587TIP3    H150176   2.884   2.172   5.174 -0.2001 -0.3191 -0.6918
 9587TIP3    H250177   2.782   2.266   5.114  0.0985  0.3504 -0.1649
 9588TIP3   OH250178   5.716   4.985   1.472  0.6760  0.8444 -0.3451
 9588TIP3    H150179   5.799   4.943   1.496  0.6144  1.2311  0.5714
 9588TIP3    H250180   5.706   5.055   1.536 -0.8839  0.1428  0.2123
 9589TIP3   OH250181   2.211   1.684   1.410  0.6090  0.1558 -0.4401
 9589TIP3    H150182   2.212   1.767   1.362  1.8171  0.5305  0.2126
 9589TIP3    H250183   2.244   1.620   1.348  0.3550  0.2838 -0.7125
 9590TIP3   OH250184   4.502   2.077   4.857  0.0686 -0.5530  0.5997
 9590TIP3    H150185   4.557   2.008   4.821  0.8115  1.5553 -2.4638
 9590TIP3    H250186   4.467   2.122   4.781 -1.5181  1.6031  2.5307
 9591TIP3   OH250187   2.528   4.239   2.477  0.3628  0.5835 -0.0431
 9591TIP3    H150188   2.515   4.148   2.503  0.2511  0.6746  0.2164
 9591TIP3    H250189   2.604   4.236   2.418 -0.4320  0.1461 -1.0653
 9592TIP3   OH250190   3.541   5.055   0.636 -0.2790  0.4402  0.1749
 9592TIP3    H150191   3.460   5.006   0.641  1.1217 -1.8757  0.8613
 9592TIP3    H250192   3.610   4.989   0.636  1.6471  2.3655  0.3484
 9593TIP3   OH250193   1.385   5.462   3.346 -0.1697  0.5070 -0.3223
 9593TIP3    H150194   1.458   5.402   3.336 -0.3978  0.3777 -1.2223
 9593TIP3    H250195   1.423   5.539   3.389  0.2261 -0.0615  0.3640
 9594TIP3   OH250196   6.313   1.593  14.662 -0.1257 -0.3175  0.0636
 9594TIP3    H150197   6.361   1.580  14.580  0.5117 -1.5444  0.6247
 9594TIP3    H250198   6.363   1.660  14.709 -0.0723 -0.1537 -0.2292
 9595TIP3   OH250199   6.409   5.482  10.325 -0.1063  0.1321 -0.2277
 9595TIP3    H150200   6.315   5.499  10.327 -0.0918  0.7082 -2.9125
 9595TIP3    H250201   6.446   5.549  10.383 -1.4383 -1.1637  2.2269
 9596TIP3   OH250202   6.107   3.575  14.573 -0.7052 -0.0208 -0.0197
 9596TIP3    H150203   6.136   3.567  14.483 -2.2260  0.9063 -0.6092
 9596TIP3    H250204   6.179   3.539  14.625  0.2648 -0.3634 -1.5790
 9597TIP3   OH250205   6.520   6.519  16.701 -0.2601  0.0000 -0.5820
 9597TIP3    H150206   6.432   6.484  16.688 -0.2471 -0.9205  1.5893
 9597TIP3    H250207   6.566   6.499  16.619 -1.9109  0.0370 -1.5448
 9598TIP3   OH250208   3.179   4.950   2.031  0.5060  0.0595  0.2533
 9598TIP3    H150209   3.202   4.970   2.121  2.6802  1.2236 -0.5219
 9598TIP3    H250210   3.102   5.003   2.013  1.0650  1.1202  0.9215
 9599TIP3   OH250211   3.205   5.311  12.075 -0.2453 -0.2798  0.1589
 9599TIP3    H150212   3.284   5.262  12.052 -0.1556  0.4368 -1.0606
 9599TIP3    H250213   3.232   5.402  12.077 -0.7605 -0.1364  0.9793
 9600TIP3   OH250214   1.760   4.134  16.726  0.1435  0.1663  0.0397
 9600TIP3    H150215   1.757   4.184  16.644  1.6870 -2.1849 -1.5188
 9600TIP3    H250216   1.678   4.156  16.770 -0.8185  1.3520 -2.2208
 9601TIP3   OH250217   5.521   4.357   3.403 -0.0527  0.1293  0.2010
 9601TIP3    H150218   5.488   4.275   3.439 -0.4691 -0.8980 -2.3960
 9601TIP3    H250219   5.520   4.418   3.477  0.3303 -2.1905  2.1922
 9602TIP3   OH250220   4.796   4.624   2.622 -0.0578  0.5766 -0.3044
 9602TIP3    H150221   4.791   4.565   2.547 -0.4951  0.5100 -0.2186
 9602TIP3    H250222   4.803   4.711   2.582  0.0548  0.5133 -0.4250
 9603TIP3   OH250223   3.938   2.318  14.397 -0.5908 -0.4421 -0.5493
 9603TIP3    H150224   4.020   2.326  14.444 -0.8250  1.2218 -0.3838
 9603TIP3    H250225   3.920   2.224  14.395  0.8059 -0.7374  0.2605
 9604TIP3   OH250226   5.384   4.776   5.956  0.2928  0.2138  0.1045
 9604TIP3    H150227   5.367   4.682   5.952 -0.2693  0.3340 -0.4090
 9604TIP3    H250228   5.479   4.784   5.957  0.3416 -0.3520 -0.0953
 9605TIP3   OH250229   4.976   1.656   0.429  0.0719 -0.1799 -0.5114
 9605TIP3    H150230   4.943   1.708   0.502 -1.0792 -0.3113 -0.9249
 9605TIP3    H250231   5.008   1.720   0.366  1.3358 -0.0757  0.2323
 9606TIP3   OH250232   5.147   4.477   3.849  0.2699 -0.4419  0.0912
 9606TIP3    H150233   5.206   4.553   3.847  0.0486 -0.2547  0.5727
 9606TIP3    H250234   5.068   4.509   3.892 -0.7192 -0.3261 -1.7430
 9607TIP3   OH250235   2.375   4.926  11.629 -0.3986 -0.6616 -0.3384
 9607TIP3    H150236   2.391   4.832  11.637  1.0533 -0.3650  0.4415
 9607TIP3    H250237   2.460   4.966  11.648 -1.2498  0.8462  0.3639
 9608TIP3   OH250238   0.483   2.408   3.020  0.0598 -0.0484 -0.2315
 9608TIP3    H150239   0.481   2.360   2.938 -1.9718  0.2971 -0.4096
 9608TIP3    H250240   0.404   2.379   3.066  1.2730 -0.3948  1.6940
 9609TIP3   OH250241   0.692   4.630   4.410  0.0404  0.0452 -0.4175
 9609TIP3    H150242   0.598   4.638   4.430  0.1283  0.2647 -0.0805
 9609TIP3    H250243   0.735   4.674   4.484  0.3626  1.5178 -1.4685
 9610TIP3   OH250244   0.125   0.377   0.838  0.5836 -0.1328 -0.6025
 9610TIP3    H150245   0.063   0.441   0.804  1.0975  0.1001 -1.1290
 9610TIP3    H250246   0.129   0.394   0.932  0.6492  0.5478 -0.7294
 9611TIP3   OH250247   2.822   0.887  11.031  0.0302 -0.3890  0.7142
 9611TIP3    H150248   2.846   0.796  11.049 -0.2238 -0.6745 -0.3680
 9611TIP3    H250249   2.844   0.900  10.939  1.6469  1.1529  1.2925
 9612TIP3   OH250250   5.539   4.852   4.059  0.0749  0.2495  0.1139
 9612TIP3    H150251   5.587   4.909   4.118 -0.4357 -0.3664  1.1419
 9612TIP3    H250252   5.500   4.911   3.995  0.5257  0.9391  0.4710
 9613TIP3   OH250253   3.487   2.272   2.179 -0.5437  0.2891 -0.4018
 9613TIP3    H150254   3.427   2.271   2.253 -1.9695  1.6304 -1.4950
 9613TIP3    H250255   3.554   2.207   2.200 -0.7981  0.8195  2.1422
 9614TIP3   OH250256   3.768   2.832  10.777  0.5733  0.2831 -0.1529
 9614TIP3    H150257   3.842   2.891  10.767  1.5667 -0.9116 -0.0391
 9614TIP3    H250258   3.793   2.775  10.850 -0.3730 -0.2496 -0.2324
 9615TIP3   OH250259   5.015   4.976   2.358 -0.2733  0.4094 -0.3598
 9615TIP3    H150260   5.106   4.961   2.331 -0.4544  0.8010 -1.1894
 9615TIP3    H250261   4.976   5.025   2.286 -0.0338  3.8606  1.7804
 9616TIP3   OH250262   4.088   0.033  10.168  0.5103 -0.1164  0.5673
 9616TIP3    H150263   4.178   0.052  10.141  0.4866 -0.3559  0.3094
 9616TIP3    H250264   4.096  -0.002  10.257  0.4935  1.6754  1.2860
 9617TIP3   OH250265   3.240   1.005  17.162  0.4939  0.1842 -0.2141
 9617TIP3    H150266   3.327   1.038  17.184  0.9799  0.2377 -2.1811
 9617TIP3    H250267   3.255   0.915  17.132 -0.1730  0.0905 -0.2797
 9618TIP3   OH250268   2.312   0.652  12.991 -0.2490 -0.5131  0.2723
 9618TIP3    H150269   2.283   0.710  12.920 -1.3253 -1.3451  0.0169
 9618TIP3    H250270   2.237   0.647  13.050  0.2077 -0.8120  0.8334
 9619TIP3   OH250271   6.028   3.878  15.729 -0.0999  0.3659 -0.6765
 9619TIP3    H150272   6.119   3.850  15.715 -0.1834  0.4414 -1.3850
 9619TIP3    H250273   5.976   3.803  15.700 -0.2352 -0.3886  1.4329
 9620TIP3   OH250274   1.110   4.298   5.989 -0.0423 -0.3434 -0.6162
 9620TIP3    H150275   1.109   4.259   6.076  1.8162 -0.8808 -0.8153
 9620TIP3    H250276   1.030   4.267   5.947 -0.7425 -0.3972  0.7582
 9621TIP3   OH250277   1.786   1.566   1.194  0.4721 -0.2629 -0.6237
 9621TIP3    H150278   1.691   1.558   1.196  0.5800 -1.5087  0.1989
 9621TIP3    H250279   1.808   1.617   1.272  0.5109 -0.4167 -0.5332
 9622TIP3   OH250280   6.065   1.165  13.397  0.0005 -0.4091  0.3508
 9622TIP3    H150281   6.018   1.144  13.316 -0.5702 -0.9430  0.8183
 9622TIP3    H250282   6.144   1.212  13.367 -0.0328 -0.8962 -0.5326
 9623TIP3   OH250283   1.587   5.563   6.468 -0.0243  0.2059 -0.2994
 9623TIP3    H150284   1.501   5.600   6.448  1.4409  4.4353  0.6771
 9623TIP3    H250285   1.641   5.587   6.393  0.7136 -0.9850 -0.1608
 9624TIP3   OH250286   0.196   4.553  14.802  0.0121  0.5782 -0.7513
 9624TIP3    H150287   0.133   4.621  14.779 -0.6481 -0.5207 -2.2386
 9624TIP3    H250288   0.155   4.507  14.876 -0.6366  0.3007 -1.2738
 9625TIP3   OH250289   4.897   4.954  16.298  0.0482 -0.6073  0.3753
 9625TIP3    H150290   4.990   4.939  16.277 -0.0270  0.4024 -0.7626
 9625TIP3    H250291   4.852   4.944  16.214 -0.9143 -1.3310  0.9647
 9626TIP3   OH250292   3.766   3.756  16.679 -0.4723  0.4346  0.0007
 9626TIP3    H150293   3.750   3.762  16.585 -0.7966 -0.6420 -0.0167
 9626TIP3    H250294   3.713   3.683  16.708  1.9246 -1.1629  0.5090
 9627TIP3   OH250295   1.786   3.067   6.738  0.5169  0.1776  0.0312
 9627TIP3    H150296   1.817   3.026   6.657  0.8555 -1.3019  0.8920
 9627TIP3    H250297   1.846   3.141   6.752 -0.8139  1.7216 -2.1536
 9628TIP3   OH250298   5.721   2.735   6.067 -0.4841 -0.2494 -0.3123
 9628TIP3    H150299   5.784   2.799   6.099  0.0996 -1.1790  0.4058
 9628TIP3    H250300   5.768   2.653   6.066 -0.8093 -0.4430 -2.5570
 9629TIP3   OH250301   0.152   5.732  16.298  0.3766 -0.4588 -0.2458
 9629TIP3    H150302   0.197   5.695  16.374 -1.0465  0.6895  1.2077
 9629TIP3    H250303   0.064   5.751  16.330 -0.2761 -0.0364 -2.2268
 9630TIP3   OH250304   0.564   0.408  17.180 -0.1841  0.1956  0.2001
 9630TIP3    H150305   0.619   0.458  17.240 -0.4464  0.4160  0.2585
 9630TIP3    H250306   0.592   0.317  17.193  0.5380  0.3644 -0.1655
 9631TIP3   OH250307   0.359   5.794  13.205 -0.3125 -0.4726 -0.4182
 9631TIP3    H150308   0.324   5.876  13.239  0.1345  0.1385 -1.4088
 9631TIP3    H250309   0.453   5.809  13.198 -0.0637 -1.5314  0.6517
 9632TIP3   OH250310   2.311   1.481  14.496  0.3185  0.5132  0.1947
 9632TIP3    H150311   2.325   1.499  14.403 -0.8485  1.3813  0.1803
 9632TIP3    H250312   2.365   1.404  14.514  2.3614  1.7248 -0.6457
 9633TIP3   OH250313   5.202   5.821   5.290  0.0076 -0.0948 -0.0716
 9633TIP3    H150314   5.234   5.911   5.289 -0.1691 -0.0287 -2.7392
 9633TIP3    H250315   5.225   5.789   5.377 -0.4576  2.7002  1.1516
 9634TIP3   OH250316   4.295   3.076  16.997  0.5285  0.0535 -0.2708
 9634TIP3    H150317   4.339   3.023  17.064  0.1765  0.7389  0.4980
 9634TIP3    H250318   4.348   3.155  16.991  0.2848  0.2001 -0.4649
 9635TIP3   OH250319   0.696   3.053  10.971 -0.5620 -0.4277  0.3019
 9635TIP3    H150320   0.757   2.993  11.014  0.4078  0.6537  0.4717
 9635TIP3    H250321   0.683   3.017  10.884  1.5894  0.1920 -0.2942
 9636TIP3   OH250322   4.717   6.629  11.936  0.5296  0.1611  0.1621
 9636TIP3    H150323   4.700   6.623  11.842  0.5056 -0.1102  0.1838
 9636TIP3    H250324   4.749   6.718  11.949 -1.2867  0.8174  0.1914
 9637TIP3   OH250325   4.478   0.988  15.320  0.4925 -0.5260 -0.0532
 9637TIP3    H150326   4.505   0.936  15.397 -0.3206  0.0097  0.5976
 9637TIP3    H250327   4.540   1.060  15.318  0.2191 -0.2779  0.3835
 9638TIP3   OH250328   3.229   1.940   5.031  0.0160 -0.0114  0.2912
 9638TIP3    H150329   3.323   1.924   5.021 -0.4361 -2.6118 -0.0307
 9638TIP3    H250330   3.193   1.927   4.944 -0.5420  1.9824  0.1992
 9639TIP3   OH250331   3.969   1.248   2.114  0.0685 -0.0345 -0.5345
 9639TIP3    H150332   3.904   1.316   2.101 -0.4294 -0.2477  0.8248
 9639TIP3    H250333   3.962   1.193   2.036 -1.8152 -0.4182 -0.1130
 9640TIP3   OH250334   3.780   4.705  14.763  0.3930 -0.1479 -0.6563
 9640TIP3    H150335   3.852   4.667  14.813 -0.4505  1.5560  1.9573
 9640TIP3    H250336   3.738   4.631  14.720  1.7336 -1.5404  0.4037
 9641TIP3   OH250337   1.943   0.630  16.792 -0.4798  0.0160 -0.5158
 9641TIP3    H150338   2.038   0.617  16.796 -0.1356  2.3302 -0.0507
 9641TIP3    H250339   1.908   0.582  16.866  0.1237 -2.4056 -1.7697
 9642TIP3   OH250340   6.734   6.635  14.429 -0.1496  0.7467 -0.2731
 9642TIP3    H150341   6.658   6.577  14.420  0.7439 -0.4310 -0.3145
 9642TIP3    H250342   6.728   6.669  14.518 -1.4066  1.6231 -0.6825
 9643TIP3   OH250343   4.788   4.418   6.545 -0.2815 -0.0874  0.2510
 9643TIP3    H150344   4.870   4.444   6.502 -0.3793 -2.2734 -1.3717
 9643TIP3    H250345   4.776   4.327   6.518 -2.9302  0.0147  1.0141
 9644TIP3   OH250346   0.752   3.036   2.694 -0.3410 -0.0618 -0.4918
 9644TIP3    H150347   0.663   3.022   2.726 -0.7510 -1.6004 -2.2043
 9644TIP3    H250348   0.792   2.949   2.695  0.7516  0.4175 -0.9137
 9645TIP3   OH250349   3.891   4.979  14.066 -0.0199  0.3544  0.0916
 9645TIP3    H150350   3.803   5.000  14.035  0.5031  1.8456 -0.4425
 9645TIP3    H250351   3.915   4.900  14.018 -0.5724  0.6780 -0.7332
 9646TIP3   OH250352   1.738   1.912   2.488 -0.1132 -0.3092 -0.5313
 9646TIP3    H150353   1.759   1.819   2.495 -0.0560 -0.2215  0.5587
 9646TIP3    H250354   1.723   1.926   2.395  4.3134 -0.4366 -1.3693
 9647TIP3   OH250355   2.865   5.861  13.573  0.2207 -0.0571 -0.7218
 9647TIP3    H150356   2.892   5.776  13.608 -0.0624  0.1468  0.0140
 9647TIP3    H250357   2.886   5.923  13.643 -2.5116  0.0416  0.0684
 9648TIP3   OH250358   5.543   0.616  15.034  0.3561 -0.4506 -0.5925
 9648TIP3    H150359   5.504   0.639  14.950 -1.5603 -0.0038  0.3891
 9648TIP3    H250360   5.627   0.576  15.011  0.0442  0.0247 -2.6898
 9649TIP3   OH250361   3.545   6.573   4.163 -0.7933 -0.1978  0.0209
 9649TIP3    H150362   3.613   6.506   4.157  2.0794  2.3818  1.9529
 9649TIP3    H250363   3.557   6.626   4.084 -1.3579 -0.3969 -0.2027
 9650TIP3   OH250364   0.878   3.601  16.428 -0.2290  0.7892  0.1900
 9650TIP3    H150365   0.953   3.556  16.467 -1.2364 -2.1190 -1.1387
 9650TIP3    H250366   0.811   3.602  16.496  0.0672  1.0180  0.4817
 9651TIP3   OH250367   4.363   4.747  15.129 -0.0203 -0.4145  0.2418
 9651TIP3    H150368   4.286   4.693  15.112 -0.6118  0.8686 -1.1786
 9651TIP3    H250369   4.359   4.766  15.223 -0.6368 -1.5558  0.4519
 9652TIP3   OH250370   3.300   2.697  16.434  0.1410 -0.5729  0.2339
 9652TIP3    H150371   3.238   2.738  16.495  1.1229  1.9773 -0.4307
 9652TIP3    H250372   3.379   2.683  16.486  0.7168  0.8832 -0.2481
 9653TIP3   OH250373   3.460   1.295   5.238 -0.1133  0.2640  0.0362
 9653TIP3    H150374   3.399   1.221   5.239 -0.5125  0.5306 -2.1118
 9653TIP3    H250375   3.487   1.305   5.330 -1.2659 -1.5246  0.6039
 9654TIP3   OH250376   0.157   5.649  11.021 -0.0604 -0.2630 -0.0751
 9654TIP3    H150377   0.192   5.575  11.071  1.0864  0.9919  0.9994
 9654TIP3    H250378   0.165   5.622  10.929  1.6858 -0.8932  0.2489
 9655TIP3   OH250379   6.380   2.898   4.237  0.2123  0.0360  0.0159
 9655TIP3    H150380   6.375   2.802   4.244 -0.3488 -0.0134 -1.0255
 9655TIP3    H250381   6.472   2.916   4.218  0.2105 -0.3278 -0.3393
 9656TIP3   OH250382   6.155   6.150  15.950  0.2965  0.2162  0.0659
 9656TIP3    H150383   6.068   6.130  15.985 -0.0812  0.8187 -0.5040
 9656TIP3    H250384   6.172   6.080  15.887 -1.0267  1.6326 -1.9338
 9657TIP3   OH250385   0.134   1.091   1.705 -0.0120 -0.0096  0.5133
 9657TIP3    H150386   0.132   1.180   1.669  2.9252 -0.6386 -1.3307
 9657TIP3    H250387   0.139   1.034   1.629  2.1758 -1.5683  1.7826
 9658TIP3   OH250388   4.323   1.001   3.154 -0.3393 -0.3254 -0.1522
 9658TIP3    H150389   4.304   1.091   3.180 -0.0559 -0.7861  1.7294
 9658TIP3    H250390   4.321   1.002   3.058 -3.1511  1.0780 -0.1257
 9659TIP3   OH250391   0.498   6.445  17.199 -0.1091 -0.5541  0.6220
 9659TIP3    H150392   0.468   6.536  17.197  2.0143  0.1475 -1.2031
 9659TIP3    H250393   0.428   6.396  17.156  1.2560  1.0779 -3.7328
 9660TIP3   OH250394   1.213   3.925   6.016  0.2295 -0.9905 -0.7244
 9660TIP3    H150395   1.124   3.905   5.985  0.6936 -1.5830 -1.6957
 9660TIP3    H250396   1.261   3.951   5.938  0.1906  2.1027  0.2315
 9661TIP3   OH250397   2.526   4.592   2.285  0.8964  0.2643 -0.9221
 9661TIP3    H150398   2.446   4.616   2.237  0.8376  0.6211 -0.6494
 9661TIP3    H250399   2.535   4.661   2.350 -0.9333 -2.0256  1.8789
 9662TIP3   OH250400   4.147   5.763  14.032 -0.1456  0.3865  0.6559
 9662TIP3    H150401   4.097   5.845  14.033 -1.2109 -0.2502  0.5885
 9662TIP3    H250402   4.226   5.782  14.081 -0.0268  1.6872 -0.0209
 9663TIP3   OH250403   2.610   1.357   4.744 -0.0730  0.0598  0.4938
 9663TIP3    H150404   2.688   1.343   4.691 -0.2711 -1.3968  0.5852
 9663TIP3    H250405   2.540   1.371   4.681  0.0129  0.0677  0.4001
 9664TIP3   OH250406   6.316   1.175   2.620 -0.5624 -0.1635  0.0873
 9664TIP3    H150407   6.273   1.163   2.705 -3.0357  2.5691 -0.7055
 9664TIP3    H250408   6.253   1.142   2.556  0.3967 -0.2172 -0.8485
 9665TIP3   OH250409   3.824   0.792   2.943  0.1966  0.0924  0.3309
 9665TIP3    H150410   3.754   0.752   2.994  0.5857 -1.5998 -0.4526
 9665TIP3    H250411   3.792   0.793   2.853  0.0342  1.9223  0.3798
 9666TIP3   OH250412   3.883   6.448   1.981 -0.3078  0.5014 -0.7391
 9666TIP3    H150413   3.790   6.451   2.004 -0.5894  1.8998 -1.9888
 9666TIP3    H250414   3.924   6.511   2.039 -0.0494 -0.5385  0.2072
 9667TIP3   OH250415   6.676   3.922   0.989  0.1040  0.0003  0.2666
 9667TIP3    H150416   6.679   3.847   0.929 -1.8200  0.5597 -0.5898
 9667TIP3    H250417   6.600   3.973   0.959  0.3972  1.4184  1.8655
 9668TIP3   OH250418   5.194   2.509  13.284  0.2514  0.4431  0.5442
 9668TIP3    H150419   5.103   2.531  13.261  0.1603  1.0859  1.5227
 9668TIP3    H250420   5.198   2.519  13.379  0.6113 -2.2850  0.8638
 9669TIP3   OH250421   5.460   3.467   2.574  0.0293 -0.3365  0.2822
 9669TIP3    H150422   5.404   3.507   2.508 -0.1574  0.3437  0.8540
 9669TIP3    H250423   5.497   3.540   2.623  1.9329 -0.7248 -0.4882
 9670TIP3   OH250424   4.920   4.338   6.000  0.0072 -0.1097  0.1427
 9670TIP3    H150425   4.842   4.377   5.960  0.4492  1.5919  0.9039
 9670TIP3    H250426   4.897   4.328   6.092  0.1606 -0.9680  0.0865
 9671TIP3   OH250427   6.583   3.152   5.710  0.0874 -0.1432  0.5858
 9671TIP3    H150428   6.579   3.061   5.679 -0.8684  0.0387  0.1354
 9671TIP3    H250429   6.673   3.179   5.695  0.4014 -1.0525  0.8097
 9672TIP3   OH250430   5.783   1.613  12.715 -0.1656 -0.0472 -0.0301
 9672TIP3    H150431   5.868   1.645  12.745 -0.5940 -0.5637  1.8084
 9672TIP3    H250432   5.778   1.640  12.623  1.2927  1.3692  0.2846
 9673TIP3   OH250433   5.210   5.734   0.645  0.1943  0.2304  0.3915
 9673TIP3    H150434   5.211   5.640   0.660 -1.9558  0.2377  0.7364
 9673TIP3    H250435   5.157   5.769   0.716 -2.1808  1.2955 -1.8371
 9674TIP3   OH250436   4.241   1.697  14.337 -0.1908  0.7944  0.0846
 9674TIP3    H150437   4.309   1.630  14.333  1.3370  2.3607 -0.2010
 9674TIP3    H250438   4.161   1.647  14.355  0.5481 -1.3332 -2.1986
 9675TIP3   OH250439   4.400   4.522  16.773  0.4045  0.0259 -0.3932
 9675TIP3    H150440   4.382   4.608  16.733 -0.5761 -0.2451 -0.5331
 9675TIP3    H250441   4.322   4.503  16.825  0.5272 -0.8941 -0.5433
 9676TIP3   OH250442   3.169   4.286  16.736 -0.3180  0.4149  0.1319
 9676TIP3    H150443   3.223   4.313  16.811 -1.5810  1.9645  0.5077
 9676TIP3    H250444   3.189   4.350  16.668 -1.7684  1.1212  0.3320
 9677TIP3   OH250445   3.307   0.939  15.377  0.0804 -0.4225 -0.5432
 9677TIP3    H150446   3.248   1.014  15.364  0.7783  0.1401 -0.4798
 9677TIP3    H250447   3.264   0.886  15.445 -0.0535  0.2945 -0.0657
 9678TIP3   OH250448   0.283   6.344  12.043 -0.7466 -0.5312  0.4013
 9678TIP3    H150449   0.198   6.327  12.084 -1.2604  0.9811 -0.0016
 9678TIP3    H250450   0.264   6.408  11.974  1.1528  1.9937  2.1496
 9679TIP3   OH250451   4.658   0.472  11.649  0.6246  0.1105 -0.0793
 9679TIP3    H150452   4.570   0.454  11.682  0.7020 -1.2751 -0.5792
 9679TIP3    H250453   4.646   0.493  11.557  0.8724 -0.7392 -0.3127
 9680TIP3   OH250454   2.276   5.272   3.911  0.3268  0.0020 -0.3252
 9680TIP3    H150455   2.345   5.209   3.891  2.1873  2.4453 -1.8357
 9680TIP3    H250456   2.254   5.256   4.003  1.6821 -1.9238 -0.3096
 9681TIP3   OH250457   4.318   1.375  13.277  0.3337  0.3671  0.1529
 9681TIP3    H150458   4.368   1.456  13.289 -0.2658  0.6735  0.6349
 9681TIP3    H250459   4.226   1.403  13.286 -0.0410  0.1614 -2.4905
 9682TIP3   OH250460   4.593   1.791   2.254 -0.6700 -0.3013  0.2917
 9682TIP3    H150461   4.683   1.774   2.229 -0.7554 -0.6275  0.2021
 9682TIP3    H250462   4.565   1.712   2.301 -0.6371  0.1472  1.0655
 9683TIP3   OH250463   6.480   2.971   4.779  0.6511 -0.7733 -0.1156
 9683TIP3    H150464   6.454   2.883   4.806  1.0884 -1.7956 -2.8673
 9683TIP3    H250465   6.484   2.966   4.684 -1.1034  2.7229 -0.4530
 9684TIP3   OH250466   3.167   1.571  14.252  0.1252 -0.6839 -0.1315
 9684TIP3    H150467   3.132   1.648  14.207  0.6745  0.0759  0.7359
 9684TIP3    H250468   3.197   1.514  14.181  0.9018  0.4663 -0.7441
 9685TIP3   OH250469   0.109   1.955   5.465 -0.1209  0.5182  0.3359
 9685TIP3    H150470   0.046   1.960   5.537 -1.1601  2.1081 -0.6711
 9685TIP3    H250471   0.058   1.923   5.390  0.2681  1.6917 -0.4518
 9686TIP3   OH250472   0.617   3.468   6.602  0.3023 -0.1454 -0.1097
 9686TIP3    H150473   0.584   3.379   6.610  0.7074 -0.3520 -0.6942
 9686TIP3    H250474   0.538   3.522   6.598  0.0363 -0.5679 -0.7097
 9687TIP3   OH250475   0.872   6.492   1.082  0.2613 -0.1127  0.1331
 9687TIP3    H150476   0.836   6.547   1.151  0.7870 -0.4719  0.6960
 9687TIP3    H250477   0.964   6.517   1.076  0.2938 -0.3036 -0.2193
 9688TIP3   OH250478   2.874   4.356  15.220  0.6756 -0.0690 -0.3296
 9688TIP3    H150479   2.952   4.308  15.190  1.0250 -0.3349  0.9864
 9688TIP3    H250480   2.801   4.296  15.204  0.5094  0.7549 -2.9918
 9689TIP3   OH250481   1.476   0.835   4.912  0.0589  0.0792 -0.4124
 9689TIP3    H150482   1.467   0.785   4.831 -1.3433  0.7069 -0.6657
 9689TIP3    H250483   1.385   0.850   4.940  0.5119  1.0723  0.5169
 9690TIP3   OH250484   0.659   4.960  10.959 -0.4569  0.7590  0.5629
 9690TIP3    H150485   0.686   4.868  10.960 -1.4854  0.4588  0.9758
 9690TIP3    H250486   0.603   4.969  10.882  0.0500  1.1586  0.2390
 9691TIP3   OH250487   2.795   5.742  12.593  0.0277 -0.2318  0.2329
 9691TIP3    H150488   2.717   5.723  12.644 -0.3656 -0.8325 -0.5704
 9691TIP3    H250489   2.806   5.665  12.537  1.4510 -0.3461  0.6529
 9692TIP3   OH250490   0.293   0.871  10.586  0.3368  0.3977  0.3869
 9692TIP3    H150491   0.201   0.890  10.604 -0.2026  0.3193 -2.1003
 9692TIP3    H250492   0.296   0.853  10.493  2.5381 -1.7932  0.8360
 9693TIP3   OH250493   6.461   4.023  12.699  0.1124 -0.8047  0.4175
 9693TIP3    H150494   6.381   4.073  12.711  0.5240  0.0976 -0.5837
 9693TIP3    H250495   6.470   3.973  12.780 -0.7345  0.1232  1.0930
 9694TIP3   OH250496   0.048   0.951  14.786  0.1537  0.5531 -0.4622
 9694TIP3    H150497   0.073   0.950  14.878  1.1420 -0.9086 -0.7322
 9694TIP3    H250498   0.030   1.044  14.767  1.5855  1.1046  0.7526
 9695TIP3   OH250499   2.787   3.654  16.489  0.6694 -0.2873  0.0417
 9695TIP3    H150500   2.716   3.609  16.535  1.3570 -1.1843  0.2215
 9695TIP3    H250501   2.742   3.716  16.432 -0.2635 -0.8082  0.1994
 9696TIP3   OH250502   1.370   6.525  14.462  0.4283 -0.0025  0.1362
 9696TIP3    H150503   1.427   6.570  14.399  0.6759  0.4515  0.6673
 9696TIP3    H250504   1.401   6.557  14.547  0.2727 -0.8083  0.4982
 9697TIP3   OH250505   4.065   5.697   2.634  0.1171  0.0790  0.3629
 9697TIP3    H150506   4.140   5.691   2.575  0.5861 -1.2593  1.0687
 9697TIP3    H250507   3.990   5.714   2.577  0.7497  0.0247 -0.4898
 9698TIP3   OH250508   6.473   3.077   3.022  0.3505 -0.4671 -0.2298
 9698TIP3    H150509   6.472   3.037   2.935  1.1820  0.7181 -0.8019
 9698TIP3    H250510   6.562   3.109   3.032 -0.1585  0.7762  0.4178
 9699TIP3   OH250511   3.910   3.918   1.407  0.0294  0.1064  0.7317
 9699TIP3    H150512   3.939   4.000   1.445 -2.1062  1.4787 -0.5031
 9699TIP3    H250513   3.974   3.899   1.339 -0.9036  2.1712 -0.7727
 9700TIP3   OH250514   0.975   6.488   2.049  0.0619 -0.0825 -0.2640
 9700TIP3    H150515   1.012   6.515   2.133 -0.6261 -0.1280  0.0561
 9700TIP3    H250516   1.026   6.411   2.024 -0.2853 -0.5669  0.5166
 9701TIP3   OH250517   2.312   6.128  14.635  0.0688  0.0862 -0.1374
 9701TIP3    H150518   2.324   6.037  14.659  0.8519  0.0781 -0.5589
 9701TIP3    H250519   2.395   6.155  14.596 -0.0916  1.0272  0.1346
 9702TIP3   OH250520   6.667   3.315   5.052  0.0761 -0.2876  0.3925
 9702TIP3    H150521   6.679   3.222   5.035 -0.9459 -0.2944 -0.3378
 9702TIP3    H250522   6.658   3.355   4.965  0.2127  0.4512  0.7077
 9703TIP3   OH250523   3.146   4.645   2.663  0.3567 -0.0594 -0.0949
 9703TIP3    H150524   3.202   4.579   2.705  0.1006  0.8882  1.7734
 9703TIP3    H250525   3.207   4.707   2.624  0.6399  0.7261  1.5515
 9704TIP3   OH250526   3.921   2.483  14.177 -0.1576  0.1249 -0.2278
 9704TIP3    H150527   3.909   2.425  14.252  0.2071 -1.0193 -1.0396
 9704TIP3    H250528   3.873   2.563  14.200 -0.3971 -0.3780  1.0331
 9705TIP3   OH250529   3.273   1.843   1.658  0.2380 -0.4023  0.4667
 9705TIP3    H150530   3.218   1.776   1.616  2.2281 -1.6831 -0.1983
 9705TIP3    H250531   3.354   1.796   1.680  1.6482  1.7959  0.0484
 9706TIP3   OH250532   4.534   2.277  14.590 -0.2306 -0.5199  0.3872
 9706TIP3    H150533   4.505   2.299  14.679 -1.8515 -0.1724 -0.2240
 9706TIP3    H250534   4.572   2.359  14.557  0.5925 -0.7136  0.8340
 9707TIP3   OH250535   5.247   0.647  11.022  0.3291 -0.0098 -0.2413
 9707TIP3    H150536   5.253   0.642  10.927 -1.4476 -2.3397 -0.2597
 9707TIP3    H250537   5.329   0.608  11.053  0.0778 -1.0137 -0.8126
 9708TIP3   OH250538   0.894   1.134  10.936 -0.0427  0.1770 -0.0646
 9708TIP3    H150539   0.826   1.067  10.928 -0.7745  0.6162  2.1036
 9708TIP3    H250540   0.956   1.115  10.865 -1.6587 -1.1106 -1.1643
 9709TIP3   OH250541   1.821   3.842   1.459  0.0085  0.6661 -0.1951
 9709TIP3    H150542   1.757   3.824   1.528  0.1949  1.2590  0.1334
 9709TIP3    H250543   1.806   3.933   1.435  1.0694  0.9666  0.2504
 9710TIP3   OH250544   5.265   5.651   0.376  0.3020  0.3285 -0.3365
 9710TIP3    H150545   5.179   5.635   0.337  0.1338  1.4473 -0.4263
 9710TIP3    H250546   5.250   5.715   0.446  1.0101  0.3031 -0.1475
 9711TIP3   OH250547   5.240   1.291  14.261  0.1422  0.1194 -0.0368
 9711TIP3    H150548   5.164   1.277  14.204 -0.7577  0.5783  1.0395
 9711TIP3    H250549   5.291   1.210  14.254 -0.4162 -0.1777 -0.7870
 9712TIP3   OH250550   1.295   1.483  12.595  0.3843  0.5973 -0.2093
 9712TIP3    H150551   1.278   1.567  12.638  0.6223  0.3536  0.3616
 9712TIP3    H250552   1.389   1.485  12.575  0.9750 -0.6199  2.1904
 9713TIP3   OH250553   6.658   4.867   4.927 -0.1998  0.3796  0.3555
 9713TIP3    H150554   6.570   4.904   4.937  0.0737  1.2789 -0.4447
 9713TIP3    H250555   6.654   4.819   4.844  0.7314  2.4662 -0.9468
 9714TIP3   OH250556   6.252   6.308  15.707 -0.3104  0.2091 -0.0652
 9714TIP3    H150557   6.171   6.305  15.757  0.0954  0.5706  0.6189
 9714TIP3    H250558   6.291   6.221  15.718  0.7434  0.9027  1.8742
 9715TIP3   OH250559   5.756   3.258   4.469  0.4422  0.2400  0.3079
 9715TIP3    H150560   5.709   3.291   4.392  0.6777  1.4276  0.6634
 9715TIP3    H250561   5.721   3.170   4.482  0.1882  0.1360 -0.9849
 9716TIP3   OH250562   4.913   5.048  10.915 -0.9433  0.1320  0.1570
 9716TIP3    H150563   4.824   5.052  10.950 -0.5545 -0.1044  1.2013
 9716TIP3    H250564   4.907   4.989  10.840 -1.7447  0.4311 -0.0129
 9717TIP3   OH250565   5.461   0.893  11.147  0.1055 -0.3803  0.1310
 9717TIP3    H150566   5.442   0.983  11.172 -1.4489 -0.3087 -1.2851
 9717TIP3    H250567   5.376   0.851  11.139  0.6997 -1.2909 -1.7233
 9718TIP3   OH250568   5.277   2.029  15.849  0.0488  0.4042 -0.0539
 9718TIP3    H150569   5.266   1.957  15.911 -1.4370 -0.3761 -1.1928
 9718TIP3    H250570   5.350   2.002  15.794  2.8671  2.1053  2.6931
 9719TIP3   OH250571   5.875   1.039  16.996 -0.4509 -0.0472  0.4824
 9719TIP3    H150572   5.888   0.967  16.934  4.0326 -0.6510  1.9103
 9719TIP3    H250573   5.909   1.116  16.951  0.2824  0.0325  1.1657
 9720TIP3   OH250574   1.974   6.655   0.584 -0.2968  0.3751 -0.0208
 9720TIP3    H150575   1.918   6.729   0.561 -1.2615  0.4461  2.4260
 9720TIP3    H250576   1.914   6.581   0.589 -0.2756  0.5132  2.9622
 9721TIP3   OH250577   1.188   5.753   1.196  0.1347  0.1253  0.1351
 9721TIP3    H150578   1.223   5.682   1.249 -1.1754 -0.7675 -0.1572
 9721TIP3    H250579   1.098   5.763   1.225 -0.0946  0.7652 -0.7579
 9722TIP3   OH250580   0.753   3.693   5.799  0.2956 -0.3010  0.1609
 9722TIP3    H150581   0.723   3.671   5.888  0.5434  1.6241  0.7343
 9722TIP3    H250582   0.682   3.745   5.762  1.4435  1.4106  0.3069
 9723TIP3   OH250583   5.892   4.799  14.206  0.2240 -0.1934  0.3091
 9723TIP3    H150584   5.803   4.833  14.195 -0.4566 -1.4096  1.8598
 9723TIP3    H250585   5.949   4.875  14.197 -1.1184  0.9664  1.4627
 9724TIP3   OH250586   1.120   0.227   4.881  0.2222 -0.4739 -0.1146
 9724TIP3    H150587   1.072   0.222   4.963 -0.0346 -2.4291 -0.3470
 9724TIP3    H250588   1.212   0.229   4.907  0.0933  1.1382  0.2663
 9725TIP3   OH250589   2.794   1.403   4.148 -0.4897  0.2963 -0.0621
 9725TIP3    H150590   2.812   1.374   4.238 -1.1894 -0.0070 -0.0192
 9725TIP3    H250591   2.819   1.496   4.148  1.5364 -0.2187 -0.1411
 9726TIP3   OH250592   1.162   5.542   0.683  0.5652 -0.7726 -0.4335
 9726TIP3    H150593   1.129   5.534   0.594  0.7237 -0.9595 -0.4788
 9726TIP3    H250594   1.194   5.454   0.704  0.0616 -0.8557 -0.0058
 9727TIP3   OH250595   0.173   3.540  13.984  0.1996  0.2009  0.5204
 9727TIP3    H150596   0.200   3.551  14.075 -0.2195 -1.0013  0.8068
 9727TIP3    H250597   0.224   3.466  13.952  2.2339  2.2142 -1.0274
 9728TIP3   OH250598   4.806   6.515   0.017 -0.1670 -0.0494 -0.3191
 9728TIP3    H150599   4.802   6.606   0.045  0.7575 -0.2638  0.5154
 9728TIP3    H250600   4.722   6.478   0.044 -0.1788  0.3166  0.1479
 9729TIP3   OH250601   2.585   2.909   2.913 -0.3845  0.0058  0.1688
 9729TIP3    H150602   2.652   2.972   2.888 -1.4047  0.6772 -0.9446
 9729TIP3    H250603   2.604   2.831   2.861 -1.4597  0.7916 -1.4551
 9730TIP3   OH250604   3.493   3.978   4.819  0.4104 -0.0607  0.2351
 9730TIP3    H150605   3.400   3.998   4.805  0.1248 -0.2839  1.7211
 9730TIP3    H250606   3.510   4.005   4.909  1.5942 -0.7552  0.2342
 9731TIP3   OH250607   2.936   3.798   5.261  0.1721 -0.8623 -0.0159
 9731TIP3    H150608   2.974   3.865   5.318 -0.4222  2.1349 -3.0086
 9731TIP3    H250609   2.855   3.771   5.305  1.5817 -1.3989  2.3619
 9732TIP3   OH250610   2.478   6.115  17.146 -0.3097 -0.6991 -0.0845
 9732TIP3    H150611   2.398   6.062  17.153  0.2040 -1.3413  1.1533
 9732TIP3    H250612   2.449   6.204  17.168 -0.9455 -0.6698 -1.0043
 9733TIP3   OH250613   5.080   3.375  12.321  0.3833 -0.3292 -0.8362
 9733TIP3    H150614   5.152   3.354  12.381  0.4501 -2.1304 -1.5001
 9733TIP3    H250615   5.001   3.368  12.374  0.6650  1.4881 -0.1422
 9734TIP3   OH250616   4.244   3.223  12.073  0.2324 -0.5913  0.1729
 9734TIP3    H150617   4.325   3.239  12.025  0.4060  1.4099  1.0879
 9734TIP3    H250618   4.188   3.296  12.050 -0.5784 -0.9051  1.1171
 9735TIP3   OH250619   4.208   3.130  12.644 -0.7397 -0.6582 -0.4306
 9735TIP3    H150620   4.182   3.118  12.552  0.1210 -1.4307 -0.5771
 9735TIP3    H250621   4.221   3.225  12.652 -1.5880 -0.4965 -0.8944
 9736TIP3   OH250622   5.364   1.260   1.657  0.2549  0.1864  0.3595
 9736TIP3    H150623   5.387   1.334   1.600  1.8353  0.4086  1.2546
 9736TIP3    H250624   5.412   1.186   1.620 -0.0063 -0.0179  0.4376
 9737TIP3   OH250625   2.718   6.164   6.287  0.1360 -0.3696 -0.2063
 9737TIP3    H150626   2.727   6.074   6.318  1.3286 -0.2509 -0.1809
 9737TIP3    H250627   2.642   6.162   6.229  0.2590 -1.4267 -0.3398
 9738TIP3   OH250628   1.801   3.390  14.428  0.3056  0.2530 -0.0097
 9738TIP3    H150629   1.836   3.475  14.405  0.1137  0.3296 -0.0200
 9738TIP3    H250630   1.869   3.327  14.401  1.3549  0.5288  1.8898
 9739TIP3   OH250631   1.758   3.891  11.251 -0.4032 -0.5975  0.4801
 9739TIP3    H150632   1.783   3.854  11.335  0.0995 -1.1013  0.1114
 9739TIP3    H250633   1.726   3.979  11.272  1.8275  0.1398  0.9645
 9740TIP3   OH250634   1.071   4.510  16.245 -0.3832 -0.1811  0.4764
 9740TIP3    H150635   1.038   4.518  16.334 -3.8225  1.7169 -0.8558
 9740TIP3    H250636   1.047   4.593  16.204  2.4371 -0.4382 -1.8336
 9741TIP3   OH250637   2.563   5.102   6.067 -0.4950  0.4696  0.1475
 9741TIP3    H150638   2.612   5.101   6.150  1.1116  1.3584 -0.7688
 9741TIP3    H250639   2.630   5.111   6.000 -1.6811 -1.6151 -1.3648
 9742TIP3   OH250640   1.162   6.275   2.864  0.0378 -0.1033 -0.0652
 9742TIP3    H150641   1.201   6.280   2.951 -0.0765 -2.3433  0.1396
 9742TIP3    H250642   1.177   6.362   2.826  1.0167  0.5621  1.7744
 9743TIP3   OH250643   2.838   4.753   1.617  0.1893  0.0344 -0.0431
 9743TIP3    H150644   2.831   4.665   1.580 -0.1389  0.7951 -1.8662
 9743TIP3    H250645   2.751   4.790   1.608  1.0863  1.7196 -2.4586
 9744TIP3   OH250646   3.363   6.429   3.738  0.3804  0.2685 -0.0326
 9744TIP3    H150647   3.425   6.396   3.673 -1.4913 -0.5970 -1.4396
 9744TIP3    H250648   3.372   6.524   3.733  1.0112  0.1751 -0.8097
 9745TIP3   OH250649   3.714   2.655   1.921 -0.0807  0.4738  0.2034
 9745TIP3    H150650   3.659   2.616   1.989  0.1136 -0.1128  0.0211
 9745TIP3    H250651   3.660   2.654   1.842 -0.6460  1.9885  0.5455
 9746TIP3   OH250652   1.031   6.198   1.428  0.1620  0.2080 -0.1567
 9746TIP3    H150653   1.080   6.192   1.510  0.9835  1.4070 -0.5465
 9746TIP3    H250654   0.948   6.239   1.452 -0.6485 -1.7388  0.4876
 9747TIP3   OH250655   3.250   5.381   5.179  0.1648  0.3949  0.6631
 9747TIP3    H150656   3.175   5.419   5.134  0.6831 -0.7926 -1.2584
 9747TIP3    H250657   3.284   5.453   5.233 -0.3486  1.9511 -1.0196
 9748TIP3   OH250658   0.369   1.142  14.901 -0.2998 -1.4629 -0.7642
 9748TIP3    H150659   0.278   1.171  14.910  0.2021 -0.6163  2.2768
 9748TIP3    H250660   0.379   1.124  14.808 -2.7684  1.1574 -1.6428
 9749TIP3   OH250661   4.388   1.111   0.120  0.9823 -0.2821  0.4153
 9749TIP3    H150662   4.425   1.034   0.078  0.8564  1.0320 -2.1918
 9749TIP3    H250663   4.427   1.185   0.074 -2.3326  1.1773 -0.1876
 9750TIP3   OH250664   0.961   2.105   2.321  0.0641  0.2654  0.3752
 9750TIP3    H150665   0.919   2.187   2.347 -2.5795 -0.4295 -1.5706
 9750TIP3    H250666   1.036   2.133   2.269  0.3113  1.4548  1.3333
 9751TIP3   OH250667   6.172   5.580   4.411 -0.3493 -0.2866 -0.5584
 9751TIP3    H150668   6.186   5.515   4.343 -0.9047  0.4091 -1.3431
 9751TIP3    H250669   6.099   5.633   4.379 -0.0074  0.6166  0.1475
 9752TIP3   OH250670   3.687   4.669  17.154 -0.4847  0.7638  0.2406
 9752TIP3    H150671   3.690   4.585  17.199  0.5960 -0.0245 -1.2837
 9752TIP3    H250672   3.704   4.733  17.223 -0.9333 -0.2753  1.3422
 9753TIP3   OH250673   5.975   3.138   2.447 -0.7227  0.1875 -0.6335
 9753TIP3    H150674   5.896   3.105   2.491  0.3301  0.5123  1.6012
 9753TIP3    H250675   5.988   3.078   2.373 -0.6657 -2.5052  1.4664
 9754TIP3   OH250676   1.448   0.165  12.451  0.1296 -0.4041 -0.3592
 9754TIP3    H150677   1.543   0.182  12.451  0.1546 -0.5286 -1.3834
 9754TIP3    H250678   1.423   0.169  12.359 -0.6411 -1.6425 -0.2134
 9755TIP3   OH250679   4.053   3.320   3.562 -0.2967  0.1609  0.2186
 9755TIP3    H150680   3.996   3.302   3.637 -1.9243  0.3500 -0.9279
 9755TIP3    H250681   4.020   3.403   3.527  1.5636  0.9580  0.3205
 9756TIP3   OH250682   2.112   5.003  15.560 -0.3310  0.3360  0.2946
 9756TIP3    H150683   2.122   4.994  15.465  0.5815  1.9534  0.2132
 9756TIP3    H250684   2.084   5.093  15.573  1.7210  0.8190  1.6772
 9757TIP3   OH250685   1.303   6.131  11.926  0.7108 -0.4985  0.3995
 9757TIP3    H150686   1.306   6.160  11.835  1.3985  0.7947  0.8213
 9757TIP3    H250687   1.290   6.211  11.976 -0.6589 -1.3118  1.3900
 9758TIP3   OH250688   5.240   1.230  15.856  0.0603  0.1507 -0.3391
 9758TIP3    H150689   5.223   1.324  15.858 -2.7750 -0.2561 -2.6189
 9758TIP3    H250690   5.281   1.215  15.771  3.8273 -0.2568  1.4130
 9759TIP3   OH250691   3.304   0.658   3.953  0.6239  0.4543 -0.4290
 9759TIP3    H150692   3.357   0.654   3.874  1.3988  0.9221  0.0623
 9759TIP3    H250693   3.291   0.751   3.969  0.2803  0.3570 -0.1317
 9760TIP3   OH250694   0.366   2.359   4.104 -0.2862  0.2660  0.4328
 9760TIP3    H150695   0.372   2.349   4.199  0.7484 -0.0537  0.3294
 9760TIP3    H250696   0.296   2.299   4.078 -0.3243  0.0861  0.9401
 9761TIP3   OH250697   3.719   6.157   2.871 -0.2355 -0.1968 -0.5051
 9761TIP3    H150698   3.773   6.119   2.802  0.5955  0.1224 -0.0381
 9761TIP3    H250699   3.762   6.132   2.953 -0.0520  1.1524 -0.1703
 9762TIP3   OH250700   2.951   5.368  16.289 -0.0900  0.1532 -0.2457
 9762TIP3    H150701   2.886   5.425  16.329  2.1911  3.2848 -0.8581
 9762TIP3    H250702   2.997   5.329  16.362 -1.7778 -1.1130  0.1795
 9763TIP3   OH250703   0.032   0.351  13.503  0.2338  0.2607  0.0293
 9763TIP3    H150704   0.088   0.428  13.490  1.0037 -0.1426  0.8599
 9763TIP3    H250705   0.023   0.313  13.415 -0.0761  1.2416 -0.3694
 9764TIP3   OH250706   4.538   6.452  16.557  0.3678  0.0509 -0.1990
 9764TIP3    H150707   4.552   6.417  16.645  1.6212  0.2401 -0.3098
 9764TIP3    H250708   4.456   6.412  16.528  1.4465 -2.2948 -0.0774
 9765TIP3   OH250709   1.967   5.342   3.214 -0.2255  0.4462  0.3277
 9765TIP3    H150710   2.018   5.392   3.151 -1.2527  2.0663  0.7427
 9765TIP3    H250711   1.988   5.381   3.299  0.7898 -1.4013  0.9535
 9766TIP3   OH250712   5.951   0.123  14.314 -0.2829  0.2929  0.2461
 9766TIP3    H150713   6.028   0.138  14.369 -1.3296  1.1386  1.5242
 9766TIP3    H250714   5.906   0.207  14.313 -0.3906  0.2200 -1.7671
 9767TIP3   OH250715   0.831   3.651   6.542  0.3787  0.0321  0.1415
 9767TIP3    H150716   0.766   3.586   6.568  0.4137 -0.0517  0.0211
 9767TIP3    H250717   0.784   3.735   6.545  0.3417  0.0048  0.3263
 9768TIP3   OH250718   6.570   1.287  11.567 -0.3732  0.3177 -0.7723
 9768TIP3    H150719   6.523   1.296  11.650 -0.9001 -0.9892 -0.9145
 9768TIP3    H250720   6.610   1.200  11.572 -0.1825  0.3489 -1.7723
 9769TIP3   OH250721   2.288   0.821  15.209  0.5354  0.2860 -0.2858
 9769TIP3    H150722   2.338   0.793  15.286 -2.6805  0.4231  1.9479
 9769TIP3    H250723   2.301   0.751  15.146  0.4445 -1.5485  1.6673
 9770TIP3   OH250724   1.079   2.881   5.441  0.0648  0.3214 -0.1959
 9770TIP3    H150725   1.030   2.828   5.378 -1.1461  1.1131  0.0802
 9770TIP3    H250726   1.067   2.835   5.524  2.8290 -1.5275 -0.7167
 9771TIP3   OH250727   1.333   1.751  12.723  0.3155  0.7543  0.3666
 9771TIP3    H150728   1.390   1.821  12.690 -1.2357  0.9048 -2.1861
 9771TIP3    H250729   1.354   1.744  12.816  0.2472  4.9070  0.8115
 9772TIP3   OH250730   1.562   1.417  11.896  0.6974  0.1871 -0.1356
 9772TIP3    H150731   1.641   1.462  11.867  0.7104 -0.3205 -0.8968
 9772TIP3    H250732   1.592   1.330  11.922  0.3122 -0.1903 -0.9341
 9773TIP3   OH250733   4.908   5.769   5.276 -0.0751  0.4859 -0.4262
 9773TIP3    H150734   5.003   5.770   5.272 -0.0288  0.9762  0.5956
 9773TIP3    H250735   4.884   5.676   5.272  0.5653  0.2093  1.6587
 9774TIP3   OH250736   6.765   2.029  14.011  0.0375 -0.4690  0.1213
 9774TIP3    H150737   6.787   2.093  13.944  1.6680 -1.6664 -0.5150
 9774TIP3    H250738   6.681   1.992  13.983 -0.6713  1.0255  0.2413
 9775TIP3   OH250739   1.020   4.785   4.537 -0.0931 -0.1344 -0.3471
 9775TIP3    H150740   1.058   4.697   4.538 -0.1824 -0.1789 -0.9132
 9775TIP3    H250741   1.088   4.840   4.497  1.1464  0.5990  2.5931
 9776TIP3   OH250742   4.523   2.472  12.156 -0.0118  0.3201  0.1792
 9776TIP3    H150743   4.600   2.416  12.149 -0.8528 -1.0357  1.3917
 9776TIP3    H250744   4.526   2.506  12.246 -0.8501  0.2174  0.2523
 9777TIP3   OH250745   0.089   2.576   0.557 -0.0617  0.6656  0.0924
 9777TIP3    H150746   0.040   2.599   0.478  0.1814 -2.0685 -0.8909
 9777TIP3    H250747   0.023   2.542   0.617 -0.0635  1.5706  0.6097
 9778TIP3   OH250748   0.953   0.491  11.748  0.0998  0.1651  0.4151
 9778TIP3    H150749   0.957   0.395  11.750  2.1032  0.2225  1.1974
 9778TIP3    H250750   0.997   0.515  11.666  1.9332  0.4467  1.4360
 9779TIP3   OH250751   4.198   4.126  13.777  0.8695 -0.3259  0.2274
 9779TIP3    H150752   4.157   4.159  13.697 -1.0822 -0.0476  1.3242
 9779TIP3    H250753   4.158   4.176  13.848  0.9549 -2.0841  1.5713
 9780TIP3   OH250754   1.393   1.651   1.774  0.1262  0.0981 -0.3928
 9780TIP3    H150755   1.307   1.614   1.753 -0.7581  1.2085  1.2044
 9780TIP3    H250756   1.434   1.666   1.689 -0.7900 -1.5227 -1.1456
 9781TIP3   OH250757   2.869   0.296   5.608  0.2608  0.2815 -0.0009
 9781TIP3    H150758   2.801   0.275   5.544  0.1604  0.4066  0.0643
 9781TIP3    H250759   2.913   0.373   5.572  0.1914  0.3636  0.0891
 9782TIP3   OH250760   4.333   5.521   0.367  0.5137 -0.4302  0.0642
 9782TIP3    H150761   4.300   5.433   0.385  1.4951 -0.5750  1.2033
 9782TIP3    H250762   4.369   5.551   0.451  2.2167  0.1646 -0.8598
 9783TIP3   OH250763   0.319   1.002   0.191  0.3657  0.7674 -0.0600
 9783TIP3    H150764   0.372   0.999   0.271  0.5532  0.9794 -0.1767
 9783TIP3    H250765   0.256   1.072   0.207 -0.8127 -0.4385  0.6617
 9784TIP3   OH250766   6.678   0.014   1.493 -0.2129  0.0760 -0.0331
 9784TIP3    H150767   6.670  -0.040   1.571  1.0241  0.6885  0.5448
 9784TIP3    H250768   6.648  -0.042   1.422 -0.6336 -0.7552  0.7869
 9785TIP3   OH250769   1.850   3.473  13.837 -0.4819 -0.4741 -0.1054
 9785TIP3    H150770   1.772   3.466  13.782 -0.4042 -1.0421 -0.1452
 9785TIP3    H250771   1.836   3.553  13.887 -1.0188 -0.4882 -0.2224
 9786TIP3   OH250772   4.281   5.933  15.751  0.4487  0.7466  0.9658
 9786TIP3    H150773   4.354   5.940  15.812  0.6716  1.8926  0.5808
 9786TIP3    H250774   4.312   5.975  15.671 -0.0364 -0.2591  0.2381
 9787TIP3   OH250775   3.751   4.764   0.581  0.6052  0.1304 -0.2254
 9787TIP3    H150776   3.802   4.684   0.570  0.0864 -0.1612 -0.5528
 9787TIP3    H250777   3.814   4.835   0.569  0.9637 -0.2248 -0.4501
 9788TIP3   OH250778   0.330   0.502   3.832  0.1817  1.0477  0.1059
 9788TIP3    H150779   0.277   0.442   3.885 -1.2469  2.5106  0.3944
 9788TIP3    H250780   0.372   0.446   3.767  1.1095 -0.6518  2.0846
 9789TIP3   OH250781   2.150   3.565  15.949 -0.2267  0.0784 -0.2799
 9789TIP3    H150782   2.186   3.516  16.023  0.8504  0.8552 -0.2865
 9789TIP3    H250783   2.167   3.509  15.873  1.0990  0.4739 -0.2995
 9790TIP3   OH250784   5.013   3.944   0.047  0.0073 -0.4038  0.3295
 9790TIP3    H150785   5.026   3.993  -0.034 -0.5643 -0.5726  0.1358
 9790TIP3    H250786   5.095   3.954   0.094  0.2062  0.0178 -0.0990
 9791TIP3   OH250787   5.860   0.648  13.487  0.1170 -0.2011  0.1259
 9791TIP3    H150788   5.794   0.714  13.512 -0.3810 -0.0422 -1.5806
 9791TIP3    H250789   5.921   0.695  13.432 -0.1070 -1.1145 -0.9098
 9792TIP3   OH250790   2.382   0.820  15.730 -0.1641 -0.4042  0.4364
 9792TIP3    H150791   2.387   0.915  15.733 -2.0646 -0.3144  1.0263
 9792TIP3    H250792   2.374   0.793  15.821  1.6920 -1.2391  0.3861
 9793TIP3   OH250793   0.783   1.724  12.851  0.1373  0.1655 -0.2007
 9793TIP3    H150794   0.785   1.632  12.822  0.9430  0.3997 -0.8867
 9793TIP3    H250795   0.763   1.718  12.944 -0.0599 -0.6995 -0.2869
 9794TIP3   OH250796   0.055   0.203   1.617  0.4217  0.1959 -0.2228
 9794TIP3    H150797  -0.000   0.155   1.555 -0.1255  0.5972 -0.0443
 9794TIP3    H250798   0.081   0.138   1.681 -1.1610  0.3521  0.5950
 9795TIP3   OH250799   1.526   5.420  10.732  0.1072 -0.0942  0.1865
 9795TIP3    H150800   1.603   5.364  10.724  0.7656  1.0577 -1.7486
 9795TIP3    H250801   1.505   5.417  10.826  3.2471  0.5379  0.9948
 9796TIP3   OH250802   4.316   5.615  12.622 -0.8662  0.1454  0.4132
 9796TIP3    H150803   4.235   5.567  12.639 -1.1315  0.3705 -0.1946
 9796TIP3    H250804   4.295   5.671  12.547 -0.4901  1.0412  0.9745
 9797TIP3   OH250805   0.531   5.460  13.892 -0.3018  0.0147 -0.1309
 9797TIP3    H150806   0.445   5.477  13.855  0.5485 -0.2429 -2.3300
 9797TIP3    H250807   0.514   5.427  13.980 -2.4682 -0.6771 -0.7801
 9798TIP3   OH250808   1.206   0.368   5.259  0.7108 -0.3729 -0.2748
 9798TIP3    H150809   1.114   0.344   5.263  0.5264  0.1025 -1.6462
 9798TIP3    H250810   1.249   0.292   5.220  1.0947 -1.0914  1.4949
 9799TIP3   OH250811   1.046   2.258  14.878  0.0629 -0.0031  0.5391
 9799TIP3    H150812   0.956   2.234  14.855 -0.3910  2.3154 -0.2622
 9799TIP3    H250813   1.038   2.345  14.919  1.6654 -0.8956  2.8652
 9800TIP3   OH250814   6.638   5.309   0.600  0.3456  0.2406  0.1638
 9800TIP3    H150815   6.713   5.310   0.659  0.4216  1.3933  0.0507
 9800TIP3    H250816   6.562   5.316   0.658  0.2868 -1.3556  0.3110
 9801TIP3   OH250817   1.269   1.214  12.499 -0.1218 -0.1297 -0.0968
 9801TIP3    H150818   1.294   1.294  12.545  0.9777 -0.8708  0.6105
 9801TIP3    H250819   1.190   1.185  12.544 -0.5665  0.5889 -0.4021
 9802TIP3   OH250820   1.605   6.376  13.489 -0.1584 -0.3939  0.1304
 9802TIP3    H150821   1.562   6.381  13.574 -0.3268  1.0270 -0.0346
 9802TIP3    H250822   1.665   6.450  13.488 -0.2901 -0.2923 -1.0607
 9803TIP3   OH250823   6.183   1.597   5.856 -0.4174 -0.0224  0.1420
 9803TIP3    H150824   6.254   1.612   5.918  0.1739 -0.0150 -0.5269
 9803TIP3    H250825   6.109   1.649   5.890  0.5449  1.6687 -0.2784
 9804TIP3   OH250826   1.366   2.364  11.132 -0.0733  0.5494  0.1259
 9804TIP3    H150827   1.294   2.309  11.101  0.2411  0.3459 -0.2489
 9804TIP3    H250828   1.386   2.331  11.220 -0.3440  0.5195  0.1775
 9805TIP3   OH250829   1.725   3.288  14.660 -0.2875  0.2428 -0.2791
 9805TIP3    H150830   1.772   3.326  14.734 -1.5690  0.4388  0.4548
 9805TIP3    H250831   1.764   3.330  14.582  0.4234  0.7325  0.3335
 9806TIP3   OH250832   2.002   0.163  13.100  0.8656  0.2739 -0.0707
 9806TIP3    H150833   1.993   0.068  13.093 -1.9961  0.5400 -0.4800
 9806TIP3    H250834   1.964   0.185  13.185 -0.5195  1.2726 -0.9307
 9807TIP3   OH250835   5.248   3.560  12.649 -0.1266  0.1919 -0.2848
 9807TIP3    H150836   5.270   3.546  12.557 -0.9364 -0.5439 -0.3805
 9807TIP3    H250837   5.307   3.629  12.679  2.0758 -1.5390 -0.5782
 9808TIP3   OH250838   2.610   4.216  16.562 -0.4335 -0.2282 -0.3944
 9808TIP3    H150839   2.683   4.218  16.500  0.1062 -0.9053  0.1976
 9808TIP3    H250840   2.645   4.257  16.641  0.0258 -2.5402  0.6277
 9809TIP3   OH250841   0.893   3.337  12.355 -0.0271  0.0761  0.2348
 9809TIP3    H150842   0.972   3.294  12.389 -0.1685  0.1135  0.6133
 9809TIP3    H250843   0.908   3.430  12.368 -0.0677  0.0922  0.1658
 9810TIP3   OH250844   3.826   5.062   3.410  0.1949 -0.0090 -0.1965
 9810TIP3    H150845   3.878   5.093   3.484  0.2924  0.6059 -0.5122
 9810TIP3    H250846   3.770   4.994   3.446 -2.5646  2.9320  1.3205
 9811TIP3   OH250847   2.081   1.683   5.430 -0.0273 -1.1880 -0.8272
 9811TIP3    H150848   2.117   1.725   5.352 -0.0330 -1.6279 -1.0646
 9811TIP3    H250849   2.157   1.660   5.483 -0.0395 -0.5267 -0.5115
 9812TIP3   OH250850   0.173   4.151  12.172 -0.0473 -0.2120  0.0777
 9812TIP3    H150851   0.082   4.163  12.146 -0.3430 -2.7122 -0.2067
 9812TIP3    H250852   0.222   4.164  12.091 -0.2697 -0.1766 -0.0525
 9813TIP3   OH250853   3.607   0.668  15.387  0.5355  0.7246 -0.5786
 9813TIP3    H150854   3.578   0.753  15.419  0.7732  0.7544 -0.4366
 9813TIP3    H250855   3.629   0.619  15.467  0.1330  0.4323 -0.6419
 9814TIP3   OH250856   0.691   4.369  14.408  0.2719  0.9320 -0.5660
 9814TIP3    H150857   0.745   4.445  14.428  0.0035  0.1253  3.7825
 9814TIP3    H250858   0.748   4.294  14.426 -1.6471  0.0937  2.5297
 9815TIP3   OH250859   5.804   6.775   4.291 -0.6656 -0.1908  0.3994
 9815TIP3    H150860   5.853   6.765   4.373 -1.1164 -1.6130  0.5080
 9815TIP3    H250861   5.841   6.708   4.233 -1.6313 -0.4509  0.0747
 9816TIP3   OH250862   0.021   5.844  13.178  0.0868 -0.7772 -0.4413
 9816TIP3    H150863   0.057   5.886  13.100 -2.3092 -0.5072 -1.4518
 9816TIP3    H250864   0.049   5.752  13.170 -0.0328 -0.7266 -1.5610
 9817TIP3   OH250865   3.243   2.666   3.092  0.4211 -0.3499 -0.1965
 9817TIP3    H150866   3.286   2.582   3.106  0.3607 -0.1669  1.1995
 9817TIP3    H250867   3.153   2.653   3.122 -0.3528 -0.5470 -2.5027
 9818TIP3   OH250868   3.178   2.239   4.356 -0.6380  0.2472 -0.0679
 9818TIP3    H150869   3.180   2.257   4.450  1.0548 -0.4778  0.0610
 9818TIP3    H250870   3.182   2.143   4.350 -1.2811  0.2655 -0.8663
 9819TIP3   OH250871   3.755   4.114   1.577 -0.4172 -0.7304 -0.4101
 9819TIP3    H150872   3.833   4.161   1.550 -3.0781  1.6152 -4.4614
 9819TIP3    H250873   3.756   4.034   1.525 -0.5369 -0.8466 -0.2328
 9820TIP3   OH250874   3.572   1.830  15.770 -0.1647  0.4175 -0.0797
 9820TIP3    H150875   3.585   1.876  15.687  1.3691  0.7630  0.3217
 9820TIP3    H250876   3.632   1.755  15.765  0.5794  0.9269  1.0603
 9821TIP3   OH250877   3.020   3.754   6.853  0.0176 -1.0292  0.3671
 9821TIP3    H150878   3.079   3.801   6.794 -0.5542  0.3047  0.8476
 9821TIP3    H250879   3.074   3.683   6.889  0.9291 -0.6498 -0.2419
 9822TIP3   OH250880   2.838   4.946   0.824  0.8992 -0.1560 -0.4731
 9822TIP3    H150881   2.803   4.879   0.765 -2.7948  3.4224 -2.5106
 9822TIP3    H250882   2.783   4.941   0.902  1.3559 -0.2068 -0.1475
 9823TIP3   OH250883   3.318   4.986  12.019 -0.0440  0.3354 -0.2681
 9823TIP3    H150884   3.372   5.054  12.059  0.2297 -0.0376 -0.0056
 9823TIP3    H250885   3.380   4.930  11.972 -0.3584  0.7676 -1.2168
 9824TIP3   OH250886   0.081   5.107   5.575  0.2439 -0.2912 -0.2857
 9824TIP3    H150887   0.082   5.203   5.576 -1.4218 -0.2610  2.2576
 9824TIP3    H250888   0.068   5.085   5.483  1.4420  1.8831 -1.0237
 9825TIP3   OH250889   0.145   4.081  10.836  0.5690  0.2907  0.6653
 9825TIP3    H150890   0.165   4.155  10.893 -0.2486  3.8793 -3.4131
 9825TIP3    H250891   0.223   4.071  10.781  0.1400 -1.0234  0.2538
 9826TIP3   OH250892   2.792   6.224  14.053 -0.2614  0.6583  0.6289
 9826TIP3    H150893   2.732   6.229  13.979  1.1936  0.5262 -0.5757
 9826TIP3    H250894   2.750   6.163  14.114 -0.1574 -1.4691 -1.3390
 9827TIP3   OH250895   3.423   1.927  17.055  0.5683  0.4111 -0.4539
 9827TIP3    H150896   3.493   1.868  17.028  0.3994 -0.4015  0.8258
 9827TIP3    H250897   3.441   1.945  17.147 -1.2488 -0.2989  0.0667
 9828TIP3   OH250898   2.636   4.324   5.407 -0.0079 -1.0165 -0.0438
 9828TIP3    H150899   2.553   4.372   5.404  0.7531  0.3582  0.0129
 9828TIP3    H250900   2.616   4.244   5.455 -0.8939  0.1644  1.6098
 9829TIP3   OH250901   2.757   4.780   6.411  0.1117  0.6188  0.4655
 9829TIP3    H150902   2.845   4.777   6.374 -0.5188  0.2917 -1.0368
 9829TIP3    H250903   2.767   4.740   6.498  1.1980 -0.5927 -0.1892
 9830TIP3   OH250904   4.021   5.088   4.302 -0.1617  0.3655  0.3047
 9830TIP3    H150905   3.929   5.075   4.280 -0.7065  3.0255  0.8132
 9830TIP3    H250906   4.056   5.137   4.227  0.7367 -0.2964  0.2896
 9831TIP3   OH250907   5.569   5.410   0.092 -0.5735  0.2626  0.0925
 9831TIP3    H150908   5.654   5.449   0.112 -1.1246 -0.3956  4.0541
 9831TIP3    H250909   5.515   5.483   0.062  0.2211  1.4343  1.4575
 9832TIP3   OH250910   0.886   4.708   3.026 -0.2962  0.3614  0.6254
 9832TIP3    H150911   0.934   4.789   3.043 -0.2320  0.5111 -0.2628
 9832TIP3    H250912   0.920   4.646   3.090  0.1812  0.8234  0.8244
 9833TIP3   OH250913   4.945   3.392   0.541  0.0510 -0.0417 -0.3660
 9833TIP3    H150914   4.915   3.316   0.591 -1.3242 -0.2683 -1.5273
 9833TIP3    H250915   4.874   3.456   0.549  1.1630  1.1019  0.5339
 9834TIP3   OH250916   5.806   6.420  14.665  0.4326 -0.0221  0.4732
 9834TIP3    H150917   5.793   6.504  14.619 -1.8763 -0.5203  0.1590
 9834TIP3    H250918   5.778   6.438  14.755  1.9085  0.0913  0.9091
 9835TIP3   OH250919   0.822   4.645   0.996 -0.4375  0.1477  0.0063
 9835TIP3    H150920   0.837   4.642   0.901 -0.9588 -1.8764 -0.0292
 9835TIP3    H250921   0.729   4.624   1.006 -0.7866  1.9891  0.8913
 9836TIP3   OH250922   4.841   2.708   5.452 -0.1420 -0.7670  0.4843
 9836TIP3    H150923   4.862   2.632   5.505  0.4947 -0.4589  0.6874
 9836TIP3    H250924   4.926   2.740   5.422 -0.4893 -0.8552 -0.6008
 9837TIP3   OH250925   2.045   5.835   3.846 -0.0715 -0.4981 -0.3326
 9837TIP3    H150926   2.134   5.818   3.877  0.3865  0.3527 -1.1455
 9837TIP3    H250927   2.015   5.909   3.899  0.3385  0.3024 -1.1991
 9838TIP3   OH250928   6.575   2.158  16.323  0.7197  0.3466  0.6223
 9838TIP3    H150929   6.519   2.204  16.261 -1.1122 -0.3863  1.6962
 9838TIP3    H250930   6.589   2.072  16.284 -1.5736 -0.6143  1.8062
 9839TIP3   OH250931   3.369   6.024  13.963  0.0775 -0.6476 -0.4843
 9839TIP3    H150932   3.427   5.949  13.967 -0.4933 -0.9949  1.6098
 9839TIP3    H250933   3.358   6.052  14.054 -0.3695  1.4694 -1.1501
 9840TIP3   OH250934   5.448   0.749  12.701  0.7713  0.3719  0.1306
 9840TIP3    H150935   5.374   0.793  12.659  1.1617  1.3631  0.4829
 9840TIP3    H250936   5.452   0.663  12.658  0.0932  0.7198 -0.6400
 9841TIP3   OH250937   1.072   3.750   0.065  0.3241  0.2974  0.5063
 9841TIP3    H150938   0.978   3.767   0.070  0.6093  2.0413  0.1376
 9841TIP3    H250939   1.081   3.685  -0.005 -0.4723  1.1603 -0.4053
 9842TIP3   OH250940   2.235   6.500   3.712  0.3223  0.0003 -0.1326
 9842TIP3    H150941   2.278   6.581   3.739 -0.1989  0.6372 -1.1589
 9842TIP3    H250942   2.143   6.524   3.703  0.0618 -0.8743  0.1958
 9843TIP3   OH250943   3.818   4.268   2.343  0.5330  0.1666  0.3992
 9843TIP3    H150944   3.780   4.208   2.407  0.8979  0.7201  1.1401
 9843TIP3    H250945   3.884   4.216   2.298  0.5881 -0.0979  0.7804
 9844TIP3   OH250946   0.064   3.045  11.377  0.8672 -0.5120 -0.4914
 9844TIP3    H150947  -0.026   3.026  11.348  0.0989  1.5336  0.5079
 9844TIP3    H250948   0.057   3.061  11.471  2.3640 -0.7171 -0.3267
 9845TIP3   OH250949   3.574   5.591  15.226  0.9041  0.1280  0.1672
 9845TIP3    H150950   3.562   5.496  15.235  1.9664 -0.2237 -1.8859
 9845TIP3    H250951   3.533   5.613  15.143 -0.0830  1.6400  1.0206
 9846TIP3   OH250952   1.581   5.670   1.235 -0.0731 -0.1045  0.4367
 9846TIP3    H150953   1.619   5.754   1.261  4.2890 -1.1528 -2.0050
 9846TIP3    H250954   1.607   5.610   1.305  2.4543 -0.6657 -0.8864
 9847TIP3   OH250955   6.339   3.692   1.182 -0.2869  0.1537 -0.0810
 9847TIP3    H150956   6.328   3.714   1.089  1.7462  0.5335 -0.2373
 9847TIP3    H250957   6.392   3.762   1.218  1.8428 -1.7481  0.5976
 9848TIP3   OH250958   1.119   0.179   0.477 -0.6522  0.1997 -0.1715
 9848TIP3    H150959   1.131   0.085   0.488 -1.4378  0.2884  1.5716
 9848TIP3    H250960   1.027   0.195   0.497 -0.1285  1.5723  1.2445
 9849TIP3   OH250961   5.410   1.631   4.745 -0.4416 -0.0733  0.3936
 9849TIP3    H150962   5.430   1.663   4.657 -1.0870  1.1366  0.6723
 9849TIP3    H250963   5.492   1.592   4.776  0.0529  0.3455 -0.3786
 9850TIP3   OH250964   6.059   2.645   2.173  0.2804 -0.7955 -0.2646
 9850TIP3    H150965   6.111   2.588   2.230  0.7856 -0.6073 -0.5388
 9850TIP3    H250966   5.976   2.599   2.163  0.6834 -1.4749 -0.4824
 9851TIP3   OH250967   5.639   3.957   0.182  0.0417 -0.1360  0.2996
 9851TIP3    H150968   5.619   3.866   0.206  1.7014 -0.8501 -0.9544
 9851TIP3    H250969   5.655   4.000   0.266  1.0247 -1.4421  0.8031
 9852TIP3   OH250970   3.525   5.651  12.426 -0.1385 -0.3266  0.1370
 9852TIP3    H150971   3.516   5.738  12.387  1.0724  0.9030  2.5131
 9852TIP3    H250972   3.572   5.600  12.360 -1.6054  0.5386 -1.6253
 9853TIP3   OH250973   2.379   2.573   2.538  0.1536  0.1800  0.1669
 9853TIP3    H150974   2.387   2.478   2.548  0.5501  0.2229  0.2686
 9853TIP3    H250975   2.428   2.609   2.612 -0.5614  0.4571  0.5029
 9854TIP3   OH250976   1.308   3.038  14.337 -0.3245 -0.0249 -0.3544
 9854TIP3    H150977   1.271   2.950  14.344 -1.3560  0.2901 -1.5993
 9854TIP3    H250978   1.371   3.032  14.265  0.4415 -0.0283  0.3186
 9855TIP3   OH250979   4.650   6.268  11.771  0.0382  0.3694 -0.4558
 9855TIP3    H150980   4.632   6.261  11.864  0.1392  2.6031 -0.2389
 9855TIP3    H250981   4.605   6.348  11.743 -0.5025 -0.6020 -2.4545
 9856TIP3   OH250982   3.858   0.872  15.447 -0.1434 -0.3812  0.5609
 9856TIP3    H150983   3.801   0.895  15.520 -1.0092 -1.0309  0.0886
 9856TIP3    H250984   3.875   0.779  15.458  1.0757 -0.1323  0.8664
 9857TIP3   OH250985   0.765   6.647  17.182  0.1232  0.1467 -0.2254
 9857TIP3    H150986   0.707   6.628  17.108 -1.5490 -0.6972  1.2592
 9857TIP3    H250987   0.823   6.716  17.150 -1.0322  0.2894 -2.0901
 9858TIP3   OH250988   0.007   4.448  15.449 -0.1414 -0.1607 -0.4655
 9858TIP3    H150989   0.023   4.403  15.366  1.8745 -3.2060  1.4529
 9858TIP3    H250990  -0.064   4.397  15.490 -0.0264  0.3448  0.3661
 9859TIP3   OH250991   3.199   0.353  11.713 -0.4231 -0.5436 -0.1407
 9859TIP3    H150992   3.132   0.393  11.769 -1.1480  0.4173 -1.6318
 9859TIP3    H250993   3.196   0.406  11.633  2.0402 -0.5957 -0.2763
 9860TIP3   OH250994   4.428   6.111   4.167  0.2591 -0.5615  0.0459
 9860TIP3    H150995   4.386   6.033   4.131 -0.9335  0.2550 -0.3679
 9860TIP3    H250996   4.447   6.089   4.258 -0.0420 -1.3331 -0.0780
 9861TIP3   OH250997   5.379   0.417   0.726  0.2526  0.1896 -0.3769
 9861TIP3    H150998   5.350   0.338   0.682 -0.7362  1.2445 -1.6483
 9861TIP3    H250999   5.415   0.471   0.656 -0.2764  1.4040  0.2781
 9862TIP3   OH251000   0.776   3.990   1.720  0.0552 -0.5218  0.1577
 9862TIP3    H151001   0.721   3.929   1.769 -2.5232  2.4834  1.1824
 9862TIP3    H251002   0.852   4.005   1.776 -1.0018 -0.0968  1.4940
 9863TIP3   OH251003   3.906   5.912  10.820 -0.4112 -0.8134  0.2921
 9863TIP3    H151004   3.817   5.943  10.801 -0.5010 -1.7791 -0.9382
 9863TIP3    H251005   3.901   5.881  10.911 -0.7942  0.9859  0.9105
 9864TIP3   OH251006   4.877   5.393   5.972  0.3570 -0.2892  0.3116
 9864TIP3    H151007   4.876   5.485   5.997  1.4956 -0.0833 -0.3973
 9864TIP3    H251008   4.785   5.373   5.951  0.1145  0.6794  0.4449
 9865TIP3   OH251009   5.934   5.263  11.747  0.0659 -0.0026 -0.0685
 9865TIP3    H151010   5.950   5.348  11.788 -1.2229  0.1718  0.1104
 9865TIP3    H251011   5.872   5.282  11.676  1.6146 -0.4406 -1.5513
 9866TIP3   OH251012   0.712   6.246   0.428 -0.3509 -0.5566 -0.1214
 9866TIP3    H151013   0.679   6.264   0.516 -1.4525 -1.5672 -0.3064
 9866TIP3    H251014   0.716   6.332   0.385  0.6537 -0.0059  1.0637
 9867TIP3   OH251015   4.906   4.030   3.522 -0.1233  0.1131  0.2233
 9867TIP3    H151016   4.904   3.934   3.516  1.8547 -0.1477  2.5304
 9867TIP3    H251017   4.827   4.052   3.572 -0.6737 -0.2870 -0.4559
 9868TIP3   OH251018   0.894   4.439   5.184 -0.0352  0.4627  0.6470
 9868TIP3    H151019   0.828   4.443   5.115  1.9190 -2.1622 -1.5000
 9868TIP3    H251020   0.932   4.527   5.187 -1.8984  1.3006  0.1859
 9869TIP3   OH251021   0.682   3.062   0.258  0.0227  0.4604 -0.6152
 9869TIP3    H151022   0.680   3.019   0.172 -0.9145  0.0037 -0.3624
 9869TIP3    H251023   0.591   3.063   0.287  0.1674  1.7675 -0.1935
 9870TIP3   OH251024   1.276   3.551  13.507  0.2818 -0.1307 -0.6979
 9870TIP3    H151025   1.272   3.566  13.412 -2.8324 -0.6762 -0.7097
 9870TIP3    H251026   1.223   3.622  13.544 -0.0382 -0.9872  0.4905
 9871TIP3   OH251027   0.445   2.558  15.948 -0.4241  0.4038  0.5620
 9871TIP3    H151028   0.507   2.522  16.010 -0.1949 -1.1632 -0.5309
 9871TIP3    H251029   0.366   2.575  16.000 -1.0586 -3.1376  0.8805
 9872TIP3   OH251030   0.035   2.176  12.350 -0.3520 -0.2397  0.2831
 9872TIP3    H151031   0.087   2.186  12.430 -0.7510 -2.1478  0.7995
 9872TIP3    H251032  -0.016   2.257  12.345  0.9097  0.6308  1.0462
 9873TIP3   OH251033   1.559   1.490   2.365 -0.5059  0.0654 -0.2159
 9873TIP3    H151034   1.478   1.446   2.339 -0.7765  0.4735 -0.0647
 9873TIP3    H251035   1.533   1.548   2.436 -0.0744  0.1864 -0.1539
 9874TIP3   OH251036   5.331   0.343   0.146 -0.8567 -0.1746 -0.5815
 9874TIP3    H151037   5.345   0.248   0.154 -0.0112  0.0828  1.0203
 9874TIP3    H251038   5.262   0.350   0.080 -1.9871 -1.9725  0.3539
 9875TIP3   OH251039   6.731   4.900  16.862 -0.3667 -0.1973 -0.3058
 9875TIP3    H151040   6.821   4.931  16.875 -1.0347  1.7963 -0.1875
 9875TIP3    H251041   6.728   4.873  16.770  0.7426 -1.7245  0.0736
 9876TIP3   OH251042   5.109   3.643   3.992  0.4623 -0.1908 -0.3629
 9876TIP3    H151043   5.122   3.551   4.016 -1.4115 -0.5719 -0.7599
 9876TIP3    H251044   5.143   3.650   3.903  3.1533  0.1648  0.6437
 9877TIP3   OH251045   0.034   2.208  13.820  0.0084 -0.1771  0.4899
 9877TIP3    H151046   0.128   2.213  13.838  0.3257 -1.8373 -0.5905
 9877TIP3    H251047   0.028   2.214  13.724 -0.8586 -1.5115  0.4512
 9878TIP3   OH251048   2.255   1.748  17.080 -0.3559  0.4585  0.4500
 9878TIP3    H151049   2.238   1.689  17.007 -1.7066  0.5350  0.6839
 9878TIP3    H251050   2.329   1.709  17.126  0.0467  0.0299 -0.5478
 9879TIP3   OH251051   3.010   0.879   0.825  0.2023 -0.7742  0.1649
 9879TIP3    H151052   3.035   0.949   0.885  0.9401 -0.1904 -0.8044
 9879TIP3    H251053   2.965   0.814   0.880  1.9375 -0.8194  1.5490
 9880TIP3   OH251054   2.758   3.634   1.136  0.3869  0.5326 -0.2890
 9880TIP3    H151055   2.801   3.660   1.217  0.6554 -2.1149  0.4753
 9880TIP3    H251056   2.708   3.556   1.159 -1.4593  1.1168 -2.1350
 9881TIP3   OH251057   1.015   1.940   3.821  0.1238 -0.2682  0.1527
 9881TIP3    H151058   1.016   1.932   3.916 -0.1528 -0.1109  0.1700
 9881TIP3    H251059   1.104   1.969   3.798 -0.4353  1.8726  0.5627
 9882TIP3   OH251060   0.174   6.546   5.379  0.4511  0.9546  0.3000
 9882TIP3    H151061   0.237   6.568   5.447  0.4771  1.9260 -0.0348
 9882TIP3    H251062   0.200   6.459   5.349  1.9151  1.5579 -0.1761
 9883TIP3   OH251063   5.120   1.063   1.977 -0.0275 -0.3557  0.2259
 9883TIP3    H151064   5.054   1.120   2.016  0.5624  0.6310 -0.2039
 9883TIP3    H251065   5.095   1.055   1.885 -1.4457 -2.7230  0.7703
 9884TIP3   OH251066   5.703   3.490   2.854 -0.1473 -0.3100  0.2488
 9884TIP3    H151067   5.652   3.412   2.879 -0.5053  0.1273  0.9126
 9884TIP3    H251068   5.733   3.471   2.765 -0.6771 -0.9821  0.2014
 9885TIP3   OH251069   2.744   1.820   2.867  0.7578  0.3718  0.1141
 9885TIP3    H151070   2.694   1.813   2.949  0.9671  0.0012  0.2123
 9885TIP3    H251071   2.805   1.747   2.871 -0.2960 -0.6055 -1.1109
 9886TIP3   OH251072   0.702   5.418   5.257 -0.1567 -0.3960 -0.1077
 9886TIP3    H151073   0.751   5.437   5.176 -0.4534 -2.1505 -0.7287
 9886TIP3    H251074   0.613   5.447   5.238 -0.1377 -0.4483 -0.2877
 9887TIP3   OH251075   0.867   0.098  12.223 -0.3104 -0.3545  0.4423
 9887TIP3    H151076   0.846   0.117  12.132 -0.7933  2.2250  1.0393
 9887TIP3    H251077   0.893   0.006  12.224 -1.2627 -0.6684 -2.1129
 9888TIP3   OH251078   3.487   1.401   0.646  0.1808  0.3139  0.3688
 9888TIP3    H151079   3.430   1.456   0.592  0.6467  0.1640 -0.2887
 9888TIP3    H251080   3.466   1.311   0.620  3.0750  0.3498 -2.3529
 9889TIP3   OH251081   5.930   0.895   2.405 -0.0056  0.2016 -0.2467
 9889TIP3    H151082   5.838   0.872   2.411  0.1312 -0.5866 -1.0924
 9889TIP3    H251083   5.968   0.828   2.349  1.4119 -0.4374  1.4134
 9890TIP3   OH251084   1.778   1.006   0.618  0.7727 -0.1811 -0.5515
 9890TIP3    H151085   1.733   0.953   0.552 -0.4248  0.1056  0.0208
 9890TIP3    H251086   1.796   0.944   0.689 -1.1864  0.2871  0.3850
 9891TIP3   OH251087   0.362   6.736  11.411 -0.5513 -0.0251 -0.4580
 9891TIP3    H151088   0.291   6.715  11.471  0.4034 -0.0168  0.6887
 9891TIP3    H251089   0.331   6.812  11.362 -0.8195  0.7483  0.9090
 9892TIP3   OH251090   5.274   5.013  16.579  0.0080 -0.0207  0.4672
 9892TIP3    H151091   5.238   4.928  16.605  0.3427 -0.2750  0.1183
 9892TIP3    H251092   5.338   4.991  16.511 -1.8644  0.7434 -1.6024
 9893TIP3   OH251093   4.229   4.568   0.980  0.7342  0.8880 -0.5778
 9893TIP3    H151094   4.290   4.607   0.919  0.6310  1.2014 -0.4803
 9893TIP3    H251095   4.150   4.622   0.974  0.7766  1.0146 -0.0568
 9894TIP3   OH251096   6.560   3.946  13.335  0.2175  0.4603  0.3076
 9894TIP3    H151097   6.535   3.854  13.330 -1.3322  0.7016  2.6559
 9894TIP3    H251098   6.636   3.954  13.277 -0.1049 -2.1033 -0.5272
 9895TIP3   OH251099   5.359   0.818  16.101  0.2020  0.2453  0.3745
 9895TIP3    H151100   5.269   0.834  16.074  0.5634  1.0218 -0.3781
 9895TIP3    H251101   5.406   0.897  16.076  1.1991 -0.3668  0.2912
 9896TIP3   OH251102   5.649   0.502  14.747 -0.0348  0.1667 -0.3241
 9896TIP3    H151103   5.694   0.517  14.830  1.0462 -1.2898 -0.6316
 9896TIP3    H251104   5.718   0.508  14.681 -0.4104 -1.3399 -0.8626
 9897TIP3   OH251105   6.267   3.592   0.361  0.4231  0.1802  0.3550
 9897TIP3    H151106   6.274   3.621   0.270 -0.0619  0.1967  0.3180
 9897TIP3    H251107   6.306   3.663   0.412 -0.5132  0.7962  0.2470
 9898TIP3   OH251108   3.572   6.258   0.987  0.0079 -0.3893 -0.3054
 9898TIP3    H151109   3.646   6.317   1.004  1.2813 -1.8665 -0.4860
 9898TIP3    H251110   3.528   6.295   0.911  0.9658  0.1584 -0.6061
 9899TIP3   OH251111   6.100   2.692  15.350  0.1816  0.9347  0.0957
 9899TIP3    H151112   6.178   2.698  15.295  0.0877 -0.8934 -0.2413
 9899TIP3    H251113   6.122   2.629  15.418 -0.6229  1.2489  0.6660
 9900TIP3   OH251114   5.383   0.513  12.199 -0.5016  0.1278  0.0042
 9900TIP3    H151115   5.465   0.562  12.192 -1.0647  0.8175 -2.1185
 9900TIP3    H251116   5.321   0.574  12.237 -0.6911  0.4590 -0.8188
 9901TIP3   OH251117   0.086   1.270   4.480 -0.0453  0.2679  0.2748
 9901TIP3    H151118   0.018   1.205   4.499 -1.3971  1.5335 -0.1476
 9901TIP3    H251119   0.043   1.355   4.496  1.6241  1.0673  0.6247
 9902TIP3   OH251120   5.309   0.887  13.970  0.3294  0.1032  0.3838
 9902TIP3    H151121   5.279   0.857  13.884 -2.9922 -0.2370  1.5718
 9902TIP3    H251122   5.347   0.973  13.954 -0.2234  0.0162 -1.4298
 9903TIP3   OH251123   3.806   6.079  13.808 -0.3173 -0.2571  0.3862
 9903TIP3    H151124   3.738   6.147  13.813 -0.4845 -0.3207 -0.7594
 9903TIP3    H251125   3.883   6.119  13.849 -0.4637  0.5735 -0.1191
 9904TIP3   OH251126   0.753   0.349   3.659  0.1821 -0.4402 -0.1788
 9904TIP3    H151127   0.687   0.343   3.590  1.2230  1.5894 -1.4053
 9904TIP3    H251128   0.806   0.271   3.648 -1.0758 -1.3225 -0.1554
 9905TIP3   OH251129   5.977   4.387   5.355  0.2650  0.3687  0.2025
 9905TIP3    H151130   5.937   4.350   5.277  1.3056  1.2458 -0.7771
 9905TIP3    H251131   6.061   4.342   5.362  0.4443  0.7375  0.4455
 9906TIP3   OH251132   5.832   1.252  12.833 -0.2827  0.8128  0.5768
 9906TIP3    H151133   5.783   1.221  12.909  1.0903 -0.2034  1.0614
 9906TIP3    H251134   5.890   1.320  12.868 -0.5723  1.2612  0.1960
 9907TIP3   OH251135   4.216   1.707   1.893  1.1274  0.1321 -0.0187
 9907TIP3    H151136   4.135   1.672   1.858  1.8018 -0.9006 -0.5486
 9907TIP3    H251137   4.194   1.797   1.917  0.5193  0.7128 -2.5989
 9908TIP3   OH251138   5.602   6.196  15.158  0.1438 -0.0371 -0.3503
 9908TIP3    H151139   5.586   6.191  15.252  0.3973 -2.0594 -0.3882
 9908TIP3    H251140   5.605   6.105  15.129  0.8633  0.5343 -2.1823
 9909TIP3   OH251141   4.799   2.246  14.202 -0.5469 -0.5136  0.2847
 9909TIP3    H151142   4.827   2.329  14.241  1.6928 -1.1447  0.0648
 9909TIP3    H251143   4.735   2.272  14.135  0.2043  1.0373  0.1405
 9910TIP3   OH251144   1.024   5.243   6.134 -0.3622 -0.1111  0.1549
 9910TIP3    H151145   1.046   5.164   6.183 -0.2021  0.6464  1.3181
 9910TIP3    H251146   1.089   5.308   6.163 -0.2185  0.3240 -1.1194
 9911TIP3   OH251147   0.489   5.093  11.701  0.1601 -0.0881  0.1156
 9911TIP3    H151148   0.402   5.118  11.670  0.4769  0.7280 -0.1067
 9911TIP3    H251149   0.494   5.128  11.790  0.1971 -0.2888  0.1940
 9912TIP3   OH251150   5.645   4.637  16.849  0.0055 -0.2934 -0.4338
 9912TIP3    H151151   5.718   4.698  16.848 -1.9947  2.1952 -0.1154
 9912TIP3    H251152   5.666   4.575  16.919  1.5770  0.6662 -0.0379
 9913TIP3   OH251153   1.977   5.449   4.425  0.3269  0.7212 -0.0402
 9913TIP3    H151154   2.004   5.531   4.384 -1.1188  1.2735  0.0586
 9913TIP3    H251155   2.051   5.390   4.414  0.8014  1.5685 -1.4676
 9914TIP3   OH251156   1.140   4.586  13.450  0.3253 -0.0493  0.1696
 9914TIP3    H151157   1.186   4.576  13.366  0.6616 -0.9390  0.4524
 9914TIP3    H251158   1.114   4.497  13.473  2.5241 -0.1719  2.3047
 9915TIP3   OH251159   6.361   5.500  15.340 -0.2525 -0.2151  0.1791
 9915TIP3    H151160   6.437   5.469  15.290 -0.9686  0.9536 -1.6727
 9915TIP3    H251161   6.384   5.589  15.367 -0.6711 -0.1270  0.2503
 9916TIP3   OH251162   1.825   3.282   4.781  0.3528 -0.1222  0.3771
 9916TIP3    H151163   1.857   3.367   4.751 -0.9718 -0.2928 -1.6107
 9916TIP3    H251164   1.901   3.224   4.770  0.1577  0.0073 -1.9376
 9917TIP3   OH251165   1.701   1.695   1.739  0.2730 -0.4029 -0.3617
 9917TIP3    H151166   1.654   1.613   1.753 -0.5480  0.2411  0.7275
 9917TIP3    H251167   1.721   1.727   1.827 -0.1782  0.9862 -0.7475
 9918TIP3   OH251168   6.104   4.888   1.940 -0.3673  0.1014  0.1849
 9918TIP3    H151169   6.170   4.957   1.931 -0.5797  0.3428  0.4502
 9918TIP3    H251170   6.130   4.821   1.877 -1.0430  1.1152 -1.2017
 9919TIP3   OH251171   3.098   0.331  12.254 -0.1033  0.1639 -0.0530
 9919TIP3    H151172   3.072   0.420  12.230  0.3824  0.2619 -0.2210
 9919TIP3    H251173   3.127   0.338  12.345 -1.0826 -0.0335  0.2831
 9920TIP3   OH251174   1.990   2.991   1.907 -0.4453  0.0431 -0.2661
 9920TIP3    H151175   2.000   3.084   1.931 -0.9104  0.2089 -0.7194
 9920TIP3    H251176   2.046   2.945   1.970  1.1673  0.7686 -1.1192
 9921TIP3   OH251177   2.150   0.783   1.630  0.2254 -0.1690 -0.2509
 9921TIP3    H151178   2.170   0.689   1.628  1.5875  0.0978  0.0330
 9921TIP3    H251179   2.119   0.799   1.719  0.0913 -0.3333 -0.2683
 9922TIP3   OH251180   4.814   0.654   4.319  0.3613 -0.3034  0.5031
 9922TIP3    H151181   4.753   0.582   4.337 -0.3571  0.5116  1.3609
 9922TIP3    H251182   4.784   0.725   4.375  0.9955  0.7069 -0.4326
 9923TIP3   OH251183   5.496   5.851   3.035  0.1986  0.2484  0.5826
 9923TIP3    H151184   5.548   5.924   3.000 -0.3786 -0.1545 -1.1116
 9923TIP3    H251185   5.443   5.891   3.104  1.6885  0.9443  1.3490
 9924TIP3   OH251186   4.027   6.621  13.418 -0.0228 -0.4145 -0.7830
 9924TIP3    H151187   4.039   6.541  13.368 -1.4203  0.1632 -2.1227
 9924TIP3    H251188   3.935   6.645  13.401  0.2359  1.1687  0.0009
 9925TIP3   OH251189   0.470   0.884   1.603 -1.0363 -0.1835  0.0866
 9925TIP3    H151190   0.396   0.828   1.623 -0.4146 -1.7198 -1.7472
 9925TIP3    H251191   0.440   0.939   1.530 -0.7298 -0.0897  0.0273
 9926TIP3   OH251192   4.878   4.575   0.265 -0.4307 -0.2361 -0.0388
 9926TIP3    H151193   4.902   4.489   0.300  0.5062  0.4805  1.1383
 9926TIP3    H251194   4.843   4.557   0.178  1.3358 -1.6555 -0.4896
 9927TIP3   OH251195   0.077   1.250   2.605  1.1228 -0.1269  0.4397
 9927TIP3    H151196   0.119   1.173   2.643  1.4506 -1.1022 -1.7683
 9927TIP3    H251197   0.014   1.280   2.671  2.1762 -1.2984  1.9811
 9928TIP3   OH251198   6.529   6.380   1.220 -0.4856 -0.4189  0.6378
 9928TIP3    H151199   6.436   6.404   1.215  0.1647  1.9210 -1.2204
 9928TIP3    H251200   6.547   6.336   1.137  0.0708 -0.9042  1.0098
 9929TIP3   OH251201   4.249   6.680  14.786  0.5473  0.0701  0.0685
 9929TIP3    H151202   4.238   6.652  14.696  0.4125 -0.8277  0.3648
 9929TIP3    H251203   4.295   6.764  14.780 -0.2133  0.4184 -0.8660
 9930TIP3   OH251204   6.460   1.224  13.192  0.3086 -0.3167 -0.0495
 9930TIP3    H151205   6.503   1.278  13.126 -0.3945  0.0033 -0.2519
 9930TIP3    H251206   6.367   1.226  13.168  0.0890 -0.4656  0.7601
 9931TIP3   OH251207   5.024   6.458  15.868  0.0355  0.1210 -0.7706
 9931TIP3    H151208   4.986   6.538  15.831 -0.8136  0.5734  1.0624
 9931TIP3    H251209   5.097   6.438  15.809  0.6019  2.5488 -0.9587
 9932TIP3   OH251210   0.047   6.602  10.806  0.3955 -0.6579  0.7116
 9932TIP3    H151211  -0.047   6.582  10.803 -0.4335  3.0268 -0.7870
 9932TIP3    H251212   0.086   6.537  10.747 -1.5955 -0.4985 -0.8700
 9933TIP3   OH251213   4.803   0.434   1.316  0.0713 -0.0126 -0.2816
 9933TIP3    H151214   4.896   0.434   1.295  0.2762  0.4902  0.6116
 9933TIP3    H251215   4.788   0.348   1.357  0.0208 -0.3122 -0.9162
 9934TIP3   OH251216   0.339   3.646  15.163 -0.1607  0.6219 -0.0828
 9934TIP3    H151217   0.257   3.691  15.181  0.6361  2.4467 -0.8192
 9934TIP3    H251218   0.406   3.715  15.170  1.1904 -0.6311 -0.4209
 9935TIP3   OH251219   6.109   2.832  10.672 -0.1970 -0.6870 -0.1481
 9935TIP3    H151220   6.175   2.823  10.603  0.1456 -0.2086  0.1146
 9935TIP3    H251221   6.138   2.907  10.724 -2.0300  0.7977 -1.2136
 9936TIP3   OH251222   0.860   6.505  12.768 -0.2525 -0.9404 -0.0045
 9936TIP3    H151223   0.813   6.492  12.851  1.7194  2.6860  1.7939
 9936TIP3    H251224   0.931   6.440  12.771  1.3440  0.7981  2.4330
 9937TIP3   OH251225   1.885   5.887   5.808 -0.4874 -0.5235  0.3563
 9937TIP3    H151226   1.955   5.922   5.863  0.4063 -1.8752  0.1015
 9937TIP3    H251227   1.809   5.881   5.866 -0.1393  0.0845  0.8762
 9938TIP3   OH251228   4.485   5.440   1.464 -0.3611  0.2277 -0.1686
 9938TIP3    H151229   4.453   5.361   1.508 -0.9422  0.5720  0.0280
 9938TIP3    H251230   4.417   5.461   1.400 -0.6703  1.1310  0.4511
 9939TIP3   OH251231   1.579   4.718  13.501 -0.3794 -0.6417 -0.1353
 9939TIP3    H151232   1.506   4.730  13.562 -0.2382 -1.9659  0.3140
 9939TIP3    H251233   1.584   4.623  13.488  1.1362 -0.5519 -0.3068
 9940TIP3   OH251234   1.734   5.408   5.371  0.1798  0.0256 -0.1852
 9940TIP3    H151235   1.753   5.315   5.384 -0.8297 -0.2493 -0.6157
 9940TIP3    H251236   1.819   5.451   5.374  0.6076 -0.8632  0.4401
 9941TIP3   OH251237   6.139   3.936   0.529  0.8361 -0.1621  0.1396
 9941TIP3    H151238   6.077   3.998   0.567 -1.0204 -1.9881  0.1658
 9941TIP3    H251239   6.164   3.976   0.446 -1.1804  0.1307 -0.3512
 9942TIP3   OH251240   2.207   2.388   0.197 -0.5299  0.4509 -0.6607
 9942TIP3    H151241   2.155   2.308   0.205 -1.7554  1.3771  1.0021
 9942TIP3    H251242   2.269   2.370   0.126 -2.0848 -1.2413 -1.6149
 9943TIP3   OH251243   2.517   3.384   3.031  0.1354 -0.2440 -0.6947
 9943TIP3    H151244   2.536   3.407   2.940 -0.6728 -1.5906 -1.2128
 9943TIP3    H251245   2.603   3.360   3.067  0.6782  1.5733 -0.6892
 9944TIP3   OH251246   2.988   4.955   6.200  0.1587  0.2377 -0.0290
 9944TIP3    H151247   3.001   4.877   6.254  2.1196 -0.1005 -0.9294
 9944TIP3    H251248   2.938   4.924   6.124  1.3957 -0.2745 -0.6463
 9945TIP3   OH251249   0.710   0.232  13.453  0.4950 -0.2014  0.7511
 9945TIP3    H151250   0.695   0.326  13.460 -0.8764 -0.0995 -2.4425
 9945TIP3    H251251   0.805   0.223  13.447  0.5517  1.2137 -1.0346
 9946TIP3   OH251252   4.609   2.501   1.098  0.2708 -0.2952 -0.5058
 9946TIP3    H151253   4.639   2.592   1.097 -0.0396 -0.1943 -0.8834
 9946TIP3    H251254   4.687   2.450   1.122  0.7327 -0.0361 -1.4469
 9947TIP3   OH251255   2.229   5.029  14.094  0.1315  0.0702 -0.7056
 9947TIP3    H151256   2.276   5.048  14.012 -1.3054  0.2028 -1.5249
 9947TIP3    H251257   2.141   5.008  14.065 -0.4819  0.4774  0.8625
 9948TIP3   OH251258   3.693   6.585   3.422  0.1613  0.5517 -0.4015
 9948TIP3    H151259   3.602   6.609   3.434  0.2417  1.9468 -2.2172
 9948TIP3    H251260   3.709   6.597   3.328  2.5471  1.6499  0.0833
 9949TIP3   OH251261   5.176   5.609  11.780  0.4843 -0.0532  0.2661
 9949TIP3    H151262   5.093   5.564  11.790  0.7007 -0.7229 -0.8951
 9949TIP3    H251263   5.152   5.700  11.761 -0.0400 -0.6282 -2.0144
 9950TIP3   OH251264   5.236   3.496  13.030  0.2460  0.2291 -0.0186
 9950TIP3    H151265   5.332   3.488  13.036  0.2286 -0.0152 -0.0798
 9950TIP3    H251266   5.204   3.447  13.106  0.1013 -1.1529 -0.9638
 9951TIP3   OH251267   0.982   5.868   0.343 -0.1762 -0.5885 -0.9977
 9951TIP3    H151268   1.062   5.911   0.314 -0.0159 -1.3596 -1.7168
 9951TIP3    H251269   1.006   5.823   0.424 -0.5781  1.4208  0.2663
 9952TIP3   OH251270   3.343   2.513  17.175 -0.2584 -0.6391  0.0557
 9952TIP3    H151271   3.369   2.593  17.221 -0.1006 -1.2500  1.0625
 9952TIP3    H251272   3.260   2.535  17.133  0.4262  0.4371 -0.7329
 9953TIP3   OH251273   4.475   6.320   4.777 -0.4289  0.2491  0.0395
 9953TIP3    H151274   4.529   6.394   4.749 -0.5994 -0.3267 -1.8875
 9953TIP3    H251275   4.528   6.275   4.843 -0.0512  1.6908  0.7551
 9954TIP3   OH251276   3.766   6.570  12.830 -0.7178 -0.3887  0.1522
 9954TIP3    H151277   3.689   6.513  12.839 -0.4523 -0.8097 -0.2130
 9954TIP3    H251278   3.835   6.512  12.797 -0.5878  0.2588 -0.7343
 9955TIP3   OH251279   0.618   5.551   6.526  0.4473 -0.6841 -0.7761
 9955TIP3    H151280   0.621   5.646   6.510  0.0273 -0.7157 -1.0506
 9955TIP3    H251281   0.666   5.513   6.453  1.4780 -0.6294 -0.1419
 9956TIP3   OH251282   3.232   2.347  16.467  0.3008  0.1112  0.2279
 9956TIP3    H151283   3.241   2.423  16.525 -0.7704  2.0163 -1.9880
 9956TIP3    H251284   3.313   2.298  16.479 -0.2384 -0.0517  3.9592
 9957TIP3   OH251285   1.839   2.335  15.026  0.1155  0.6089  0.2192
 9957TIP3    H151286   1.882   2.387  14.957 -0.6955 -0.8106 -1.3911
 9957TIP3    H251287   1.746   2.361  15.020 -0.4134 -1.4653 -1.0488
 9958TIP3   OH251288   2.374   6.137  14.244 -0.2648  0.3230  0.0634
 9958TIP3    H151289   2.397   6.205  14.180  2.7915 -0.8293 -0.1533
 9958TIP3    H251290   2.323   6.073  14.194  0.3053  0.4670 -0.7119
 9959TIP3   OH251291   1.754   0.956  12.697 -0.0221 -0.1791 -0.8456
 9959TIP3    H151292   1.692   1.024  12.671  2.1405  1.3990 -1.9989
 9959TIP3    H251293   1.770   0.906  12.617 -0.8558 -1.4728 -0.2231
 9960TIP3   OH251294   5.381   3.577   4.143 -0.3971  0.1087  0.7702
 9960TIP3    H151295   5.453   3.613   4.195 -0.7774  0.1899  1.2457
 9960TIP3    H251296   5.302   3.610   4.186 -0.7073  0.8545 -0.3394
 9961TIP3   OH251297   1.417   1.642  14.656  0.0061  0.5855 -0.0926
 9961TIP3    H151298   1.374   1.718  14.617 -2.1570 -0.8055 -0.4688
 9961TIP3    H251299   1.474   1.609  14.586 -0.6591  0.5931 -0.6411
 9962TIP3   OH251300   2.958   4.713   3.865  0.3873 -0.5441 -0.2123
 9962TIP3    H151301   2.922   4.773   3.931 -0.2373 -0.4902 -0.5978
 9962TIP3    H251302   3.045   4.748   3.847 -0.4615  1.0663 -1.4167
 9963TIP3   OH251303   2.660   2.679  16.707 -0.0974 -0.0091  0.0456
 9963TIP3    H151304   2.711   2.608  16.668 -0.0547  0.6728 -1.1774
 9963TIP3    H251305   2.725   2.739  16.744 -0.0979 -0.1924  0.3415
 9964TIP3   OH251306   4.150   2.328   4.412  0.0375  0.0942  0.3804
 9964TIP3    H151307   4.088   2.400   4.423  0.1193 -0.1136  2.3721
 9964TIP3    H251308   4.209   2.335   4.487  0.7445 -1.3751 -0.0119
 9965TIP3   OH251309   3.516   5.748  13.694  0.2096  0.4013 -0.4878
 9965TIP3    H151310   3.454   5.789  13.634 -2.3555  0.9364  2.4505
 9965TIP3    H251311   3.499   5.789  13.779  1.7193 -2.4438  1.2583
 9966TIP3   OH251312   5.961   2.173  15.169  0.1543  0.5046 -0.5178
 9966TIP3    H151313   5.985   2.092  15.214 -1.4475 -0.3164 -1.0992
 9966TIP3    H251314   5.982   2.243  15.231  0.5266 -0.4284  0.4143
 9967TIP3   OH251315   4.379   3.134  10.558 -0.0386  0.1835 -0.3474
 9967TIP3    H151316   4.324   3.065  10.521 -0.1164  0.8008 -1.4108
 9967TIP3    H251317   4.465   3.121  10.517  0.3212 -0.1238  0.4980
 9968TIP3   OH251318   0.669   3.853   6.476  0.1737  0.0571  0.0922
 9968TIP3    H151319   0.658   3.944   6.504 -2.9804 -0.7419  1.6209
 9968TIP3    H251320   0.586   3.811   6.498  1.3909 -3.0832 -1.0966
 9969TIP3   OH251321   4.574   4.778   3.966  0.2492 -0.5620  0.0370
 9969TIP3    H151322   4.616   4.780   3.879 -1.5656  0.6746 -0.8393
 9969TIP3    H251323   4.623   4.841   4.018  0.3029 -0.0881 -0.5893
 9970TIP3   OH251324   5.252   4.946   1.973 -0.0222  0.1376 -0.0631
 9970TIP3    H151325   5.188   4.999   1.925 -0.2296 -0.3504 -0.3285
 9970TIP3    H251326   5.215   4.938   2.061 -0.6152 -0.6193 -0.3729
 9971TIP3   OH251327   6.570   5.152  13.146  0.3430 -0.2578  0.4379
 9971TIP3    H151328   6.504   5.214  13.116  0.2252 -0.3443  0.5127
 9971TIP3    H251329   6.521   5.088  13.199  0.2023 -1.3465 -0.9843
 9972TIP3   OH251330   6.139   5.113   4.085  0.2752  0.0526  0.7259
 9972TIP3    H151331   6.119   5.019   4.089 -0.7427  0.2681  0.8321
 9972TIP3    H251332   6.055   5.156   4.098  0.7127  0.9875  0.5106
 9973TIP3   OH251333   3.300   1.984   1.142  0.5641  0.0329  0.2078
 9973TIP3    H151334   3.320   1.940   1.224  0.7781 -0.4055 -0.0764
 9973TIP3    H251335   3.363   1.948   1.079  1.3311  1.3863  0.1760
 9974TIP3   OH251336   5.652   1.168  14.417 -0.4799 -0.3220  0.0446
 9974TIP3    H151337   5.589   1.121  14.362 -0.3410  0.0324 -0.4200
 9974TIP3    H251338   5.681   1.241  14.363 -1.9281  1.2794  1.3387
 9975TIP3   OH251339   5.944   2.304  13.125 -0.2494 -0.0755 -0.1324
 9975TIP3    H151340   5.862   2.353  13.129 -1.1079 -1.2006 -2.7224
 9975TIP3    H251341   5.929   2.238  13.058  2.9754  0.0714 -1.0971
 9976TIP3   OH251342   4.160   2.724  12.061 -0.0307 -0.4544  0.4274
 9976TIP3    H151343   4.192   2.635  12.050 -0.7245 -0.6347 -0.1936
 9976TIP3    H251344   4.235   2.773  12.097  1.3318 -0.5731 -2.1561
 9977TIP3   OH251345   0.572   1.904  16.092 -0.4112  0.2510  0.4709
 9977TIP3    H151346   0.589   1.893  15.999  0.1418 -0.2200  0.6237
 9977TIP3    H251347   0.575   1.998  16.107 -0.9806  0.3566 -0.0755
 9978TIP3   OH251348   2.813   5.664   1.926 -0.1210  0.6404  0.1324
 9978TIP3    H151349   2.820   5.611   1.846  0.7192  1.4457 -0.3418
 9978TIP3    H251350   2.873   5.621   1.987  1.2482  1.5520 -0.5485
 9979TIP3   OH251351   2.672   5.054   1.307 -0.0915  1.1248  0.2845
 9979TIP3    H151352   2.592   5.103   1.329 -0.2522  1.2713 -0.5790
 9979TIP3    H251353   2.669   4.977   1.363 -0.6528  1.3186  0.5311
 9980TIP3   OH251354   1.588   1.205  12.663 -0.2074 -0.1421  0.5589
 9980TIP3    H151355   1.677   1.241  12.662 -0.3858  0.2992 -0.9330
 9980TIP3    H251356   1.538   1.264  12.719  0.0880  0.5089  0.1356
 9981TIP3   OH251357   0.186   2.799  16.930  0.4457  0.1932  0.0566
 9981TIP3    H151358   0.151   2.835  17.011  1.5613  0.1523  0.5714
 9981TIP3    H251359   0.111   2.757  16.888 -0.4823  1.5658  0.3014
 9982TIP3   OH251360   4.974   6.267  14.278 -0.4965  0.2673 -0.3577
 9982TIP3    H151361   5.034   6.335  14.308 -0.8387  1.3826 -2.1219
 9982TIP3    H251362   4.891   6.288  14.320 -0.5498  0.8124 -0.7404
 9983TIP3   OH251363   0.303   5.834   0.465 -0.3651  0.1701 -0.7865
 9983TIP3    H151364   0.209   5.836   0.445 -0.4870  1.5091 -0.1357
 9983TIP3    H251365   0.346   5.821   0.381 -1.1790 -1.9707 -0.9240
 9984TIP3   OH251366   4.388   5.165   1.504  0.5594  0.2700 -0.7634
 9984TIP3    H151367   4.329   5.151   1.578  0.6112  1.0083 -0.5826
 9984TIP3    H251368   4.461   5.106   1.520  0.5598  0.4124 -0.2370
 9985TIP3   OH251369   0.255   2.001   4.769 -0.1175 -0.7976 -0.0280
 9985TIP3    H151370   0.251   1.927   4.829 -0.2026 -0.3996  0.4583
 9985TIP3    H251371   0.177   1.993   4.715  0.4941 -1.7543 -0.7961
 9986TIP3   OH251372   0.957   1.930  12.790  0.4605  0.1404 -0.4447
 9986TIP3    H151373   0.896   1.861  12.818 -0.0271  1.6430  2.3383
 9986TIP3    H251374   0.990   1.899  12.705 -1.5396 -2.3636 -0.3879
 9987TIP3   OH251375   1.060   1.660  11.279  0.0119  0.0277 -0.9171
 9987TIP3    H151376   1.063   1.738  11.334 -2.8469  1.4256 -2.6307
 9987TIP3    H251377   1.141   1.663  11.229  0.5594  1.1342  0.0057
 9988TIP3   OH251378   4.857   4.385  11.251  0.1894  0.1684  0.0773
 9988TIP3    H151379   4.901   4.323  11.194 -0.4076 -1.6810  1.5685
 9988TIP3    H251380   4.913   4.391  11.329 -0.8978 -0.2672  0.9125
 9989TIP3   OH251381   6.274   4.358   5.450  0.3948 -0.2667  0.0932
 9989TIP3    H151382   6.255   4.413   5.526  1.2643 -0.3778  0.3977
 9989TIP3    H251383   6.324   4.414   5.391  0.3054 -0.3886 -0.1004
 9990TIP3   OH251384   3.237   4.942  15.935  0.0590  0.1166  0.4834
 9990TIP3    H151385   3.184   4.862  15.936 -0.8090  0.6469 -1.7434
 9990TIP3    H251386   3.196   4.998  16.002 -1.2346 -0.1011 -0.1019
 9991TIP3   OH251387   0.043   5.024  15.459  0.8827 -0.9764 -0.3051
 9991TIP3    H151388  -0.028   4.971  15.496 -1.6824  1.8897 -0.9681
 9991TIP3    H251389   0.082   5.067  15.535 -0.5702  0.3626 -0.3032
 9992TIP3   OH251390   2.354   3.335  14.096  0.4803  0.3855 -0.1283
 9992TIP3    H151391   2.346   3.344  14.002  0.7360 -0.7774 -0.2727
 9992TIP3    H251392   2.275   3.289  14.124  0.6477  0.2489  0.1385
 9993TIP3   OH251393   3.505   2.909  14.679  0.0078 -0.1562  0.5965
 9993TIP3    H151394   3.523   2.869  14.764  1.1577 -1.9421 -0.4574
 9993TIP3    H251395   3.504   2.835  14.617 -1.1380  1.0716 -0.8984
 9994TIP3   OH251396   3.110   0.556  16.281 -0.0608 -0.3918  0.0770
 9994TIP3    H151397   3.099   0.481  16.340  1.2773 -0.6490  0.0269
 9994TIP3    H251398   3.022   0.574  16.248 -0.7213 -0.6547  1.6453
 9995TIP3   OH251399   4.329   3.310   2.109  0.0325 -0.6684 -0.6659
 9995TIP3    H151400   4.410   3.260   2.097  0.2198 -0.5554  0.0645
 9995TIP3    H251401   4.357   3.402   2.110  0.2352 -0.7145  1.9525
 9996TIP3   OH251402   4.688   6.273  12.297  0.2921  0.4907 -0.0135
 9996TIP3    H151403   4.615   6.215  12.323  0.8828 -0.2703 -0.0192
 9996TIP3    H251404   4.648   6.336  12.238 -0.1858 -0.4989 -0.7664
 9997TIP3   OH251405   6.461   0.712   5.741  0.6058 -0.0275 -0.3394
 9997TIP3    H151406   6.537   0.766   5.718  1.6600 -1.6622 -0.7496
 9997TIP3    H251407   6.455   0.719   5.836  0.8454  0.6407 -0.3644
 9998TIP3   OH251408   5.508   2.495  12.655  0.2651 -0.1379 -0.0419
 9998TIP3    H151409   5.420   2.502  12.692 -0.0539  0.1584 -0.8519
 9998TIP3    H251410   5.545   2.416  12.697 -0.2687 -0.0966  0.5159
 9999TIP3   OH251411   4.559   2.564   2.413  0.8747  0.1967 -0.2205
 9999TIP3    H151412   4.602   2.543   2.330  0.8766 -1.4375  0.1740
 9999TIP3    H251413   4.621   2.621   2.458  0.9911  0.8800 -1.2319
10000TIP3   OH251414   1.310   1.867   5.012 -0.3972 -0.2132  0.2996
10000TIP3    H151415   1.371   1.820   4.955 -0.1315  0.4874  0.0024
10000TIP3    H251416   1.331   1.837   5.100  0.8531  0.5470  0.2721
10001TIP3   OH251417   5.842   2.962   5.172  0.3381 -0.1355 -0.4098
10001TIP3    H151418   5.783   2.985   5.100 -0.6440  1.3568  0.8262
10001TIP3    H251419   5.852   3.044   5.221  1.8795 -0.8644  0.5232
10002TIP3   OH251420   5.922   5.750  12.483  0.1796  0.0750  0.5968
10002TIP3    H151421   5.991   5.695  12.520  0.2726 -0.0499  0.2494
10002TIP3    H251422   5.918   5.724  12.391 -0.7953 -0.3864  0.7632
10003TIP3   OH251423   2.810   4.799  13.420  0.3488  0.3898  0.0984
10003TIP3    H151424   2.837   4.714  13.454  1.2249  0.2896 -0.8208
10003TIP3    H251425   2.808   4.856  13.496  1.7003  0.0280  0.4132
10004TIP3   OH251426   6.675   5.676  17.125 -0.1512 -0.0402  0.0544
10004TIP3    H151427   6.706   5.613  17.191  0.5428 -0.7114 -0.8939
10004TIP3    H251428   6.593   5.710  17.161  1.0567  0.8681  2.0691
10005TIP3   OH251429   5.923   6.522  16.832 -0.6404 -0.1214  0.0836
10005TIP3    H151430   5.918   6.602  16.884 -2.0474  0.4460 -0.8856
10005TIP3    H251431   5.975   6.546  16.756  0.7747 -0.7434  0.8327
10006TIP3   OH251432   0.249   3.581  14.283 -0.2280  0.0364  0.0884
10006TIP3    H151433   0.221   3.641  14.352 -1.3366 -0.0419 -0.2880
10006TIP3    H251434   0.264   3.498  14.328  0.2475  0.3122  0.4350
10007TIP3   OH251435   5.985   4.881   4.004 -0.2348  0.1733  0.0053
10007TIP3    H151436   5.948   4.948   3.946 -0.3711 -1.1753 -1.4952
10007TIP3    H251437   5.910   4.829   4.031  0.1807 -0.9094 -0.8762
10008TIP3   OH251438   4.174   3.376  17.046  0.4256 -0.4860  0.0423
10008TIP3    H151439   4.104   3.312  17.031  0.7186 -1.1187  1.3001
10008TIP3    H251440   4.144   3.455  17.001 -0.4765 -1.1566 -0.5539
10009TIP3   OH251441   2.285   1.676  15.195 -0.5658  0.3171 -0.5509
10009TIP3    H151442   2.212   1.730  15.225  0.3239  0.9802  0.4400
10009TIP3    H251443   2.245   1.617  15.131 -1.6072  1.9950 -1.5190
10010TIP3   OH251444   0.850   3.229   1.579  0.3546 -0.3221 -0.0464
10010TIP3    H151445   0.875   3.192   1.495  0.2773 -0.3107 -0.0744
10010TIP3    H251446   0.933   3.254   1.620  0.2929  0.9751 -0.7187
10011TIP3   OH251447   6.126   5.181  13.036 -0.1886 -0.3346  0.1856
10011TIP3    H151448   6.077   5.186  12.954 -0.8603 -0.9365  0.5342
10011TIP3    H251449   6.211   5.219  13.017  0.2490 -1.9853 -1.2422
10012TIP3   OH251450   3.169   6.000   2.557  0.0161  0.4102  0.3908
10012TIP3    H151451   3.080   5.992   2.592 -0.5109  0.1848 -0.9776
10012TIP3    H251452   3.222   5.943   2.612 -1.0230 -0.8817  0.0519
10013TIP3   OH251453   4.470   5.220  14.618  0.1425  0.2873 -0.0682
10013TIP3    H151454   4.430   5.149  14.568  2.1922 -1.0226  0.1139
10013TIP3    H251455   4.503   5.280  14.551  0.1964  0.0587 -0.2482
10014TIP3   OH251456   1.880   3.867   0.388  0.3399  0.1775  0.2606
10014TIP3    H151457   1.920   3.784   0.363  0.5691  0.1620  0.6771
10014TIP3    H251458   1.820   3.887   0.316  0.4891 -0.2080  0.0264
10015TIP3   OH251459   2.534   1.140   3.829  0.4982  0.2730  0.6344
10015TIP3    H151460   2.547   1.075   3.760  1.2414  0.7676  0.3093
10015TIP3    H251461   2.469   1.201   3.793  0.0176 -0.1247  0.8262
10016TIP3   OH251462   2.724   4.609  15.191  0.0542 -0.2767  0.1406
10016TIP3    H151463   2.656   4.571  15.136 -0.2920  0.3375  0.1362
10016TIP3    H251464   2.797   4.547  15.187 -0.5363 -0.9691  0.2065
10017TIP3   OH251465   1.208   3.135  13.626  0.2319 -0.0332  0.3945
10017TIP3    H151466   1.208   3.209  13.566  2.3026 -1.0434 -0.8871
10017TIP3    H251467   1.117   3.128  13.655 -0.0667  2.7017  0.1825
10018TIP3   OH251468   5.936   5.035   1.693 -0.1215 -0.1222 -0.0613
10018TIP3    H151469   5.919   4.942   1.678 -0.7093  0.0983 -0.7560
10018TIP3    H251470   6.032   5.041   1.697 -0.1160 -1.0500  1.9181
10019TIP3   OH251471   4.723   6.634   0.733 -0.1174 -0.6768 -0.4172
10019TIP3    H151472   4.772   6.616   0.813 -0.7371 -3.2758 -0.5433
10019TIP3    H251473   4.708   6.728   0.733 -0.4855 -0.6883  2.7705
10020TIP3   OH251474   0.945   4.383  12.644 -0.4137 -0.0726 -0.1519
10020TIP3    H151475   0.865   4.383  12.592 -0.0639  0.1637 -0.6885
10020TIP3    H251476   0.917   4.410  12.731 -0.8403  0.4881 -0.4582
10021TIP3   OH251477   4.382   3.723   0.238 -0.1069  0.0223  0.4358
10021TIP3    H151478   4.388   3.770   0.322  1.6975  1.0774 -0.2456
10021TIP3    H251479   4.468   3.681   0.228 -0.1618  0.2428 -1.0581
10022TIP3   OH251480   0.434   5.477  14.157 -0.1774 -0.2008 -0.4845
10022TIP3    H151481   0.368   5.537  14.123 -2.5790 -2.4843  0.0133
10022TIP3    H251482   0.511   5.533  14.172 -1.7084  2.3742 -1.7650
10023TIP3   OH251483   5.942   4.387  14.411  0.7196  0.1240  0.5520
10023TIP3    H151484   5.911   4.434  14.489 -1.6146  0.3165 -0.4604
10023TIP3    H251485   6.019   4.437  14.383 -0.4603  2.1315  0.7512
10024TIP3   OH251486   0.067   1.789   1.530  0.0104  0.4880 -0.4116
10024TIP3    H151487   0.149   1.768   1.485 -1.1042 -0.6728 -1.9410
10024TIP3    H251488   0.078   1.752   1.618  1.5587  1.3161 -0.2480
10025TIP3   OH251489   0.654   5.901   0.266  0.0754 -0.5888  0.3453
10025TIP3    H151490   0.567   5.860   0.267 -0.0155 -0.4069  0.1230
10025TIP3    H251491   0.637   5.992   0.241  0.6433 -1.3576 -3.1302
10026TIP3   OH251492   1.558   4.807  16.185 -0.2174  0.2740  0.2409
10026TIP3    H151493   1.638   4.788  16.233 -1.0107 -0.3332  1.3416
10026TIP3    H251494   1.524   4.887  16.227 -0.7048 -0.0383  0.4496
10027TIP3   OH251495   0.644   2.117   1.513  0.1137  0.0617  0.6104
10027TIP3    H151496   0.608   2.201   1.544 -0.1205  0.8030 -1.5876
10027TIP3    H251497   0.723   2.141   1.464 -1.0190 -0.7730 -1.7296
10028TIP3   OH251498   1.485   3.171  13.397  0.0782  0.0752 -0.5332
10028TIP3    H151499   1.569   3.211  13.418  0.4397 -0.4496 -0.9559
10028TIP3    H251500   1.447   3.149  13.482  1.4998 -1.9756 -0.3630
10029TIP3   OH251501   3.985   5.980  15.726  0.2638 -0.2283 -0.5124
10029TIP3    H151502   3.969   6.035  15.803  0.5404 -1.6805  0.5991
10029TIP3    H251503   4.080   5.987  15.713  0.0001  1.3402 -1.7502
10030TIP3   OH251504   4.563   4.135   3.985  0.0721 -0.2219  0.3436
10030TIP3    H151505   4.485   4.189   3.968 -1.0880 -1.7844  0.6519
10030TIP3    H251506   4.556   4.063   3.922  0.8437 -0.7944  0.9120
10031TIP3   OH251507   0.790   3.310  14.625 -0.7449  0.1948  0.4529
10031TIP3    H151508   0.853   3.239  14.636  0.8887  1.8155  1.8109
10031TIP3    H251509   0.723   3.294  14.692 -1.1716 -0.8573 -0.2085
10032TIP3   OH251510   1.994   5.770  10.944 -0.3590 -0.2020  0.0019
10032TIP3    H151511   1.936   5.708  10.901  0.3975 -1.7052  1.0827
10032TIP3    H251512   1.968   5.766  11.037 -2.3215  3.3616 -0.3201
10033TIP3   OH251513   4.854   4.163   2.672 -0.1180  0.2103  0.0013
10033TIP3    H151514   4.917   4.173   2.744  0.4737 -1.0897 -0.3180
10033TIP3    H251515   4.781   4.220   2.697  1.2381  1.8899  0.2891
10034TIP3   OH251516   2.488   4.310   5.035  0.3378  0.0586  0.1681
10034TIP3    H151517   2.572   4.345   5.005  0.9372 -0.3113  1.3929
10034TIP3    H251518   2.505   4.217   5.053 -0.5027 -0.1795 -0.2358
10035TIP3   OH251519   4.604   1.048  14.365  0.2155  0.0647  0.1605
10035TIP3    H151520   4.516   1.047  14.402  0.6929 -0.7303  1.3110
10035TIP3    H251521   4.615   1.138  14.333 -1.4260 -0.1444 -1.0642
10036TIP3   OH251522   3.892   4.748  13.285 -0.2168  0.3299 -0.3074
10036TIP3    H151523   3.948   4.684  13.328 -1.5301 -0.7858 -0.1996
10036TIP3    H251524   3.950   4.821  13.263  1.1960 -0.6686  0.0532
10037TIP3   OH251525   4.903   1.058  14.299  0.0683  0.5825  0.2456
10037TIP3    H151526   4.959   1.079  14.225 -0.3189 -0.2200 -0.2809
10037TIP3    H251527   4.831   1.121  14.293 -1.1746 -0.9322 -1.4288
10038TIP3   OH251528   4.236   0.742  16.512 -0.2052  0.3450  0.1536
10038TIP3    H151529   4.270   0.655  16.493 -0.7730 -0.1837  1.5083
10038TIP3    H251530   4.172   0.758  16.442 -0.8722 -0.7817  0.4795
10039TIP3   OH251531   4.606   4.292   2.781 -0.9510 -0.2463 -0.0370
10039TIP3    H151532   4.639   4.327   2.864 -0.8116  0.3238 -0.3361
10039TIP3    H251533   4.560   4.211   2.806 -0.1166 -0.5647  0.4818
10040TIP3   OH251534   5.997   0.220   2.792 -0.1694  0.2215  0.2964
10040TIP3    H151535   6.078   0.170   2.802  0.0883  0.5491 -0.1313
10040TIP3    H251536   6.024   0.311   2.805 -0.1619  0.4917 -1.4523
10041TIP3   OH251537   6.700   0.210  14.781 -0.6269  0.1429  0.3971
10041TIP3    H151538   6.630   0.204  14.846 -1.0701  1.0920  0.0149
10041TIP3    H251539   6.734   0.299  14.790 -0.3648  0.1215 -0.3421
10042TIP3   OH251540   6.514   0.358  11.163 -0.1298  0.0454  0.1628
10042TIP3    H151541   6.492   0.451  11.170  1.1215  0.2486  1.5936
10042TIP3    H251542   6.493   0.322  11.249  0.0191 -0.8624 -0.1813
10043TIP3   OH251543   5.639   5.218  16.314  0.5046 -0.3284 -0.3556
10043TIP3    H151544   5.601   5.305  16.301  0.0594 -0.1056  2.0979
10043TIP3    H251545   5.686   5.200  16.234 -0.0263  1.8686 -1.1979
10044TIP3   OH251546   3.599   2.155  15.832 -0.2662  0.0765  0.1666
10044TIP3    H151547   3.506   2.137  15.843 -1.0915  3.0849 -1.4985
10044TIP3    H251548   3.621   2.121  15.746  0.3514 -1.1681  0.7971
10045TIP3   OH251549   5.934   4.134   4.173 -0.0477  0.7194  0.0975
10045TIP3    H151550   6.001   4.145   4.240 -0.3909  0.0471  0.5593
10045TIP3    H251551   5.863   4.191   4.201  0.2919  1.3712 -0.3505
10046TIP3   OH251552   4.399   0.024   0.949 -0.3399  0.3419  0.2194
10046TIP3    H151553   4.309   0.001   0.972  0.1304 -1.3301  0.4889
10046TIP3    H251554   4.404   0.119   0.961 -1.4491  0.1505  2.3524
10047TIP3   OH251555   6.033   5.815   3.253 -0.1812  0.0056 -0.1473
10047TIP3    H151556   5.942   5.836   3.271 -0.7241 -1.6006 -0.9431
10047TIP3    H251557   6.081   5.847   3.330 -1.5827 -0.4439  0.9226
10048TIP3   OH251558   3.228   3.315  15.402 -0.2896 -0.3357  0.2056
10048TIP3    H151559   3.198   3.314  15.311 -3.7491  0.3116  1.2610
10048TIP3    H251560   3.259   3.226  15.418  1.5919 -0.1237 -1.9342
10049TIP3   OH251561   6.553   3.962  12.133 -0.1264  0.3987 -0.2975
10049TIP3    H151562   6.583   3.908  12.060  0.4045  0.2200  0.0540
10049TIP3    H251563   6.478   4.010  12.097 -0.1364 -0.0065 -0.8346
10050TIP3   OH251564   4.202   2.804   0.046  0.1272 -0.2347  0.2453
10050TIP3    H151565   4.232   2.797   0.137 -0.9672 -0.7360  0.5760
10050TIP3    H251566   4.282   2.796  -0.006  0.3832 -3.4636  1.0344
10051TIP3   OH251567   0.550   1.177  12.420 -0.1514  0.4424 -0.3406
10051TIP3    H151568   0.556   1.251  12.482 -1.7160 -0.2183  0.6131
10051TIP3    H251569   0.506   1.214  12.343 -2.1326  0.2155  0.6460
10052TIP3   OH251570   5.506   1.512  12.059 -0.0980  0.2149  0.0026
10052TIP3    H151571   5.562   1.576  12.016 -1.3831  0.5282 -1.2607
10052TIP3    H251572   5.559   1.477  12.131  1.2898  1.3051 -0.4745
10053TIP3   OH251573   3.358   2.071   2.896  0.3876  0.2101  0.2050
10053TIP3    H151574   3.263   2.082   2.899  0.3448 -0.5771  2.2394
10053TIP3    H251575   3.371   1.977   2.882  0.8519 -0.1472  2.7633
10054TIP3   OH251576   0.257   6.241  12.503  0.0927  0.0256 -0.4048
10054TIP3    H151577   0.302   6.218  12.421  1.5373  0.2292  0.3147
10054TIP3    H251578   0.308   6.314  12.538 -0.3081 -0.3031  0.8707
10055TIP3   OH251579   2.528   5.235   5.170 -0.2953  0.3969 -0.2283
10055TIP3    H151580   2.522   5.297   5.242 -0.8035  0.5641 -0.4133
10055TIP3    H251581   2.619   5.206   5.171 -0.8577 -1.3764  1.9219
10056TIP3   OH251582   6.728   3.064   5.497  0.2793  0.0371 -0.1919
10056TIP3    H151583   6.731   3.151   5.456  0.0397  0.6235  0.9929
10056TIP3    H251584   6.681   3.010   5.435  1.5485  0.4384 -1.5231
10057TIP3   OH251585   5.594   5.825  15.612 -0.2331  0.3480 -0.2167
10057TIP3    H151586   5.522   5.763  15.624 -0.3067  0.4875  0.0718
10057TIP3    H251587   5.670   5.771  15.593 -0.5443  0.2262 -1.1907
10058TIP3   OH251588   3.054   1.395  12.401  0.1556  0.0737 -0.1121
10058TIP3    H151589   3.094   1.474  12.366 -2.6385  0.8088 -1.7759
10058TIP3    H251590   3.114   1.325  12.376  0.6929  1.2031 -2.0937
10059TIP3   OH251591   6.594   0.439   5.654  0.3486 -0.3384  0.0752
10059TIP3    H151592   6.575   0.484   5.571 -0.5607  0.3010  0.6222
10059TIP3    H251593   6.518   0.457   5.708  1.6024  0.5100  1.5900
10060TIP3   OH251594   3.126   2.423   3.805  0.4206  0.3032 -0.3209
10060TIP3    H151595   3.129   2.487   3.876 -2.5411  1.3525 -1.0555
10060TIP3    H251596   3.083   2.347   3.844  3.1235 -0.9661  0.2972
10061TIP3   OH251597   1.387   6.266   5.231 -0.3878 -0.6309 -0.0312
10061TIP3    H151598   1.360   6.340   5.285  0.5692  0.8066 -1.4676
10061TIP3    H251599   1.438   6.210   5.290 -0.0778  0.4795  0.7636
10062TIP3   OH251600   5.117   3.761   4.237 -0.4392 -0.3737 -0.8053
10062TIP3    H151601   5.100   3.748   4.143  0.1433 -1.9708 -0.7130
10062TIP3    H251602   5.051   3.708   4.281  1.7584 -2.8366 -0.3896
10063TIP3   OH251603   0.397   3.588  13.456 -0.0969  0.0011  0.0164
10063TIP3    H151604   0.397   3.670  13.406  1.4787  0.1946  0.3165
10063TIP3    H251605   0.481   3.547  13.436  0.0372 -0.5172  1.5438
10064TIP3   OH251606   5.588   1.892  16.419 -0.1272  0.2860  0.1897
10064TIP3    H151607   5.536   1.949  16.362  1.3471  0.0204 -1.4984
10064TIP3    H251608   5.526   1.829  16.453 -1.2814  1.2224 -0.1338
10065TIP3   OH251609   2.953   2.020   1.993  0.1375  0.0287 -0.3066
10065TIP3    H151610   2.904   2.017   2.075 -1.7983  0.9300 -1.3962
10065TIP3    H251611   3.034   1.973   2.011 -0.3502  0.0703  2.0655
10066TIP3   OH251612   4.437   5.069   4.335 -0.2848 -0.2372  0.0528
10066TIP3    H151613   4.449   4.984   4.377  1.4456 -0.2474 -0.4224
10066TIP3    H251614   4.478   5.132   4.395 -0.0538  0.0624 -0.4201
10067TIP3   OH251615   2.116   2.231   4.500  0.0937 -0.1076  0.2219
10067TIP3    H151616   2.192   2.195   4.545  0.5120  0.3915 -0.0662
10067TIP3    H251617   2.076   2.157   4.455  0.4675 -0.3553  0.3017
10068TIP3   OH251618   0.861   0.253   4.460  0.2556 -0.0745  0.4128
10068TIP3    H151619   0.845   0.204   4.541 -0.2183  0.0299  0.3855
10068TIP3    H251620   0.956   0.253   4.450  0.4848  1.9174  2.2185
10069TIP3   OH251621   6.574   0.689   2.096 -0.5050 -0.0977 -0.4577
10069TIP3    H151622   6.532   0.664   2.178  1.6985  0.4769  0.8967
10069TIP3    H251623   6.507   0.738   2.048 -1.0489  1.7112  2.0864
10070TIP3   OH251624   2.588   2.443  12.342 -0.2021 -0.0440 -0.1908
10070TIP3    H151625   2.588   2.358  12.298 -0.5715  0.1545 -0.5770
10070TIP3    H251626   2.680   2.461  12.360 -0.1984 -0.9227  0.6559
10071TIP3   OH251627   1.398   1.445   4.725  0.2259 -0.0121  0.1857
10071TIP3    H151628   1.383   1.478   4.813  0.9291  0.2764  0.2007
10071TIP3    H251629   1.317   1.466   4.677  0.1627  0.5698  0.5398
10072TIP3   OH251630   1.490   3.240  12.439  0.3935 -0.5399  0.0327
10072TIP3    H151631   1.557   3.176  12.462 -0.1224 -1.7150 -1.6465
10072TIP3    H251632   1.470   3.222  12.347  1.0137  2.7440 -0.8121
10073TIP3   OH251633   1.278   4.578   0.568  0.4872  0.2750  0.1195
10073TIP3    H151634   1.313   4.531   0.644  1.2439  2.3418  1.0694
10073TIP3    H251635   1.209   4.520   0.534  3.3761 -2.9080 -0.5498
10074TIP3   OH251636   1.671   2.758  15.199  0.2201  0.2841 -0.2340
10074TIP3    H151637   1.592   2.720  15.238  0.6599  1.0579  1.4428
10074TIP3    H251638   1.693   2.832  15.256  2.3691 -0.1524 -0.4585
10075TIP3   OH251639   6.161   1.357  16.755 -0.3768 -0.2449  0.2754
10075TIP3    H151640   6.236   1.370  16.696 -0.3638 -2.9215 -0.3617
10075TIP3    H251641   6.199   1.323  16.836 -0.6729  0.7843  0.8554
10076TIP3   OH251642   3.308   3.372  16.179  0.0161 -0.0151 -0.3907
10076TIP3    H151643   3.281   3.307  16.244 -0.1721 -0.9766 -1.4155
10076TIP3    H251644   3.376   3.424  16.223 -1.3714  0.5160  1.1872
10077TIP3   OH251645   3.511   4.617   5.937 -0.2410 -0.9336  0.4358
10077TIP3    H151646   3.433   4.583   5.981 -0.1675  0.1235  1.3773
10077TIP3    H251647   3.510   4.711   5.953  1.3580 -0.9349  0.6681
10078TIP3   OH251648   4.134   4.202  13.523  0.5512  0.0898 -0.5938
10078TIP3    H151649   4.192   4.186  13.449  1.7964 -2.4036  0.8326
10078TIP3    H251650   4.058   4.246  13.486  2.1870  1.0113 -2.9401
10079TIP3   OH251651   6.107   0.846   1.903  0.2005  0.5183  0.3203
10079TIP3    H151652   6.109   0.935   1.868 -0.7701 -0.5592 -2.6288
10079TIP3    H251653   6.021   0.839   1.946 -0.0466  0.7505 -0.1383
10080TIP3   OH251654   0.052   1.366   1.628 -0.7589 -0.2784  0.1206
10080TIP3    H151655  -0.016   1.414   1.675  1.7012  4.3388 -0.6886
10080TIP3    H251656   0.032   1.382   1.535  0.1089 -0.8767 -0.1752
10081TIP3   OH251657   3.354   5.233  11.763 -0.1469  0.1418 -0.0657
10081TIP3    H151658   3.282   5.240  11.700  0.0205 -1.0508 -0.4069
10081TIP3    H251659   3.324   5.170  11.828  0.4942 -0.1745 -0.0733
10082TIP3   OH251660   5.550   6.339  11.944 -0.6731  0.4761  0.0966
10082TIP3    H151661   5.590   6.255  11.969 -0.0878  1.1305  1.4089
10082TIP3    H251662   5.497   6.318  11.867  1.2623 -0.6426 -0.9804
10083TIP3   OH251663   0.221   3.659  12.004  0.0796 -0.2364  0.9670
10083TIP3    H151664   0.277   3.666  12.082  0.1670  1.9586  0.7283
10083TIP3    H251665   0.205   3.565  11.995  2.4819 -0.7757  1.9184
10084TIP3   OH251666   6.392   5.197   2.123  0.1288 -0.8386 -0.0577
10084TIP3    H151667   6.332   5.127   2.151  0.4197 -0.7892  0.7022
10084TIP3    H251668   6.341   5.277   2.133 -0.4456 -0.9944 -1.6119
10085TIP3   OH251669   3.810   6.373  13.802  0.1264  0.9046  0.4084
10085TIP3    H151670   3.825   6.362  13.896  0.7149  3.2819  0.6265
10085TIP3    H251671   3.898   6.374  13.764  0.0108  2.4612  0.1547
10086TIP3   OH251672   1.994   5.677  15.129  0.4186 -0.5208 -0.1652
10086TIP3    H151673   1.936   5.601  15.126 -2.2773  1.4693 -0.0914
10086TIP3    H251674   2.039   5.669  15.213 -2.1450 -0.4125  1.2557
10087TIP3   OH251675   0.866   3.666  11.245  0.8273 -0.0071 -0.3402
10087TIP3    H151676   0.789   3.668  11.189  1.2792  0.5128 -0.9561
10087TIP3    H251677   0.847   3.727  11.315  0.3695 -0.4512 -0.0788
10088TIP3   OH251678   6.765   2.623   3.853  0.0671 -0.2653 -0.0359
10088TIP3    H151679   6.816   2.673   3.790 -0.2510 -0.5628 -0.5341
10088TIP3    H251680   6.827   2.600   3.922  0.7836 -1.2705 -1.0075
10089TIP3   OH251681   3.342   1.767   1.938  0.5578 -0.0211  0.2490
10089TIP3    H151682   3.333   1.718   2.019  4.2924  1.3667  1.6368
10089TIP3    H251683   3.417   1.726   1.894  2.2060  2.7834  0.2905
10090TIP3   OH251684   1.123   0.481  14.476 -0.0372  0.0883  0.2553
10090TIP3    H151685   1.106   0.549  14.411 -0.1813 -0.5475 -0.3848
10090TIP3    H251686   1.189   0.519  14.534  1.3091  0.0724 -1.2255
10091TIP3   OH251687   6.367   3.395   5.611  0.5276 -0.0969 -0.7534
10091TIP3    H151688   6.462   3.385   5.621  0.8518  1.1270 -2.3692
10091TIP3    H251689   6.356   3.482   5.572 -1.3521  0.3239  0.6295
10092TIP3   OH251690   3.152   3.415   5.785  0.1190  0.2813 -0.3067
10092TIP3    H151691   3.096   3.359   5.839  1.5629 -1.6485 -0.7473
10092TIP3    H251692   3.156   3.498   5.833 -1.3600 -0.2680  0.8097
10093TIP3   OH251693   0.258   3.014   4.485  0.0078  0.0588 -0.5675
10093TIP3    H151694   0.304   3.078   4.430 -1.2713 -0.2395 -1.9957
10093TIP3    H251695   0.273   2.930   4.442 -1.1274 -0.1606 -0.5418
10094TIP3   OH251696   6.371   5.949  17.003 -0.3152  0.8444 -0.6216
10094TIP3    H151697   6.461   5.978  17.016  0.0228 -0.3228 -0.3010
10094TIP3    H251698   6.324   6.028  16.977  0.8586  1.4024 -1.0745
10095TIP3   OH251699   4.310   5.375   4.150 -0.2372  0.1404 -0.0822
10095TIP3    H151700   4.303   5.363   4.245  2.4168  3.3080  0.6109
10095TIP3    H251701   4.399   5.348   4.129 -0.1881  1.2396 -1.3329
10096TIP3   OH251702   3.274   0.689  14.408 -0.0568 -0.3051  0.1177
10096TIP3    H151703   3.330   0.708  14.483  1.1282 -1.2577 -0.5103
10096TIP3    H251704   3.328   0.635  14.351 -1.3174 -0.4863 -0.9241
10097TIP3   OH251705   4.457   3.531  13.218  0.3901 -0.2330 -0.4301
10097TIP3    H151706   4.504   3.613  13.233 -1.8305  0.8280  1.0359
10097TIP3    H251707   4.370   3.557  13.188  0.3569 -2.1229 -2.1240
10098TIP3   OH251708   4.225   5.872   5.099 -0.3748 -1.0193  0.2604
10098TIP3    H151709   4.298   5.813   5.084  1.1641  1.2604 -1.5678
10098TIP3    H251710   4.234   5.900   5.190  0.2777 -1.7280  0.4142
10099TIP3   OH251711   5.122   0.907  15.258 -0.6957  0.3203 -0.7158
10099TIP3    H151712   5.151   0.860  15.336  0.4837 -1.8815 -2.4378
10099TIP3    H251713   5.187   0.976  15.246 -0.8414  0.6203  0.1712
10100TIP3   OH251714   5.232   2.282   5.528  0.0469 -0.7621 -0.5647
10100TIP3    H151715   5.196   2.266   5.615  0.4086  3.6984  0.5219
10100TIP3    H251716   5.251   2.195   5.494 -0.9025 -2.6659  3.4559
10101TIP3   OH251717   5.203   4.816  15.855  0.6080  0.0221  0.6839
10101TIP3    H151718   5.203   4.875  15.780  1.9802  0.7534  1.2296
10101TIP3    H251719   5.112   4.808  15.881  0.2900  0.9661 -0.1374
10102TIP3   OH251720   3.594   2.971   6.255 -0.0464 -0.1713 -0.0260
10102TIP3    H151721   3.648   3.042   6.291 -0.5768  0.2444 -0.0437
10102TIP3    H251722   3.505   3.005   6.259 -0.4696 -1.3845  1.2851
10103TIP3   OH251723   5.850   6.769   2.927 -0.0511  0.2154  0.4443
10103TIP3    H151724   5.856   6.856   2.886 -0.0762  0.4024  0.8306
10103TIP3    H251725   5.783   6.723   2.877 -1.6863  1.2220  1.6628
10104TIP3   OH251726   4.184   5.738  15.913 -0.0223  0.0701 -0.2305
10104TIP3    H151727   4.232   5.797  15.855 -0.1765  1.6619  1.2151
10104TIP3    H251728   4.157   5.793  15.987 -0.3533 -1.7583  1.0638
10105TIP3   OH251729   1.842   4.576   4.024  0.2592  0.7022  0.2436
10105TIP3    H151730   1.861   4.634   4.097  1.8857 -0.7989  1.0438
10105TIP3    H251731   1.841   4.488   4.062  1.8262 -0.1682 -1.6117
10106TIP3   OH251732   1.808   3.312   4.148 -0.0711  0.0825  0.3654
10106TIP3    H151733   1.788   3.406   4.147  1.2858  0.3716 -1.2515
10106TIP3    H251734   1.795   3.284   4.057 -0.2491 -1.2591  0.7973
10107TIP3   OH251735   6.547   1.984   4.208  0.1747 -0.3215 -0.0321
10107TIP3    H151736   6.505   1.898   4.217 -0.6035 -0.0437 -0.8910
10107TIP3    H251737   6.478   2.041   4.175  0.4394  0.8586  1.3772
10108TIP3   OH251738   3.538   4.423  14.200  0.3356 -0.5317  0.3201
10108TIP3    H151739   3.586   4.475  14.264 -2.4023  2.2108  0.2818
10108TIP3    H251740   3.451   4.413  14.238 -0.1605 -2.2517 -1.2125
10109TIP3   OH251741   5.817   2.676  14.438 -0.2506  0.1271 -0.1533
10109TIP3    H151742   5.760   2.716  14.503 -0.2476 -0.6978  0.3751
10109TIP3    H251743   5.884   2.631  14.490  0.0053 -0.1636 -0.7337
10110TIP3   OH251744   6.665   0.188  17.125  0.0199 -0.6165  0.1055
10110TIP3    H151745   6.706   0.232  17.050  1.0090 -0.9652  0.4355
10110TIP3    H251746   6.605   0.125  17.086 -1.0806  0.6970 -0.3792
10111TIP3   OH251747   0.673   4.933   4.006 -0.3896 -0.1354 -0.0458
10111TIP3    H151748   0.611   4.862   4.024 -1.8282  1.2525  0.6673
10111TIP3    H251749   0.651   5.001   4.070  0.7809  1.0499 -0.8714
10112TIP3   OH251750   1.809   2.405  13.994 -0.2911 -0.7031  0.6223
10112TIP3    H151751   1.727   2.446  13.967  1.0474  0.5010 -1.8762
10112TIP3    H251752   1.865   2.479  14.020  1.8168 -0.9076 -2.9751
10113TIP3   OH251753   3.598   1.084   4.702 -0.9279 -0.3959 -0.1250
10113TIP3    H151754   3.561   1.081   4.790  0.0977  0.7873  0.3655
10113TIP3    H251755   3.680   1.036   4.708 -0.6388  0.0707 -0.3379
10114TIP3   OH251756   3.200   1.642   2.875 -0.4831 -0.2779  0.2213
10114TIP3    H151757   3.140   1.655   2.802 -0.5751  0.7329  0.4763
10114TIP3    H251758   3.144   1.632   2.952 -0.3473  0.0748  0.3680
10115TIP3   OH251759   6.480   6.022   0.532 -0.4476  1.2215 -0.3138
10115TIP3    H151760   6.411   5.986   0.587 -0.7387 -0.9364 -2.0276
10115TIP3    H251761   6.435   6.085   0.475 -0.2426  3.0070  1.4228
10116TIP3   OH251762   2.666   0.800  13.354 -0.3812 -0.0328  0.3110
10116TIP3    H151763   2.739   0.740  13.343  0.5583  1.3695 -1.3495
10116TIP3    H251764   2.688   0.851  13.432  0.4734  0.4873 -0.2726
10117TIP3   OH251765   3.357   5.474   6.021  0.2890 -0.2231 -0.1328
10117TIP3    H151766   3.381   5.556   5.978  0.0526  0.0192  0.1927
10117TIP3    H251767   3.334   5.415   5.949  2.2738 -0.6029 -0.4862
10118TIP3   OH251768   1.228   2.827  17.177 -0.2966  0.1654  0.4995
10118TIP3    H151769   1.212   2.892  17.108  0.6232 -0.4613 -0.3246
10118TIP3    H251770   1.158   2.762  17.165  0.4657 -0.4774 -0.5136
10119TIP3   OH251771   0.825   1.403   4.826  0.9307  0.2278  0.2210
10119TIP3    H151772   0.900   1.387   4.883  0.4809 -0.5340  0.6092
10119TIP3    H251773   0.864   1.426   4.741  1.6068  1.9948  0.9968
10120TIP3   OH251774   1.937   1.061   5.652 -0.0566  0.1691  0.3507
10120TIP3    H151775   1.844   1.066   5.629 -0.6894 -2.4561  2.0728
10120TIP3    H251776   1.978   1.133   5.603 -3.1564  2.1420  0.5241
10121TIP3   OH251777   5.418   2.339  12.398  0.3370  0.2580  0.4777
10121TIP3    H151778   5.377   2.372  12.478 -0.6295 -0.5504  0.3280
10121TIP3    H251779   5.391   2.401  12.330  1.7874  1.3745  0.9047
10122TIP3   OH251780   5.109   0.636   0.782 -0.4254 -0.2898  0.8214
10122TIP3    H151781   5.150   0.552   0.803  0.5108 -0.8580 -3.0008
10122TIP3    H251782   5.017   0.614   0.767 -0.2792 -0.5668  0.3095
10123TIP3   OH251783   2.514   5.054   5.464 -0.0164  0.0910  0.0284
10123TIP3    H151784   2.539   5.130   5.518 -1.0272  2.2805 -2.4674
10123TIP3    H251785   2.429   5.079   5.427  0.1136 -1.8498 -1.6530
10124TIP3   OH251786   0.764   6.785   4.302  0.1282  0.9048  0.1171
10124TIP3    H151787   0.850   6.790   4.260 -0.0194  0.2829 -0.2627
10124TIP3    H251788   0.782   6.756   4.391  0.3878  1.6202  0.3012
10125TIP3   OH251789   2.428   0.398  13.799 -0.2307  0.1462 -0.1700
10125TIP3    H151790   2.467   0.479  13.766  2.8149 -0.0546  2.7964
10125TIP3    H251791   2.483   0.328  13.763 -0.3008 -0.3842  0.7475
10126TIP3   OH251792   5.360   1.097   0.551 -0.6669 -0.2586 -0.4152
10126TIP3    H151793   5.414   1.034   0.597 -1.2962 -1.6810 -1.5822
10126TIP3    H251794   5.407   1.114   0.470 -1.2231 -0.3723 -0.7682
10127TIP3   OH251795   4.946   4.582  10.617  0.0370 -0.4086  0.0180
10127TIP3    H151796   4.992   4.544  10.693  0.7259  1.6031  0.6528
10127TIP3    H251797   4.928   4.508  10.560  1.3598 -1.6785  1.2093
10128TIP3   OH251798   1.600   3.249   2.886 -0.2165  0.9251  0.1216
10128TIP3    H151799   1.676   3.223   2.938  0.3533  1.2640 -0.5229
10128TIP3    H251800   1.560   3.166   2.860 -0.3279  0.7508  0.8437
10129TIP3   OH251801   0.061   5.549  15.520 -0.0029 -0.0877  0.0708
10129TIP3    H151802  -0.005   5.583  15.459 -0.3390 -1.2550 -0.2314
10129TIP3    H251803   0.023   5.563  15.607 -0.8348 -1.1328 -0.1225
10130TIP3   OH251804   3.456   0.415  15.639  0.2549  0.4755 -0.1351
10130TIP3    H151805   3.509   0.357  15.585 -0.0692 -0.7631  0.8418
10130TIP3    H251806   3.506   0.496  15.643  0.5160  0.4123 -1.8647
10131TIP3   OH251807   0.879   6.332  14.091 -0.3809  0.3042  0.8044
10131TIP3    H151808   0.791   6.341  14.130 -1.1658 -0.1884 -0.8215
10131TIP3    H251809   0.866   6.271  14.018  1.1831  0.8081  0.1004
10132TIP3   OH251810   5.762   3.477  13.227  0.3254 -0.8790  0.3970
10132TIP3    H151811   5.780   3.571  13.219 -2.2485 -0.4590 -1.0490
10132TIP3    H251812   5.832   3.444  13.282  0.2247  2.2341  2.5085
10133TIP3   OH251813   4.872   5.253   5.001 -0.4438  0.4602  0.4941
10133TIP3    H151814   4.850   5.167   4.967 -2.2125  1.1647 -0.2222
10133TIP3    H251815   4.893   5.305   4.924 -2.5247  1.5201  0.6012
10134TIP3   OH251816   2.862   4.796   2.429 -0.0552  0.3771 -0.0880
10134TIP3    H151817   2.896   4.859   2.365 -0.4520 -0.7591 -1.4268
10134TIP3    H251818   2.803   4.848   2.484 -0.2212  1.2307 -1.0528
10135TIP3   OH251819   2.421   6.281   3.386  0.3034 -0.8158 -0.0593
10135TIP3    H151820   2.421   6.278   3.290 -0.3757 -1.5590 -0.0371
10135TIP3    H251821   2.388   6.196   3.413  1.6198 -1.0500  0.8654
10136TIP3   OH251822   6.136   3.439  11.365 -0.6065 -0.0382 -0.7253
10136TIP3    H151823   6.220   3.414  11.326  0.5352  1.7790  0.4969
10136TIP3    H251824   6.106   3.359  11.409  1.6080 -0.1509  0.7221
10137TIP3   OH251825   6.403   3.719   3.310  0.0767 -0.2081 -0.1739
10137TIP3    H151826   6.352   3.645   3.277 -1.5112  0.6030  0.3984
10137TIP3    H251827   6.460   3.743   3.237 -1.3617 -0.2446 -1.3373
10138TIP3   OH251828   3.477   2.687   0.973  0.3236  0.2135 -0.2351
10138TIP3    H151829   3.437   2.694   1.060 -1.2391  0.1295 -0.9364
10138TIP3    H251830   3.504   2.596   0.966  0.9385  0.3427  0.3597
10139TIP3   OH251831   3.370   1.270  16.143  0.2998  0.5223  0.6656
10139TIP3    H151832   3.284   1.295  16.175 -0.1887 -0.1111 -0.1150
10139TIP3    H251833   3.405   1.212  16.210 -1.2800 -1.9081 -0.4947
10140TIP3   OH251834   1.905   6.314  14.167  0.1774  0.6246 -0.3468
10140TIP3    H151835   1.813   6.287  14.173  0.2873  0.4756  0.7571
10140TIP3    H251836   1.950   6.236  14.135  0.0345  0.4540 -0.1373
10141TIP3   OH251837   5.423   5.369   4.991 -0.0271  0.2231  0.2291
10141TIP3    H151838   5.491   5.328   5.044  1.4589 -0.4461 -2.1180
10141TIP3    H251839   5.444   5.345   4.901 -2.7881  0.8715 -0.6585
10142TIP3   OH251840   5.390   3.305   2.895 -0.6313  0.0922  0.3668
10142TIP3    H151841   5.297   3.324   2.882 -1.1134 -0.8481  2.3257
10142TIP3    H251842   5.419   3.372   2.957 -0.1025  0.1041  0.1072
10143TIP3   OH251843   5.404   4.142   2.401 -0.8793 -0.0674 -0.4020
10143TIP3    H151844   5.370   4.185   2.479 -0.8722  0.5275 -0.7216
10143TIP3    H251845   5.441   4.059   2.433 -0.4608  0.3784  0.2919
10144TIP3   OH251846   0.945   4.159   4.220 -0.6941  0.0199 -0.7905
10144TIP3    H151847   0.865   4.118   4.188 -0.3974 -1.1319 -0.0748
10144TIP3    H251848   0.922   4.251   4.230 -1.9675 -0.3201 -0.4866
10145TIP3   OH251849   2.458   5.763   2.015  0.0906 -0.4199  0.4819
10145TIP3    H151850   2.493   5.796   1.932  2.1871  0.2202  1.6040
10145TIP3    H251851   2.374   5.723   1.991 -0.0868  1.1543 -1.7012
10146TIP3   OH251852   5.207   2.779   1.898  0.2795 -0.6522  0.1927
10146TIP3    H151853   5.224   2.741   1.812 -0.0525  0.6731 -0.4636
10146TIP3    H251854   5.236   2.712   1.960  2.0194 -0.9591 -0.9386
10147TIP3   OH251855   3.302   3.903   5.233 -0.3359 -0.2024  0.0494
10147TIP3    H151856   3.255   3.922   5.314  1.7607 -0.3007  1.3340
10147TIP3    H251857   3.371   3.969   5.229  0.3542 -0.9590 -1.0173
10148TIP3   OH251858   6.250   2.282  11.326  0.1781  0.6650 -0.5105
10148TIP3    H151859   6.307   2.261  11.401  0.1507  2.2452 -0.0209
10148TIP3    H251860   6.264   2.376  11.312 -1.4223  0.8161 -1.1483
10149TIP3   OH251861   4.236   5.466   6.491  0.1764 -0.2278  0.6526
10149TIP3    H151862   4.236   5.553   6.530  0.9673 -0.9552  2.3473
10149TIP3    H251863   4.200   5.409   6.560 -2.8564 -0.8614 -1.3445
10150TIP3   OH251864   3.621   0.509  13.235 -0.0104  0.7533  0.2744
10150TIP3    H151865   3.549   0.493  13.174 -0.5079 -1.8472  1.4768
10150TIP3    H251866   3.663   0.423  13.245  0.3407  1.2458  3.2306
10151TIP3   OH251867   0.758   5.761   4.020 -0.2095 -0.1351 -0.0076
10151TIP3    H151868   0.666   5.785   4.006  0.2279  1.9235  0.4158
10151TIP3    H251869   0.807   5.840   3.995  1.3763 -0.8389  0.7973
10152TIP3   OH251870   5.147   0.109   4.496  0.1855 -0.2918  0.2626
10152TIP3    H151871   5.165   0.143   4.408 -0.5230  0.9854  0.6034
10152TIP3    H251872   5.206   0.034   4.505  0.2144 -0.4786 -1.3298
10153TIP3   OH251873   4.280   5.706   4.386  0.3611 -0.3932 -0.0518
10153TIP3    H151874   4.236   5.702   4.471  1.3746 -0.1840  0.4821
10153TIP3    H251875   4.305   5.615   4.368 -0.5905 -0.5701 -0.5221
10154TIP3   OH251876   5.674   3.924   1.052 -0.4524  0.7421 -0.2720
10154TIP3    H151877   5.671   3.901   0.959 -0.2061  0.6042 -0.2467
10154TIP3    H251878   5.760   3.963   1.065  0.3086 -1.0686  0.3093
10155TIP3   OH251879   0.692   4.143   2.632  0.3841  0.2425  0.2599
10155TIP3    H151880   0.711   4.235   2.614  1.3473  0.2159  1.0864
10155TIP3    H251881   0.715   4.132   2.725 -0.0098 -0.7525  0.2393
10156TIP3   OH251882   6.424   4.122  16.938  0.0614 -0.5183 -0.1730
10156TIP3    H151883   6.410   4.055  17.004 -2.6917  0.2591  0.1005
10156TIP3    H251884   6.462   4.196  16.986 -2.5527  0.2875  0.7131
10157TIP3   OH251885   6.279   4.010   0.287 -0.2459 -0.0671  0.0349
10157TIP3    H151886   6.374   3.997   0.288  0.0898  2.1554  1.5799
10157TIP3    H251887   6.268   4.105   0.275 -2.2873 -0.3574 -0.5882
10158TIP3   OH251888   2.077   0.390  11.469  0.3265  0.3461  0.2412
10158TIP3    H151889   2.119   0.433  11.543  1.5966  0.0090 -0.2761
10158TIP3    H251890   2.137   0.403  11.396 -0.0563 -0.8813 -0.3112
10159TIP3   OH251891   1.961   6.641   0.856 -0.1398 -0.8652 -0.2959
10159TIP3    H151892   2.018   6.573   0.893  1.3432  0.6073  0.1989
10159TIP3    H251893   1.974   6.635   0.762 -0.5722 -1.7473 -0.3000
10160TIP3   OH251894   0.961   3.396  11.262  0.3746  0.2290 -0.0960
10160TIP3    H151895   1.023   3.451  11.310  0.7087 -0.4894  0.2911
10160TIP3    H251896   0.910   3.459  11.210  2.3349  0.7054 -1.4784
10161TIP3   OH251897   1.981   3.669  12.921 -0.2492  0.3506 -0.0135
10161TIP3    H151898   2.035   3.640  12.994  0.4891  0.6332 -0.4448
10161TIP3    H251899   2.018   3.625  12.844 -0.7818  0.3575 -0.2776
10162TIP3   OH251900   5.328   5.129   2.584 -0.6387  0.0013 -0.1437
10162TIP3    H151901   5.296   5.038   2.589  1.7956 -0.8298  0.8304
10162TIP3    H251902   5.344   5.142   2.491  0.8995 -1.2707 -0.0809
10163TIP3   OH251903   4.217   4.323  14.187  0.1352  0.1989  0.0084
10163TIP3    H151904   4.193   4.278  14.268 -0.9479  0.7518  0.0109
10163TIP3    H251905   4.312   4.333  14.192  0.3456 -1.6984  0.1922
10164TIP3   OH251906   6.008   1.909  13.826 -0.0042 -0.0662 -0.1888
10164TIP3    H151907   6.082   1.847  13.828 -1.0073 -1.3387 -0.9603
10164TIP3    H251908   6.033   1.973  13.760  1.0399  0.3309  0.5870
10165TIP3   OH251909   1.851   2.417   2.689 -0.5976 -0.2714  0.6412
10165TIP3    H151910   1.819   2.328   2.672 -0.8700 -0.2411  0.9878
10165TIP3    H251911   1.885   2.447   2.605 -1.0757 -0.4724  0.3720
10166TIP3   OH251912   4.153   3.002   3.117 -0.2922 -0.1855 -0.1873
10166TIP3    H151913   4.191   3.067   3.176  0.7273  0.4064 -1.4842
10166TIP3    H251914   4.150   3.045   3.032  0.3690 -1.7992 -1.0575
10167TIP3   OH251915   2.117   2.726  17.114 -0.4287  0.5777  0.4376
10167TIP3    H151916   2.044   2.696  17.058  1.7396 -1.5461 -1.3543
10167TIP3    H251917   2.135   2.815  17.084 -1.4838  0.6664  0.0464
10168TIP3   OH251918   5.577   2.778  16.247  0.1179  0.3313 -0.1830
10168TIP3    H151919   5.638   2.737  16.308 -1.0633 -0.9202  0.1943
10168TIP3    H251920   5.598   2.738  16.162  0.3416  0.4722 -0.1949
10169TIP3   OH251921   5.506   5.520  11.669 -0.2456 -0.3341  0.4420
10169TIP3    H151922   5.436   5.495  11.730 -0.2179 -2.5064 -0.3800
10169TIP3    H251923   5.565   5.444  11.668  0.7999  0.4759 -0.7765
10170TIP3   OH251924   0.884   3.974   0.034  0.9013 -0.6078  0.2819
10170TIP3    H151925   0.793   3.989   0.008  0.4465 -1.6302  1.2176
10170TIP3    H251926   0.927   3.943  -0.046  0.4106 -0.1682 -0.1537
10171TIP3   OH251927   0.918   3.290  13.647  0.5617 -0.4389 -0.4096
10171TIP3    H151928   0.886   3.286  13.737  1.0928 -0.8863 -0.2387
10171TIP3    H251929   0.879   3.369  13.611 -0.7540 -0.9763 -0.2031
10172TIP3   OH251930   1.530   0.815   6.527  0.4420  0.3585  0.3262
10172TIP3    H151931   1.589   0.778   6.461 -0.0909  0.1062 -0.0133
10172TIP3    H251932   1.512   0.742   6.586 -1.1860 -0.1211 -0.7557
10173TIP3   OH251933   0.174   3.724   3.840 -0.3995 -0.0754  0.1093
10173TIP3    H151934   0.088   3.766   3.838 -0.1868  0.3163 -0.9237
10173TIP3    H251935   0.235   3.794   3.863 -0.6441 -0.8728  3.4082
10174TIP3   OH251936   1.912   2.144   0.489 -0.4849  0.2647 -0.5799
10174TIP3    H151937   1.919   2.236   0.465 -0.7589 -0.2384 -2.7053
10174TIP3    H251938   1.921   2.097   0.406 -1.6968 -1.5591  0.2845
10175TIP3   OH251939   2.793   1.564  10.719  0.0236  0.4793 -0.8362
10175TIP3    H151940   2.810   1.647  10.674  0.4256  1.4909  1.1343
10175TIP3    H251941   2.811   1.583  10.811 -1.2680 -1.4195 -0.1804
10176TIP3   OH251942   5.088   0.862  13.031 -0.1085  0.0514  0.2252
10176TIP3    H151943   5.087   0.810  13.111 -0.2722 -0.2406  0.0367
10176TIP3    H251944   5.002   0.905  13.030 -0.3645 -0.4480 -0.1127
10177TIP3   OH251945   4.619   5.532  17.158 -0.2889  0.0882  0.4358
10177TIP3    H151946   4.661   5.605  17.203 -3.4471  1.6021  1.0786
10177TIP3    H251947   4.598   5.469  17.227  0.0098 -0.1948  0.2712
10178TIP3   OH251948   4.732   1.167  11.474 -0.2609 -0.0632  0.6122
10178TIP3    H151949   4.722   1.176  11.379  2.5894 -0.6795  0.2097
10178TIP3    H251950   4.782   1.245  11.500  0.4081 -0.7271  1.3353
10179TIP3   OH251951   6.542   5.493  11.927 -0.1922 -0.0442  0.4758
10179TIP3    H151952   6.550   5.466  11.836 -1.3448 -1.0311  0.6521
10179TIP3    H251953   6.598   5.433  11.975 -0.7983 -0.5365  0.5810
10180TIP3   OH251954   3.403   4.700  12.596 -0.0321 -0.0061 -0.2400
10180TIP3    H151955   3.408   4.643  12.519  1.1660  0.5119 -0.5617
10180TIP3    H251956   3.494   4.726  12.613 -0.2143 -0.5953  1.7249
10181TIP3   OH251957   5.224   1.884   3.936 -0.4941 -0.3135  0.2405
10181TIP3    H151958   5.153   1.920   3.988 -1.2601  1.9955 -2.3128
10181TIP3    H251959   5.295   1.947   3.946 -0.6810  0.1941 -1.5701
10182TIP3   OH251960   5.695   0.106   0.966 -0.3579 -0.4207 -0.1422
10182TIP3    H151961   5.728   0.191   0.993  0.1054 -0.4605 -0.5543
10182TIP3    H251962   5.624   0.126   0.905 -1.0312 -0.3328  0.6741
10183TIP3   OH251963   3.899   2.243  12.300  0.0070 -0.6224  0.3676
10183TIP3    H151964   3.972   2.271  12.246  0.5059  0.0492  1.3654
10183TIP3    H251965   3.908   2.294  12.380 -0.4567 -1.9200  1.2652
10184TIP3   OH251966   2.075   1.293   2.502 -0.2185 -0.0271 -0.1346
10184TIP3    H151967   2.100   1.294   2.594 -0.5769  2.1117 -0.0263
10184TIP3    H251968   1.982   1.316   2.502 -0.2480 -0.1133 -1.0098
10185TIP3   OH251969   1.594   6.577   1.284  0.2472  0.0009  0.1860
10185TIP3    H151970   1.663   6.592   1.349  0.7196  0.1579 -0.3506
10185TIP3    H251971   1.587   6.659   1.236  1.0403 -0.6206 -1.0327
10186TIP3   OH251972   6.090   2.323  14.140 -0.0834 -0.2899  0.2672
10186TIP3    H151973   6.009   2.291  14.180 -0.0095 -0.8542 -0.0448
10186TIP3    H251974   6.160   2.273  14.182  0.1197  0.2725  0.6164
10187TIP3   OH251975   0.139   4.098   0.407  0.5843  0.0195 -0.0965
10187TIP3    H151976   0.127   4.101   0.312  1.8729 -1.6199 -0.3286
10187TIP3    H251977   0.195   4.174   0.426  0.8882 -0.0320 -0.7419
10188TIP3   OH251978   0.824   3.929  15.006 -0.1754  0.3184 -0.0202
10188TIP3    H151979   0.845   3.887  15.089  0.7134 -0.4176 -0.6134
10188TIP3    H251980   0.750   3.988  15.026  1.6080  1.9917  1.7910
10189TIP3   OH251981   5.707   3.913   5.883  0.0293 -0.3291 -0.1079
10189TIP3    H151982   5.763   3.846   5.843 -0.2145 -0.5369 -0.0939
10189TIP3    H251983   5.769   3.977   5.918  0.2403  0.5594 -2.0187
10190TIP3   OH251984   1.405   0.823  11.728 -0.2949 -0.6761 -0.0908
10190TIP3    H151985   1.428   0.791  11.641  1.5137 -0.8459  0.4330
10190TIP3    H251986   1.384   0.916  11.715  0.7819 -0.4913 -0.6023
10191TIP3   OH251987   1.041   1.876   5.528  0.5597  0.1235 -0.6043
10191TIP3    H151988   1.009   1.865   5.439  0.6444 -0.4898 -0.5627
10191TIP3    H251989   1.036   1.789   5.567  0.5810  0.3739 -0.0282
10192TIP3   OH251990   2.080   4.813   2.009  0.0167 -0.0873 -0.4604
10192TIP3    H151991   2.132   4.763   1.945 -0.3893 -1.3589  0.1753
10192TIP3    H251992   2.025   4.747   2.052  0.2491  0.7473  1.1752
10193TIP3   OH251993   6.325   4.363  16.314  0.2183  0.2945  0.2366
10193TIP3    H151994   6.378   4.434  16.280 -0.3474 -0.5439 -2.4798
10193TIP3    H251995   6.387   4.292  16.331  0.3867  0.4046  0.0765
10194TIP3   OH251996   1.023   6.045  15.968  1.1319 -0.5082  0.3311
10194TIP3    H151997   0.944   6.079  15.926  1.8449  0.3354 -0.3381
10194TIP3    H251998   1.021   6.080  16.057  0.9126 -0.2329  0.2166
10195TIP3   OH251999   2.096   4.305  16.514 -0.0575 -0.0994  0.1837
10195TIP3    H152000   2.188   4.318  16.490 -0.0099  2.1495  1.4696
10195TIP3    H252001   2.059   4.256  16.441  1.7502  0.5087 -1.1656
10196TIP3   OH252002   3.837   0.768  17.092 -0.5474 -0.2835 -0.2289
10196TIP3    H152003   3.864   0.840  17.036 -1.1533  0.6367  0.6509
10196TIP3    H252004   3.828   0.806  17.179 -1.0683 -1.3728  0.2157
10197TIP3   OH252005   6.776   6.709  15.813  0.3221 -0.2378  0.2442
10197TIP3    H152006   6.839   6.656  15.864  2.2477  1.0966 -0.6711
10197TIP3    H252007   6.803   6.698  15.722 -2.3722 -1.6514 -0.4270
10198TIP3   OH252008   4.108   4.397   0.752  0.5180  0.2670  0.0766
10198TIP3    H152009   4.174   4.451   0.797  0.7897  1.2852 -1.4797
10198TIP3    H252010   4.144   4.385   0.664 -0.5388 -0.7217 -0.2280
10199TIP3   OH252011   2.591   3.646   6.059  0.4687  0.8214  0.0574
10199TIP3    H152012   2.554   3.623   6.145 -0.1744  0.1535 -0.3896
10199TIP3    H252013   2.671   3.695   6.080 -0.1097  1.3638  1.0364
10200TIP3   OH252014   2.059   6.206   0.117  0.1727 -0.6707  0.2578
10200TIP3    H152015   1.981   6.248   0.082  0.1598  0.1366  1.2185
10200TIP3    H252016   2.032   6.115   0.132 -0.1834 -0.7168 -0.6307
10201TIP3   OH252017   0.498   3.923  14.097  0.2327 -0.4844  0.2417
10201TIP3    H152018   0.534   3.980  14.164  2.1919  0.1999 -1.3450
10201TIP3    H252019   0.506   3.835  14.133  0.0566 -0.0241  1.4259
10202TIP3   OH252020   0.653   5.666  14.156 -0.9327  0.0827 -0.0489
10202TIP3    H152021   0.636   5.711  14.239  1.5085 -0.0887  0.5546
10202TIP3    H252022   0.737   5.700  14.126 -0.5073 -1.8282 -1.1140
10203TIP3   OH252023   1.722   2.620  12.581 -0.3484  0.1061 -0.1474
10203TIP3    H152024   1.639   2.599  12.623  0.4842 -0.1027  1.4095
10203TIP3    H252025   1.735   2.714  12.598 -0.8789  0.4457 -1.5083
10204TIP3   OH252026   6.348   2.818  16.966  0.0724 -0.0477 -0.2683
10204TIP3    H152027   6.264   2.824  17.011 -0.7719 -0.4876 -1.7515
10204TIP3    H252028   6.362   2.905  16.929 -1.4230 -0.8484 -2.9066
10205TIP3   OH252029   2.966   1.703  15.340 -0.2243 -0.3204  0.5418
10205TIP3    H152030   2.901   1.760  15.297  2.0575  1.0016 -1.2381
10205TIP3    H252031   2.948   1.616  15.305  0.7199  0.5101 -2.0841
10206TIP3   OH252032   0.505   1.495  11.496 -0.1770 -0.0188 -0.6379
10206TIP3    H152033   0.450   1.573  11.503  0.8088  0.8977 -2.7247
10206TIP3    H252034   0.577   1.521  11.438 -0.7877 -3.0137 -2.8620
10207TIP3   OH252035   0.172   0.248   5.412  0.0295  1.1830  0.1143
10207TIP3    H152036   0.082   0.223   5.433  0.6746 -1.8266 -0.4474
10207TIP3    H252037   0.171   0.269   5.319  0.1649 -0.1946 -0.2051
10208TIP3   OH252038   1.410   3.003  12.742  0.0777 -0.1305  0.1393
10208TIP3    H152039   1.423   3.096  12.722  0.3587 -0.3258 -0.5811
10208TIP3    H252040   1.459   2.989  12.823 -0.6331  0.5340  0.6975
10209TIP3   OH252041   2.504   2.002  13.059 -0.7555  0.2376 -0.1711
10209TIP3    H152042   2.413   2.031  13.061 -1.3549 -1.5935  0.0765
10209TIP3    H252043   2.505   1.922  13.111  0.8655 -0.1287 -0.7268
10210TIP3   OH252044   3.141   3.134  11.900  0.4700 -0.1397 -0.3055
10210TIP3    H152045   3.165   3.042  11.910  1.5810  0.1090 -0.5768
10210TIP3    H252046   3.124   3.164  11.989 -1.3064 -0.9678 -0.3441
10211TIP3   OH252047   5.672   5.000  17.149 -0.6765  0.1382 -1.0415
10211TIP3    H152048   5.603   4.991  17.084 -0.8128  1.3780 -1.0830
10211TIP3    H252049   5.701   5.091  17.141  1.3041 -0.4931 -1.3722
10212TIP3   OH252050   6.280   5.774  12.073  0.0240  0.3193 -0.1365
10212TIP3    H152051   6.254   5.695  12.025 -0.0581  0.4578 -0.3196
10212TIP3    H252052   6.286   5.842  12.006  0.2629  0.4296 -0.0020
10213TIP3   OH252053   3.438   3.721   2.573  0.0140 -0.0447  0.7821
10213TIP3    H152054   3.514   3.762   2.615  0.3120 -1.9698  2.2198
10213TIP3    H252055   3.365   3.744   2.630  0.1008 -1.0553  1.3109
10214TIP3   OH252056   6.249   4.869  11.839 -0.3708 -0.3864  0.0068
10214TIP3    H152057   6.207   4.887  11.923  0.7562  2.4246  0.0389
10214TIP3    H252058   6.245   4.953  11.793 -0.6619 -1.8051 -2.6254
10215TIP3   OH252059   1.153   5.291  15.593 -0.1902  0.3920  0.0507
10215TIP3    H152060   1.188   5.374  15.561  3.1938 -1.7521 -2.1439
10215TIP3    H252061   1.224   5.253  15.644 -1.8394 -0.9865  1.3751
10216TIP3   OH252062   2.440   6.124  16.305  0.2975 -0.2103 -0.3388
10216TIP3    H152063   2.445   6.211  16.266  0.3583  0.0238  0.1812
10216TIP3    H252064   2.362   6.085  16.265 -0.3732  0.5044  0.2485
10217TIP3   OH252065   1.679   4.241  17.188  0.0797  0.3942  0.0427
10217TIP3    H152066   1.618   4.176  17.222  1.6521 -0.1872  1.8477
10217TIP3    H252067   1.653   4.253  17.097 -2.0140 -0.6504  0.4655
10218TIP3   OH252068   1.440   5.402   0.389  0.6830  0.3803  0.6568
10218TIP3    H152069   1.498   5.474   0.364  0.6528  1.3204  3.1394
10218TIP3    H252070   1.497   5.338   0.431  0.2524  0.4210  1.3281
10219TIP3   OH252071   1.119   6.564  13.380  0.2939  0.2250  0.0309
10219TIP3    H152072   1.154   6.598  13.297  0.5184  2.8083  1.1354
10219TIP3    H252073   1.051   6.503  13.353 -2.3219  3.8839 -2.1064
10220TIP3   OH252074   1.525   1.624  14.311  0.7173 -0.0084 -0.5024
10220TIP3    H152075   1.544   1.704  14.262  0.0401  0.0245 -0.7218
10220TIP3    H252076   1.611   1.593  14.341  1.2501 -0.4697 -2.4115
10221TIP3   OH252077   6.243   5.793   3.587 -0.3231  0.2266  0.3753
10221TIP3    H152078   6.268   5.788   3.494 -1.7634  0.7505 -0.0661
10221TIP3    H252079   6.176   5.725   3.597  0.9922 -0.9391  1.4468
10222TIP3   OH252080   6.704   1.606   5.446 -0.4184 -0.4391  0.2871
10222TIP3    H152081   6.764   1.593   5.519 -0.5722 -0.9113  0.3338
10222TIP3    H252082   6.617   1.589   5.483 -0.4553 -1.1455 -0.1122
10223TIP3   OH252083   2.618   5.302  11.448 -0.5298  0.0495 -0.0490
10223TIP3    H152084   2.706   5.264  11.440  0.0293  1.3791 -0.1899
10223TIP3    H252085   2.623   5.385  11.402 -2.0112 -0.0917 -0.4884
10224TIP3   OH252086   3.078   4.728   0.715  0.2563 -0.0119 -0.4379
10224TIP3    H152087   3.042   4.674   0.785  0.0375 -0.7690 -1.1252
10224TIP3    H252088   3.155   4.679   0.684  0.0029  0.0250 -1.1300
10225TIP3   OH252089   5.717   4.772   4.654 -0.2443 -0.1345 -0.5402
10225TIP3    H152090   5.698   4.803   4.566  1.6871  1.7859 -0.3043
10225TIP3    H252091   5.631   4.769   4.697 -1.0437  0.1561 -2.0785
10226TIP3   OH252092   5.796   2.107  12.541 -0.8085  0.3910 -0.1250
10226TIP3    H152093   5.775   2.152  12.459 -0.1719 -0.7531 -0.9374
10226TIP3    H252094   5.858   2.164  12.586  0.3254  0.1234 -1.3397
10227TIP3   OH252095   6.706   4.578  12.712 -0.1731 -0.4549  0.1513
10227TIP3    H152096   6.658   4.606  12.790  1.3431 -1.0176  1.3240
10227TIP3    H252097   6.705   4.654  12.654  1.5256  1.1302  2.1232
10228TIP3   OH252098   2.883   0.171   2.034  0.3191 -0.4953 -0.0116
10228TIP3    H152099   2.945   0.116   1.987 -0.1640  0.4885 -1.8274
10228TIP3    H252100   2.823   0.109   2.075 -0.6956 -1.3339 -2.6829
10229TIP3   OH252101   3.295   5.465   2.666 -0.0471 -0.0787 -0.4145
10229TIP3    H152102   3.376   5.475   2.616  0.2708 -0.0636  0.0921
10229TIP3    H252103   3.320   5.411   2.741 -0.8467 -1.3391 -1.0293
10230TIP3   OH252104   5.438   1.081   3.261  0.0985  0.8730  0.4230
10230TIP3    H152105   5.348   1.115   3.261  0.0189  0.6691 -0.0464
10230TIP3    H252106   5.447   1.037   3.177 -0.1195 -1.1186  1.3934
10231TIP3   OH252107   1.231   1.796   5.851  0.0313  0.3737 -0.0155
10231TIP3    H152108   1.218   1.733   5.922  0.9476  1.6974  1.3759
10231TIP3    H252109   1.147   1.842   5.843 -0.5914 -0.9122 -0.9394
10232TIP3   OH252110   5.556   1.016  11.752  0.2521  0.0987 -0.0806
10232TIP3    H152111   5.496   1.074  11.798 -0.9598 -0.8248 -0.4521
10232TIP3    H252112   5.542   1.035  11.660 -0.9658 -1.5024 -0.2645
10233TIP3   OH252113   3.180   5.054   5.017  0.6393  0.0738  0.7318
10233TIP3    H152114   3.173   5.114   5.091 -0.0420 -0.0100  0.7407
10233TIP3    H252115   3.266   5.072   4.979  0.0786  1.6623  0.1984
10234TIP3   OH252116   3.717   1.866  12.659  0.3863 -0.0047  0.5100
10234TIP3    H152117   3.692   1.919  12.583 -0.1851 -0.5455  0.3260
10234TIP3    H252118   3.714   1.927  12.733 -0.8526  0.0766  0.3934
10235TIP3   OH252119   5.348   3.862   4.346  0.2596 -0.3622 -0.0455
10235TIP3    H152120   5.321   3.953   4.352 -0.7823 -0.6301 -0.6065
10235TIP3    H252121   5.273   3.816   4.309  0.6546 -1.5112  0.5409
10236TIP3   OH252122   5.517   2.798   1.464 -0.1594 -0.6854 -0.2380
10236TIP3    H152123   5.532   2.737   1.392 -1.4726 -0.9092 -0.3307
10236TIP3    H252124   5.541   2.883   1.428  2.2354 -1.1996  0.0756
10237TIP3   OH252125   0.443   1.761  13.422  0.2534  0.1311 -0.0826
10237TIP3    H152126   0.390   1.765  13.502  0.8711 -0.6090  0.3657
10237TIP3    H252127   0.410   1.833  13.368 -0.4771  0.3495  0.6473
10238TIP3   OH252128   1.765   5.991   2.163  0.3538  0.4416  0.1954
10238TIP3    H152129   1.835   5.948   2.213  0.2619  0.2870  0.1919
10238TIP3    H252130   1.727   5.921   2.110  0.2949  0.5557  0.0859
10239TIP3   OH252131   6.751   0.931  11.369 -0.1300  0.4723 -0.3086
10239TIP3    H152132   6.825   0.945  11.428 -0.1035 -0.2390 -0.1691
10239TIP3    H252133   6.705   0.856  11.406 -1.6491  1.6811  0.3209
10240TIP3   OH252134   2.788   6.642   0.037  0.1328  0.0315 -0.3096
10240TIP3    H152135   2.792   6.549   0.016 -0.1215 -0.2127  0.7350
10240TIP3    H252136   2.878   6.665   0.061  0.1322 -0.0042 -0.2741
10241TIP3   OH252137   6.476   2.563  10.679  0.1206  0.6291  0.1629
10241TIP3    H152138   6.549   2.612  10.640 -0.2450  1.4271  0.4651
10241TIP3    H252139   6.497   2.471  10.663  0.1241  0.9336 -1.6675
10242TIP3   OH252140   1.643   5.500   1.976 -0.2407  0.3257  0.6677
10242TIP3    H152141   1.551   5.499   1.949  0.1364  2.2661 -0.7928
10242TIP3    H252142   1.690   5.460   1.902  0.2082  0.3492  0.9367
10243TIP3   OH252143   1.557   4.418   0.603  0.0096  0.1267  0.4380
10243TIP3    H152144   1.593   4.391   0.687 -0.1917  1.2135  0.8693
10243TIP3    H252145   1.482   4.360   0.590  0.6040 -0.6811  0.5520
10244TIP3   OH252146   0.495   3.546   3.916 -0.2457 -0.4384  0.2262
10244TIP3    H152147   0.482   3.556   4.010 -0.6314 -0.7516  0.2076
10244TIP3    H252148   0.524   3.632   3.886  1.7885 -0.8359  0.9560
10245TIP3   OH252149   2.647   1.975   5.797  0.2026 -0.1873  0.2018
10245TIP3    H152150   2.672   1.928   5.717 -0.8348  0.1220 -0.3002
10245TIP3    H252151   2.730   2.008   5.832  0.7264 -0.8247 -0.4307
10246TIP3   OH252152   3.686   4.684   0.295 -0.7872 -0.2406  0.5148
10246TIP3    H152153   3.727   4.731   0.368 -2.0229 -0.1225  1.1503
10246TIP3    H252154   3.683   4.748   0.224 -1.2218  0.2273  0.9482
10247TIP3   OH252155   2.641   0.689   0.781 -0.0572 -1.3022  0.0341
10247TIP3    H152156   2.547   0.681   0.796  0.1388 -1.4342  1.2568
10247TIP3    H252157   2.681   0.643   0.855  0.9800 -0.5528 -0.0510
10248TIP3   OH252158   0.455   5.850  12.128 -0.0785 -0.4791 -0.0620
10248TIP3    H152159   0.384   5.805  12.082  1.0836 -0.6559 -1.7282
10248TIP3    H252160   0.489   5.785  12.189  0.3519 -1.2730 -1.1191
10249TIP3   OH252161   1.670   3.026   1.830 -0.0853 -0.1612 -0.3136
10249TIP3    H152162   1.715   2.978   1.900 -0.9785  0.9830  1.0917
10249TIP3    H252163   1.739   3.051   1.769  1.2345  1.5510  1.7988
10250TIP3   OH252164   0.675   0.531  11.429  0.8083  0.5093  0.4397
10250TIP3    H152165   0.637   0.609  11.389  1.1715  0.1920 -0.5435
10250TIP3    H252166   0.694   0.557  11.519  1.4605  1.7396 -0.0358
10251TIP3   OH252167   0.048   0.802  13.617 -0.2313  0.0279  0.4009
10251TIP3    H152168   0.051   0.862  13.542  0.7749  0.7421  0.9914
10251TIP3    H252169   0.004   0.853  13.686 -0.5839 -0.3975  0.4881
10252TIP3   OH252170   1.040   5.818  16.282  0.2280 -0.6115 -0.2211
10252TIP3    H152171   0.999   5.877  16.345  1.0022 -0.1316 -0.1595
10252TIP3    H252172   0.971   5.798  16.219  0.2294  1.1306 -0.7841
10253TIP3   OH252173   2.378   1.760   0.224  0.4158 -0.2817  0.8277
10253TIP3    H152174   2.436   1.784   0.297  0.6934 -2.2518  1.2864
10253TIP3    H252175   2.396   1.667   0.209 -0.7010 -0.2498 -0.8015
10254TIP3   OH252176   1.900   3.867  16.788 -0.1255  0.0395  0.4369
10254TIP3    H152177   1.833   3.875  16.856 -0.3913  1.5548  0.0252
10254TIP3    H252178   1.851   3.856  16.707  0.1661 -0.6889  0.3614
10255TIP3   OH252179   0.539   6.113  15.759  0.1962  0.4557 -0.0409
10255TIP3    H152180   0.509   6.050  15.825 -0.2468  0.1318 -0.5463
10255TIP3    H252181   0.501   6.081  15.677 -0.7279  1.8770 -0.1666
10256TIP3   OH252182   0.906   3.225   5.378  0.4643  0.3653 -0.0505
10256TIP3    H152183   0.891   3.185   5.293 -4.8255  0.6839  0.5967
10256TIP3    H252184   0.914   3.151   5.438  0.7233  0.2073 -0.2741
10257TIP3   OH252185   0.462   2.941  15.088  0.1559 -0.0378  0.0204
10257TIP3    H152186   0.495   3.004  15.152 -0.4981  1.6978 -1.3083
10257TIP3    H252187   0.499   2.857  15.116 -1.3356  0.3822  3.5525
10258TIP3   OH252188   3.312   2.392  15.045 -0.1310 -0.3359  0.7215
10258TIP3    H152189   3.351   2.305  15.035  0.0380 -0.3260  1.2758
10258TIP3    H252190   3.221   2.375  15.069 -0.6765 -0.3608 -1.3143
10259TIP3   OH252191   4.923   6.027  12.673 -0.1674 -0.0984 -0.6311
10259TIP3    H152192   4.900   6.095  12.609  0.3980  0.7757  0.0763
10259TIP3    H252193   4.939   6.075  12.754 -0.8992 -1.2022  0.1832
10260TIP3   OH252194   4.094   1.422   1.537  0.0120  0.1075 -0.2311
10260TIP3    H152195   4.120   1.378   1.456 -0.2763 -0.7714  0.1522
10260TIP3    H252196   3.998   1.422   1.534  0.0140  1.1805 -0.4814
10261TIP3   OH252197   5.070   4.567  13.004 -0.1487 -0.8445 -0.1440
10261TIP3    H152198   5.019   4.574  13.085 -1.3703 -1.1888 -0.8642
10261TIP3    H252199   5.006   4.582  12.934  0.7640 -1.1931 -1.0685
10262TIP3   OH252200   1.533   6.002  12.277 -0.2400  0.5239  0.0740
10262TIP3    H152201   1.440   5.999  12.299 -0.1346 -0.0795  0.4574
10262TIP3    H252202   1.538   6.049  12.194 -0.7693  1.7724  0.7412
10263TIP3   OH252203   2.895   1.475  11.973  0.4735  0.1870 -0.4534
10263TIP3    H152204   2.802   1.456  11.959  0.5595 -1.0827  0.6344
10263TIP3    H252205   2.897   1.533  12.049  0.6174 -0.5296  0.0989
10264TIP3   OH252206   3.409   3.175   3.319  0.1551  0.4646 -0.6237
10264TIP3    H152207   3.409   3.095   3.266  0.4866 -0.0461  0.1469
10264TIP3    H252208   3.320   3.183   3.352  1.0259 -1.6601  2.4037
10265TIP3   OH252209   5.276   4.062   4.115  0.0764  0.1617 -0.4703
10265TIP3    H152210   5.202   4.015   4.077 -1.5039  2.4096 -0.2966
10265TIP3    H252211   5.297   4.129   4.050  0.4079  1.0217  0.5047
10266TIP3   OH252212   0.588   4.508   0.928  0.0469  0.0730  0.8996
10266TIP3    H152213   0.576   4.538   0.838 -0.4920  1.8047  1.5123
10266TIP3    H252214   0.552   4.419   0.930 -0.7299  0.3496 -0.4010
10267TIP3   OH252215   2.732   6.170   2.736 -0.1790  0.4830 -0.4128
10267TIP3    H152216   2.796   6.233   2.704  0.4586  0.4804  0.8503
10267TIP3    H252217   2.699   6.208   2.818  0.7777 -1.1864  0.7596
10268TIP3   OH252218   1.479   2.104   3.477  0.0337  0.4741 -0.1627
10268TIP3    H152219   1.447   2.116   3.388 -1.3329  0.9760  0.3920
10268TIP3    H252220   1.554   2.163   3.483  1.5973 -1.2859 -1.7107
10269TIP3   OH252221   5.123   5.186   4.582  0.2784  0.0378 -0.5133
10269TIP3    H152222   5.130   5.267   4.533  0.9778  0.6263  0.5473
10269TIP3    H252223   5.186   5.195   4.653 -0.5215 -0.9169  0.3353
10270TIP3   OH252224   2.375   3.698   0.405  0.3249 -0.2472 -0.4260
10270TIP3    H152225   2.299   3.731   0.357  0.1111 -2.0882 -1.4228
10270TIP3    H252226   2.352   3.608   0.426  1.2204 -0.0379  1.4959
10271TIP3   OH252227   5.349   3.754  11.028 -0.3081 -0.2652  0.7509
10271TIP3    H152228   5.255   3.755  11.010  0.2712  0.4104 -2.6218
10271TIP3    H252229   5.355   3.758  11.123 -3.7105 -1.9312  1.1332
10272TIP3   OH252230   0.553   5.398  11.788 -0.2718  0.3038 -0.3927
10272TIP3    H152231   0.615   5.467  11.812 -0.8085  1.2930 -1.7607
10272TIP3    H252232   0.547   5.342  11.865 -0.4740  2.2660  1.0468
10273TIP3   OH252233   0.672   0.887  14.134 -0.3504  0.0349  0.2379
10273TIP3    H152234   0.603   0.835  14.175 -0.7945  0.5285  0.1242
10273TIP3    H252235   0.747   0.828  14.130 -0.1642  0.1156  2.1546
10274TIP3   OH252236   0.178   3.570  11.531 -0.3101 -0.0836 -0.7221
10274TIP3    H152237   0.255   3.559  11.586 -0.2286 -0.9792 -0.9969
10274TIP3    H252238   0.202   3.529  11.448 -0.7096  0.5639 -1.1651
10275TIP3   OH252239   5.209   0.193   4.801 -0.0423 -0.9836 -0.2833
10275TIP3    H152240   5.251   0.219   4.883 -0.2579 -2.6813  0.3790
10275TIP3    H252241   5.281   0.186   4.738 -0.0609  1.9616 -0.7159
10276TIP3   OH252242   3.147   5.714   4.325  0.3997 -0.2433 -0.0623
10276TIP3    H152243   3.154   5.781   4.394  2.1592  0.0887 -0.5259
10276TIP3    H252244   3.238   5.693   4.304 -0.1443 -1.8472 -0.8441
10277TIP3   OH252245   2.508   3.112   1.689  0.2939 -0.1427 -0.4766
10277TIP3    H152246   2.480   3.021   1.695  1.8000 -0.9292 -4.0541
10277TIP3    H252247   2.492   3.137   1.598 -0.0890  3.2058  0.4264
10278TIP3   OH252248   6.531   0.080   2.911  0.6497  0.3804  0.5444
10278TIP3    H152249   6.500   0.004   2.862  1.1668 -0.7384  1.9141
10278TIP3    H252250   6.472   0.151   2.885 -0.2178 -0.6268 -0.2931
10279TIP3   OH252251   0.092   0.381  17.042  0.0384  0.6846  0.4234
10279TIP3    H152252   0.159   0.314  17.029 -0.7370 -0.0626  0.2163
10279TIP3    H252253   0.088   0.393  17.136  1.5409  1.8509  0.3589
10280TIP3   OH252254   3.907   4.016  13.623  0.3504 -0.7088 -0.0536
10280TIP3    H152255   3.980   3.955  13.631  0.4261 -0.4192  1.8098
10280TIP3    H252256   3.928   4.069  13.546 -0.4535 -3.9540 -2.5749
10281TIP3   OH252257   2.159   4.958  13.499  0.2343 -0.3083 -0.4470
10281TIP3    H152258   2.092   4.997  13.555 -1.3731 -2.5530 -0.7154
10281TIP3    H252259   2.146   4.998  13.414  0.1617  0.2893 -0.1578
10282TIP3   OH252260   3.372   5.445   6.291 -0.1650 -0.3065 -0.6582
10282TIP3    H152261   3.375   5.463   6.197 -1.1325  1.1791 -0.4194
10282TIP3    H252262   3.409   5.523   6.332 -0.8646 -0.4340  0.2349
10283TIP3   OH252263   2.218   1.521  16.843 -0.0364 -0.3705 -0.0277
10283TIP3    H152264   2.180   1.442  16.804  0.4076 -0.8242  0.4426
10283TIP3    H252265   2.150   1.588  16.833 -0.7049 -1.0016  0.2165
10284TIP3   OH252266   0.485   6.471  14.415  0.0701  0.3141 -0.0631
10284TIP3    H152267   0.453   6.384  14.437 -0.1544  0.3772 -0.1310
10284TIP3    H252268   0.410   6.513  14.371 -0.1037  0.8269  0.7105
10285TIP3   OH252269   2.779   0.873   5.612 -0.0537 -0.6674  0.2848
10285TIP3    H152270   2.730   0.906   5.688 -1.4311 -0.8233 -0.5169
10285TIP3    H252271   2.757   0.780   5.608  0.1199 -0.6871 -0.2293
10286TIP3   OH252272   6.074   4.085   3.533  0.8642 -0.0545 -0.1651
10286TIP3    H152273   5.994   4.110   3.580  2.2899  0.9118  1.8335
10286TIP3    H252274   6.044   4.062   3.445 -1.5995  0.3340  0.5277
10287TIP3   OH252275   6.398   6.033  15.372  0.3177  0.1170  0.9706
10287TIP3    H152276   6.450   6.099  15.418  1.2219 -0.5401  0.8868
10287TIP3    H252277   6.449   6.013  15.293 -0.1395 -0.4011  0.8038
10288TIP3   OH252278   3.212   2.493  11.875  1.1996  0.2982 -0.1135
10288TIP3    H152279   3.156   2.443  11.815  0.9340 -0.4098  0.7126
10288TIP3    H252280   3.234   2.572  11.827 -0.8638  0.7853 -0.3201
10289TIP3   OH252281   0.594   2.858  11.186 -0.1277  0.4720 -0.0129
10289TIP3    H152282   0.685   2.864  11.158  0.5335 -0.9041  1.7292
10289TIP3    H252283   0.572   2.946  11.217  0.3135  1.0299 -1.2529
10290TIP3   OH252284   0.425   3.838  17.058  0.1580  0.7986  0.6201
10290TIP3    H152285   0.385   3.886  16.985  0.7506  0.9983  0.4193
10290TIP3    H252286   0.484   3.776  17.016  1.8359  2.1131  0.9663
10291TIP3   OH252287   4.098   6.652  12.153 -0.0537  0.7261 -0.0231
10291TIP3    H152288   4.116   6.700  12.072 -1.6827 -0.6751 -1.2256
10291TIP3    H252289   4.019   6.693  12.188 -0.6236 -0.1116 -0.3085
10292TIP3   OH252290   2.888   4.926   0.359 -0.1492 -0.0011  0.3513
10292TIP3    H152291   2.973   4.902   0.394 -0.7584 -2.3830  0.2720
10292TIP3    H252292   2.833   4.939   0.437  0.1364  1.0082  0.3904
10293TIP3   OH252293   5.631   3.191  11.455  0.2265 -0.4004  0.1664
10293TIP3    H152294   5.642   3.286  11.457  0.1887 -0.3383 -1.5134
10293TIP3    H252295   5.594   3.173  11.369  0.1266 -1.9299  0.5122
10294TIP3   OH252296   6.028   5.154  12.780 -0.3849 -0.1663 -0.4138
10294TIP3    H152297   5.975   5.214  12.727  0.6556  0.8883 -0.2863
10294TIP3    H252298   6.014   5.068  12.741 -1.6449  0.2022 -0.8090
10295TIP3   OH252299   4.227   2.768  11.795  0.5260 -0.3969  0.5748
10295TIP3    H152300   4.264   2.840  11.743 -0.9729 -1.1469 -1.6474
10295TIP3    H252301   4.172   2.811  11.860  0.6391  0.5371  0.0653
10296TIP3   OH252302   2.341   0.897  16.794 -0.1735  0.4531 -0.1121
10296TIP3    H152303   2.266   0.889  16.852 -0.5233  1.4478 -0.4159
10296TIP3    H252304   2.343   0.814  16.746 -0.3851 -0.0305  0.7029
10297TIP3   OH252305   6.643   3.787   5.090  0.2394 -0.2361 -0.0154
10297TIP3    H152306   6.614   3.756   5.004  0.6464 -2.3119  0.5522
10297TIP3    H252307   6.609   3.721   5.151 -0.3509  1.4028  1.4719
10298TIP3   OH252308   0.711   6.452  14.686  0.5530 -0.1810  0.1261
10298TIP3    H152309   0.636   6.476  14.632  1.0064 -0.6090 -0.7164
10298TIP3    H252310   0.767   6.529  14.686  0.3985 -0.0689  0.2554
10299TIP3   OH252311   3.905   1.493   5.041  0.0282 -0.3692 -0.0921
10299TIP3    H152312   3.998   1.514   5.050 -0.3129  0.8008  0.6775
10299TIP3    H252313   3.902   1.397   5.044  1.0697 -0.3732  1.2886
10300TIP3   OH252314   4.330   2.267  16.377 -0.0478 -0.2421 -0.0456
10300TIP3    H152315   4.275   2.286  16.301  1.5302  0.4314 -1.0688
10300TIP3    H252316   4.396   2.336  16.376 -1.9676  1.8418  3.9826
10301TIP3   OH252317   6.116   3.024  15.215  0.0854  0.4951  0.0744
10301TIP3    H152318   6.113   3.073  15.132 -0.5978  1.1877  0.5054
10301TIP3    H252319   6.148   2.937  15.190  1.5829  1.2332 -0.6605
10302TIP3   OH252320   3.911   3.685  13.623 -0.6866  0.3266 -0.2514
10302TIP3    H152321   3.920   3.632  13.702 -3.6075  0.7545  0.3980
10302TIP3    H252322   3.979   3.752  13.631 -1.2895  0.6814  2.1415
10303TIP3   OH252323   6.086   2.710   0.886 -0.3731  0.3366 -0.2284
10303TIP3    H152324   6.022   2.643   0.860 -0.0528 -0.3614  0.7724
10303TIP3    H252325   6.167   2.683   0.844 -0.0253 -0.4069  0.9059
10304TIP3   OH252326   2.719   1.456  17.072  0.4680  0.7631  0.2459
10304TIP3    H152327   2.654   1.387  17.057  0.8894  0.7585 -1.6874
10304TIP3    H252328   2.773   1.424  17.144  0.9855 -1.1624 -0.9896
10305TIP3   OH252329   5.690   3.364   0.961 -0.1221  0.2080 -0.4481
10305TIP3    H152330   5.730   3.277   0.958  0.3968  0.2815  2.5580
10305TIP3    H252331   5.708   3.402   0.875  3.4810 -0.9978 -0.3139
10306TIP3   OH252332   1.591   4.168  14.907 -0.2922 -0.6095  0.3825
10306TIP3    H152333   1.498   4.150  14.897 -0.2258 -1.9242  1.7663
10306TIP3    H252334   1.634   4.104  14.850 -0.2365 -0.0218 -0.2360
10307TIP3   OH252335   6.245   6.654   1.572 -0.1695  0.2409  0.1370
10307TIP3    H152336   6.246   6.628   1.664 -0.8420  1.4692  0.5008
10307TIP3    H252337   6.222   6.747   1.573  1.6158  0.7329 -1.1574
10308TIP3   OH252338   3.015   6.462  11.834  0.1660  0.3064 -0.2186
10308TIP3    H152339   2.980   6.549  11.854  0.3463  0.4773 -0.6443
10308TIP3    H252340   3.070   6.440  11.909 -0.4764  0.2356  0.2403
10309TIP3   OH252341   5.713   3.683   3.222  0.1601 -0.1867  0.0733
10309TIP3    H152342   5.713   3.767   3.267 -0.3799  0.7002 -1.5310
10309TIP3    H252343   5.805   3.659   3.214  0.2609 -0.4063  1.6984
10310TIP3   OH252344   6.737   4.693  12.072  0.5929  0.5284  0.3483
10310TIP3    H152345   6.671   4.628  12.095  0.9272  0.5020  1.2703
10310TIP3    H252346   6.722   4.712  11.980  0.9899 -1.4501 -0.1525
10311TIP3   OH252347   1.722   2.208   4.554  0.0606  0.5093  0.4363
10311TIP3    H152348   1.719   2.186   4.461 -2.5875 -1.5950  0.9820
10311TIP3    H252349   1.815   2.218   4.573  0.7973 -1.6565 -1.8362
10312TIP3   OH252350   5.063   2.387   2.696  0.1899 -0.4734 -0.0657
10312TIP3    H152351   4.992   2.336   2.659 -0.1071  0.2783 -0.5575
10312TIP3    H252352   5.142   2.353   2.653  0.2199 -1.7952  1.0172
10313TIP3   OH252353   4.438   1.853  12.867  0.2730  0.0699  0.0943
10313TIP3    H152354   4.506   1.898  12.919 -0.3101  1.3583 -0.2379
10313TIP3    H252355   4.430   1.767  12.908  0.4192  0.7698  1.6417
10314TIP3   OH252356   5.008   4.714   5.336 -0.2622  0.5689  0.3634
10314TIP3    H152357   4.958   4.794   5.350 -0.0493  1.5245 -3.6306
10314TIP3    H252358   5.088   4.726   5.387 -1.8443  1.2272  2.7617
10315TIP3   OH252359   6.742   6.223  12.968 -0.6458 -0.1182  0.7451
10315TIP3    H152360   6.822   6.275  12.960  0.8613 -2.5730 -0.5934
10315TIP3    H252361   6.672   6.284  12.944  1.1486  1.0802 -1.7187
10316TIP3   OH252362   0.727   5.519   0.701 -0.7004  0.2467  0.3877
10316TIP3    H152363   0.772   5.463   0.765 -0.4362 -2.0895 -1.7754
10316TIP3    H252364   0.634   5.503   0.717 -0.6558  0.5504  0.9571
10317TIP3   OH252365   2.601   0.391  14.957  0.5272 -0.2614  0.1138
10317TIP3    H152366   2.693   0.371  14.972  0.4598  0.7895  2.1232
10317TIP3    H252367   2.601   0.481  14.924  0.1955 -0.1086  0.5219
10318TIP3   OH252368   2.409   3.901  11.275 -0.2432  0.0886  0.1448
10318TIP3    H152369   2.426   3.923  11.366  0.2376  0.2020  0.0275
10318TIP3    H252370   2.495   3.882  11.237 -0.4518 -0.1023 -0.2476
10319TIP3   OH252371   3.576   6.727   5.834  0.4040  0.4136 -0.3943
10319TIP3    H152372   3.579   6.679   5.752 -1.1037 -0.6212  0.1350
10319TIP3    H252373   3.566   6.659   5.901 -0.0454  1.3617  0.5038
10320TIP3   OH252374   0.537   2.553   4.009 -0.0895 -0.8149  0.4706
10320TIP3    H152375   0.458   2.500   4.015 -0.3000 -0.6273 -0.5442
10320TIP3    H252376   0.565   2.565   4.100 -0.1676 -2.4491  0.7290
10321TIP3   OH252377   4.082   3.665  11.609  0.7460 -0.0347 -0.0635
10321TIP3    H152378   4.043   3.579  11.592  1.5680 -1.1277  3.1172
10321TIP3    H252379   4.009   3.718  11.644  0.0237  0.9078 -2.8811
10322TIP3   OH252380   4.430   6.461  14.609 -0.5818 -0.1569 -0.3215
10322TIP3    H152381   4.439   6.369  14.633 -1.6198 -0.0708  0.4343
10322TIP3    H252382   4.441   6.462  14.514 -2.2944 -1.2953 -0.5469
10323TIP3   OH252383   3.391   4.700   0.796 -0.0402 -0.2049 -0.0003
10323TIP3    H152384   3.470   4.752   0.790 -1.5756  2.0730 -1.2090
10323TIP3    H252385   3.339   4.743   0.864 -0.4500 -1.4261  0.4788
10324TIP3   OH252386   5.568   0.684  15.327  0.0932 -0.3328 -0.4590
10324TIP3    H152387   5.642   0.736  15.357 -0.9063  1.1492 -0.5016
10324TIP3    H252388   5.588   0.664  15.235  1.1295 -1.2185 -0.0505
10325TIP3   OH252389   5.986   2.558   0.211  0.4325  0.5450  0.6196
10325TIP3    H152390   5.936   2.618   0.155  0.4827  0.7357  0.7801
10325TIP3    H252391   5.942   2.474   0.200  0.7817  0.4518 -0.1555
10326TIP3   OH252392   3.753   4.716   1.825 -0.3501 -0.7894 -0.0133
10326TIP3    H152393   3.793   4.639   1.785 -2.3721 -1.6508 -0.4322
10326TIP3    H252394   3.685   4.680   1.883 -0.3877  0.6234  0.8362
10327TIP3   OH252395   0.790   5.370  13.737  0.1229  0.8933  0.3786
10327TIP3    H152396   0.879   5.405  13.740  0.4461  0.1956 -0.8659
10327TIP3    H252397   0.777   5.345  13.646 -1.0617  0.2357  0.7188
10328TIP3   OH252398   3.273   4.581   1.637 -0.1854  0.4621 -0.3342
10328TIP3    H152399   3.358   4.538   1.648 -0.2941  0.6570  1.4293
10328TIP3    H252400   3.217   4.542   1.704 -1.1029  1.2984 -0.5941
10329TIP3   OH252401   1.253   1.840   3.407 -0.0259 -0.2061  0.6334
10329TIP3    H152402   1.213   1.808   3.327  2.0188  0.5883 -0.7420
10329TIP3    H252403   1.340   1.799   3.409  0.1883  0.2947  2.0865
10330TIP3   OH252404   6.314   5.435  14.763  0.3160  0.3442  1.0017
10330TIP3    H152405   6.250   5.499  14.733  0.2727  0.2206  0.8283
10330TIP3    H252406   6.317   5.446  14.858  1.9177  2.1328  0.7893
10331TIP3   OH252407   1.156   5.372  11.036  0.0150 -0.1205 -0.0759
10331TIP3    H152408   1.122   5.341  10.952  0.5895  0.5822 -0.5720
10331TIP3    H252409   1.078   5.396  11.086 -0.2693  0.4910 -0.8111
10332TIP3   OH252410   1.345   5.161   3.785 -0.0906 -0.0910  0.0389
10332TIP3    H152411   1.277   5.104   3.821  0.6840 -0.2419  1.2864
10332TIP3    H252412   1.375   5.213   3.859  1.7891 -0.6732 -0.2880
10333TIP3   OH252413   4.237   6.010  11.602  0.0191  0.0486  0.3094
10333TIP3    H152414   4.167   6.076  11.592 -0.5623 -0.7949 -1.4834
10333TIP3    H252415   4.251   6.004  11.696 -0.5317  2.1051  0.5547
10334TIP3   OH252416   4.307   2.224   5.561  0.8091  0.6827  0.1891
10334TIP3    H152417   4.215   2.233   5.585  0.7810  1.6100 -0.2510
10334TIP3    H252418   4.354   2.234   5.644  0.4122 -2.0524  0.7831
10335TIP3   OH252419   2.519   5.069   3.511 -0.4600  0.1120  0.3245
10335TIP3    H152420   2.448   5.018   3.550  1.1162  0.0045  3.1108
10335TIP3    H252421   2.596   5.047   3.562  0.7602  3.3866 -0.0030
10336TIP3   OH252422   1.260   5.877   3.847  0.4974 -0.3636 -0.1930
10336TIP3    H152423   1.334   5.927   3.883  0.4383 -0.7055  0.4159
10336TIP3    H252424   1.223   5.832   3.923 -1.5309  1.3187 -0.1329
10337TIP3   OH252425   1.682   2.732   2.839  0.3376  0.3939  0.4881
10337TIP3    H152426   1.728   2.812   2.866  1.1027  0.4521 -0.9435
10337TIP3    H252427   1.713   2.665   2.900 -0.0995  1.1230  1.5219
10338TIP3   OH252428   4.281   1.856   4.366  0.0661  0.5718  0.5312
10338TIP3    H152429   4.350   1.915   4.397  0.6181  0.0553  0.3147
10338TIP3    H252430   4.266   1.883   4.275 -0.0072  0.6702  0.5722
10339TIP3   OH252431   4.569   3.059  15.084 -0.0072 -0.2703  0.4149
10339TIP3    H152432   4.620   3.140  15.090  2.2286 -1.6055  0.3385
10339TIP3    H252433   4.479   3.086  15.100  0.7082  2.2018  0.5489
10340TIP3   OH252434   5.370   1.341   3.405 -0.4319 -0.2969  0.1240
10340TIP3    H152435   5.445   1.304   3.359  1.1319  0.9673  1.5559
10340TIP3    H252436   5.392   1.333   3.498 -2.2662 -0.2936  0.5810
10341TIP3   OH252437   4.573   1.738  15.274 -1.0833 -0.0705  0.3134
10341TIP3    H152438   4.551   1.776  15.360  1.4599 -2.1352  1.9455
10341TIP3    H252439   4.613   1.810  15.226 -1.8153  0.8944  1.1203
10342TIP3   OH252440   6.474   2.194   0.602 -0.3883 -0.0031  0.5394
10342TIP3    H152441   6.401   2.135   0.624  0.3737 -0.7921  0.9993
10342TIP3    H252442   6.434   2.281   0.595 -1.6079 -0.6428 -0.6010
10343TIP3   OH252443   6.452   4.194  13.353  0.2357  0.6236  1.1136
10343TIP3    H152444   6.396   4.189  13.431 -0.4877 -1.1977  0.5216
10343TIP3    H252445   6.514   4.121  13.364  2.4564  2.5596  1.7120
10344TIP3   OH252446   6.590   0.800  15.094 -0.3934 -0.3005  0.0905
10344TIP3    H152447   6.496   0.821  15.096 -0.3422 -0.1982  1.9574
10344TIP3    H252448   6.605   0.747  15.172  1.5556  1.7050  1.1362
10345TIP3   OH252449   5.383   4.316   0.371 -0.4074  0.6682  0.5074
10345TIP3    H152450   5.426   4.344   0.451 -0.4198  1.2733  0.3001
10345TIP3    H252451   5.452   4.316   0.305 -0.2550 -0.4520  0.6570
10346TIP3   OH252452   5.042   5.404   2.780  0.2218  0.2653  0.0803
10346TIP3    H152453   5.007   5.483   2.739 -0.6230 -0.2318 -0.1740
10346TIP3    H252454   5.133   5.400   2.750  0.8733  2.2089  1.7154
10347TIP3   OH252455   1.440   2.584   3.829 -0.2516 -0.5735  0.2056
10347TIP3    H152456   1.457   2.521   3.899  1.2013 -1.7452 -1.1852
10347TIP3    H252457   1.345   2.593   3.828 -0.3821 -1.6883  1.3455
10348TIP3   OH252458   3.507   1.030  15.167  0.2079 -0.1254  0.4245
10348TIP3    H152459   3.554   1.082  15.232 -0.6053 -0.8479  1.5914
10348TIP3    H252460   3.455   0.968  15.218  0.5509 -1.5634 -0.9304
10349TIP3   OH252461   1.434   2.288  12.428 -0.1261 -0.0962 -0.0042
10349TIP3    H152462   1.380   2.227  12.376 -1.0536  0.8182 -0.1229
10349TIP3    H252463   1.377   2.315  12.499  0.2021  0.8215 -0.0839
10350TIP3   OH252464   5.810   6.713  11.842  0.2709  0.3151 -0.0667
10350TIP3    H152465   5.738   6.713  11.904  1.7395 -0.0111  1.6701
10350TIP3    H252466   5.778   6.765  11.768 -2.6059 -1.7900 -0.3973
10351TIP3   OH252467   0.288   6.049  13.286  0.4791  0.0692 -0.0392
10351TIP3    H152468   0.201   6.076  13.258  0.3349 -0.3029  0.0435
10351TIP3    H252469   0.290   6.066  13.380 -0.0583 -1.3513  0.2535
10352TIP3   OH252470   0.670   3.084  13.743  0.6422 -0.0930 -0.2336
10352TIP3    H152471   0.743   3.118  13.795  1.2029  0.6420 -1.4707
10352TIP3    H252472   0.593   3.100  13.797  1.4792 -1.7318  1.5005
10353TIP3   OH252473   5.347   0.448   1.476  0.5444  0.0337  0.8019
10353TIP3    H152474   5.399   0.379   1.518 -0.9669 -1.8704 -0.3394
10353TIP3    H252475   5.268   0.454   1.529  0.0002 -0.2061  0.0338
10354TIP3   OH252476   2.358   3.542   2.764  0.0763  0.1863  0.6268
10354TIP3    H152477   2.405   3.480   2.709 -0.7825  1.1414 -1.2166
10354TIP3    H252478   2.275   3.497   2.785  0.4209 -0.1924  1.2048
10355TIP3   OH252479   1.437   2.895  15.003  0.2890  1.2777 -0.4731
10355TIP3    H152480   1.471   2.808  14.981 -1.3944  0.5718 -0.3695
10355TIP3    H252481   1.395   2.884  15.088  0.1353  2.2085 -0.4185
10356TIP3   OH252482   0.509   0.623  16.802 -0.8537 -0.7522  0.6697
10356TIP3    H152483   0.416   0.608  16.819 -1.7165 -0.0755 -3.0729
10356TIP3    H252484   0.511   0.677  16.723  2.7254 -1.1580  0.3899
10357TIP3   OH252485   3.401   6.142  17.216 -0.1443 -0.2755  0.0223
10357TIP3    H152486   3.324   6.087  17.229  0.2190 -0.8811 -0.3552
10357TIP3    H252487   3.375   6.228  17.249 -1.2484 -0.2789 -0.7899
10358TIP3   OH252488   5.060   2.088   0.768  0.7928 -0.0151 -0.2571
10358TIP3    H152489   4.992   2.026   0.795  0.2922 -0.0083 -1.4823
10358TIP3    H252490   5.062   2.083   0.672  2.1335  0.3968 -0.2754
10359TIP3   OH252491   3.772   5.644  14.897 -0.3833  0.5979 -0.5438
10359TIP3    H152492   3.759   5.585  14.822 -0.8332 -0.6312  0.4866
10359TIP3    H252493   3.865   5.664  14.895  0.0615 -1.3559 -0.0222
10360TIP3   OH252494   1.461   4.475  13.448  0.5623 -0.1187  0.0035
10360TIP3    H152495   1.425   4.499  13.363 -0.3157 -0.5956  0.2361
10360TIP3    H252496   1.547   4.437  13.427  1.2170  1.5737 -0.4934
10361TIP3   OH252497   4.131   0.817  16.772 -0.5408  0.0264  0.4028
10361TIP3    H152498   4.162   0.798  16.683  1.2730  1.1343  0.7620
10361TIP3    H252499   4.180   0.756  16.827 -0.0505  0.8127  0.8431
10362TIP3   OH252500   0.280   2.555  12.344 -0.3645 -0.0486 -0.2623
10362TIP3    H152501   0.257   2.523  12.257  0.4704  0.4334 -0.6709
10362TIP3    H252502   0.372   2.580  12.336  0.1020 -1.2866  1.1380
10363TIP3   OH252503   4.222   1.902   1.358 -0.2566  0.1212 -0.3898
10363TIP3    H152504   4.238   1.937   1.271 -0.7924 -2.4951 -1.5948
10363TIP3    H252505   4.309   1.896   1.398  0.1206  0.1882 -1.1905
10364TIP3   OH252506   0.975   0.261  13.405 -0.1272  0.0852 -0.0575
10364TIP3    H152507   1.062   0.269  13.446 -0.1999  0.7947 -0.0296
10364TIP3    H252508   0.968   0.340  13.350 -1.1778  0.5545  0.7391
10365TIP3   OH252509   4.110   4.533  15.816  0.6418  0.6026 -0.3412
10365TIP3    H152510   4.112   4.604  15.751  2.9461 -0.5525 -1.5776
10365TIP3    H252511   4.049   4.469  15.779 -0.1399  1.1613 -0.0373
10366TIP3   OH252512   6.730   5.953   0.620 -0.0702 -0.7464 -0.1448
10366TIP3    H152513   6.644   5.950   0.576 -0.1356 -0.6944 -0.0225
10366TIP3    H252514   6.711   5.924   0.709 -0.4914  2.0338  0.7260
10367TIP3   OH252515   3.293   5.244   1.882  0.3800  0.2929 -0.3688
10367TIP3    H152516   3.358   5.278   1.944 -1.1078  0.5139  1.0967
10367TIP3    H252517   3.212   5.290   1.904 -0.7465 -1.3899 -0.8961
10368TIP3   OH252518   1.269   2.158   4.295 -0.2458 -0.0837  0.2159
10368TIP3    H152519   1.228   2.166   4.209 -0.6559 -0.6513  0.3560
10368TIP3    H252520   1.356   2.197   4.284 -0.0092 -0.8334 -0.6704
10369TIP3   OH252521   6.043   5.029  14.165 -0.3019 -0.8616  0.5171
10369TIP3    H152522   6.103   5.060  14.097 -0.6415 -0.6876  0.2958
10369TIP3    H252523   5.986   5.104  14.183 -0.9186 -1.2497  0.2072
10370TIP3   OH252524   2.993   1.594   1.193  0.7141  0.2107 -0.4128
10370TIP3    H152525   2.918   1.619   1.139  2.3143  0.5664 -2.5502
10370TIP3    H252526   3.023   1.511   1.157  0.2514 -0.8954  1.6317
10371TIP3   OH252527   6.223   4.225  14.005 -0.2780 -0.5956 -0.2294
10371TIP3    H152528   6.142   4.174  14.005 -0.0788 -0.9285 -1.7602
10371TIP3    H252529   6.287   4.169  14.048 -1.3074  0.4484  2.8223
10372TIP3   OH252530   3.698   6.491   3.162 -0.6282 -0.4060  0.1527
10372TIP3    H152531   3.653   6.476   3.079 -0.8478  2.0755 -0.2220
10372TIP3    H252532   3.743   6.575   3.150  0.1797 -0.5172  2.1790
10373TIP3   OH252533   1.133   5.192  15.948 -0.3475 -0.1625 -0.0268
10373TIP3    H152534   1.127   5.227  16.037 -2.4624 -0.6501  0.0398
10373TIP3    H252535   1.050   5.216  15.907  0.1810 -0.8537 -1.5434
10374TIP3   OH252536   0.631   3.788  14.467  0.2931  0.1334 -0.4747
10374TIP3    H152537   0.638   3.878  14.435 -1.2020  0.1019 -0.9618
10374TIP3    H252538   0.591   3.741  14.394  1.1498 -0.9535 -0.2526
10375TIP3   OH252539   0.148   4.693  10.645  0.2639  0.3723 -0.1769
10375TIP3    H152540   0.191   4.748  10.710  0.0805  1.0288 -0.6173
10375TIP3    H252541   0.148   4.744  10.565 -1.0204  0.2476 -0.2679
10376TIP3   OH252542   2.799   2.600  14.095  0.1140 -0.2214  0.1615
10376TIP3    H152543   2.858   2.525  14.105 -1.2643 -1.0977  1.8789
10376TIP3    H252544   2.719   2.574  14.141 -0.6708  1.9964  0.0859
10377TIP3   OH252545   2.320   0.392  15.185 -0.4663  0.3354  0.6240
10377TIP3    H152546   2.325   0.297  15.171 -2.2210  0.3738 -0.4259
10377TIP3    H252547   2.228   0.409  15.204 -0.4124  1.9962 -0.4808
10378TIP3   OH252548   0.838   6.235  12.207  0.4656  0.2629  0.5506
10378TIP3    H152549   0.756   6.193  12.182  1.3840 -1.6710  0.7084
10378TIP3    H252550   0.867   6.280  12.128 -0.4600  0.5060  0.3428
10379TIP3   OH252551   5.022   3.703   1.094  0.6237  0.2267  0.2869
10379TIP3    H152552   5.023   3.690   1.189  0.8992  0.9235  0.3816
10379TIP3    H252553   5.087   3.771   1.079 -1.1645  1.8872 -0.1288
10380TIP3   OH252554   4.104   4.348   5.544 -0.2424  0.2837 -0.0552
10380TIP3    H152555   4.091   4.443   5.544  0.5956  0.4082 -0.7310
10380TIP3    H252556   4.103   4.323   5.636  1.5889  1.2472  0.2450
10381TIP3   OH252557   3.976   3.185  13.065 -0.2194  0.1949  0.3149
10381TIP3    H152558   3.997   3.204  12.973  2.1022  0.6414  0.9227
10381TIP3    H252559   4.048   3.129  13.095  0.6538  2.4971  2.7073
10382TIP3   OH252560   2.917   5.152   2.555 -0.1288 -0.1436  0.6897
10382TIP3    H152561   2.989   5.146   2.617  2.1484  2.2446 -1.5946
10382TIP3    H252562   2.894   5.245   2.554 -2.1681 -0.6300  0.2003
10383TIP3   OH252563   4.021   4.044   6.252  0.2650  0.5481  0.2861
10383TIP3    H152564   3.963   4.018   6.324 -2.1044  1.5446 -1.2183
10383TIP3    H252565   4.078   3.968   6.239 -0.9430 -0.6075  1.5457
10384TIP3   OH252566   2.813   2.066  13.949  0.1110 -0.0374  0.1978
10384TIP3    H152567   2.748   2.126  13.987 -0.7362  0.6308 -2.2152
10384TIP3    H252568   2.859   2.119  13.884 -0.1750 -1.7857 -1.4652
10385TIP3   OH252569   6.088   3.804   1.236  0.0447 -0.7758 -0.1550
10385TIP3    H152570   6.181   3.811   1.260 -0.2858 -1.0923  1.2675
10385TIP3    H252571   6.084   3.727   1.179  0.6824 -0.6521 -0.3698
10386TIP3   OH252572   5.622   4.978   6.225 -0.0392  0.6848  0.1289
10386TIP3    H152573   5.685   4.906   6.230  0.2932  1.0752  1.7757
10386TIP3    H252574   5.676   5.057   6.225 -0.5145  1.0079  1.1546
10387TIP3   OH252575   3.051   0.053   4.431 -0.6745 -0.0445  0.2244
10387TIP3    H152576   2.975   0.024   4.380  0.5487 -0.7240 -1.2365
10387TIP3    H252577   3.076  -0.023   4.483 -0.1626 -0.2336 -0.3019
10388TIP3   OH252578   3.960   5.618  12.945  0.2619  0.0425 -0.6364
10388TIP3    H152579   3.895   5.598  13.013 -0.0899  0.2185 -0.9252
10388TIP3    H252580   4.023   5.546  12.951  0.3701  0.1896  0.0499
10389TIP3   OH252581   4.064   4.633   3.627 -0.1044  0.2343  0.2962
10389TIP3    H152582   4.078   4.700   3.561  0.2368 -0.8346 -0.7364
10389TIP3    H252583   4.141   4.639   3.684  0.0038  0.6006  0.1107
10390TIP3   OH252584   3.601   4.033  13.138 -0.1351 -0.6191 -0.0938
10390TIP3    H152585   3.517   4.070  13.114  0.5424  1.0910  0.0615
10390TIP3    H252586   3.630   4.086  13.213  1.9173  0.0467 -1.3176
10391TIP3   OH252587   1.552   5.542  12.970 -0.3071 -0.5587  0.6696
10391TIP3    H152588   1.469   5.530  13.015 -0.7842  0.1548 -0.0143
10391TIP3    H252589   1.555   5.635  12.947 -0.4222 -1.0451 -1.4195
10392TIP3   OH252590   3.129   2.717   1.030 -0.1945  0.0395  0.3400
10392TIP3    H152591   3.160   2.630   1.053  2.7094  0.7974 -0.4563
10392TIP3    H252592   3.082   2.705   0.947 -0.0283 -0.7890  0.3633
10393TIP3   OH252593   6.201   0.458   0.417  0.1007  0.4458 -0.0844
10393TIP3    H152594   6.282   0.474   0.369 -0.1107 -2.3655 -1.4964
10393TIP3    H252595   6.201   0.364   0.434 -2.8749  0.3770 -0.0988
10394TIP3   OH252596   1.472   5.663  14.633  0.3595  0.2262 -0.2717
10394TIP3    H152597   1.481   5.735  14.570 -1.8069 -0.0728 -0.9471
10394TIP3    H252598   1.460   5.706  14.718 -1.2813  0.6950 -0.7239
10395TIP3   OH252599   3.048   0.425  13.329  0.1979  0.6225  0.6084
10395TIP3    H152600   3.078   0.334  13.334 -1.1237  0.0800 -0.9728
10395TIP3    H252601   2.956   0.421  13.353 -0.9461  0.8995 -3.4221
10396TIP3   OH252602   2.187   1.590   6.466 -0.1329 -0.4166 -0.1192
10396TIP3    H152603   2.280   1.598   6.446  0.0736  0.1689  1.0340
10396TIP3    H252604   2.160   1.509   6.423  0.8692 -0.5090 -0.5877
10397TIP3   OH252605   4.943   2.941  14.203  0.4244  0.2671 -0.0922
10397TIP3    H152606   4.966   2.948  14.296 -1.2438 -3.8823  0.7369
10397TIP3    H252607   4.986   2.861  14.173 -2.3042 -0.6543 -1.7902
10398TIP3   OH252608   1.821   1.636   2.279 -0.2542 -0.2409  0.6303
10398TIP3    H152609   1.912   1.610   2.267 -0.0618  0.2334  1.0414
10398TIP3    H252610   1.808   1.631   2.374  0.1111  2.2565  0.8350
10399TIP3   OH252611   1.126   2.120  14.187 -0.2676 -0.1653  0.3390
10399TIP3    H152612   1.151   2.150  14.274 -1.4453  1.5012  0.1406
10399TIP3    H252613   1.108   2.201  14.138 -0.6890 -1.1112 -1.1114
10400TIP3   OH252614   3.928   5.405   5.538  0.2103 -0.0341  0.6930
10400TIP3    H152615   3.947   5.499   5.532  1.3802 -0.3602 -0.9355
10400TIP3    H252616   4.014   5.364   5.544 -0.0121 -1.2834 -3.0942
10401TIP3   OH252617   0.097   1.401   4.791  0.6434  0.2340  0.2368
10401TIP3    H152618   0.188   1.371   4.800  0.3484 -1.1459 -1.1255
10401TIP3    H252619   0.087   1.419   4.697 -0.1931  1.4071  0.5357
10402TIP3   OH252620   6.505   4.377   2.175 -0.6239 -0.2885 -0.2216
10402TIP3    H152621   6.568   4.360   2.245  1.7518  0.2208 -2.1541
10402TIP3    H252622   6.444   4.303   2.178 -0.2367 -0.5359  2.0245
10403TIP3   OH252623   1.411   2.072   5.285 -0.3882  0.3238 -0.2454
10403TIP3    H152624   1.318   2.078   5.267 -0.5726  0.2124  0.6455
10403TIP3    H252625   1.420   1.991   5.335  0.2641  0.0285 -0.8378
10404TIP3   OH252626   4.554   5.284  13.141 -0.3929  0.0559 -0.3977
10404TIP3    H152627   4.626   5.315  13.197 -0.2486  0.6615 -0.9099
10404TIP3    H252628   4.592   5.211  13.093  0.1633  0.9385 -1.3208
10405TIP3   OH252629   5.756   2.013   2.766 -0.4662  0.1074  0.4653
10405TIP3    H152630   5.776   2.092   2.715 -0.0678  0.4744  1.1726
10405TIP3    H252631   5.668   1.988   2.738  0.9974 -1.6788 -2.9190
10406TIP3   OH252632   6.021   4.574  13.278 -0.1408 -0.5812  0.1883
10406TIP3    H152633   6.026   4.590  13.184 -0.5619 -0.7252  0.1437
10406TIP3    H252634   5.973   4.649  13.313 -2.5493 -1.9692 -0.0825
10407TIP3   OH252635   5.847   5.885   2.867 -0.4557  0.6436 -0.1123
10407TIP3    H152636   5.849   5.862   2.774 -0.8789 -1.6662  0.4390
10407TIP3    H252637   5.760   5.924   2.880 -0.6297  0.4006 -0.5411
10408TIP3   OH252638   2.627   2.727   1.286  0.1906 -0.6061  0.1483
10408TIP3    H152639   2.702   2.780   1.314 -0.9680  0.5545  1.1396
10408TIP3    H252640   2.623   2.740   1.192  1.5265 -1.0775  0.0103
10409TIP3   OH252641   3.467   0.362   5.591 -0.1959 -0.2336  0.5321
10409TIP3    H152642   3.392   0.320   5.550 -0.5133  1.3075 -0.5148
10409TIP3    H252643   3.438   0.380   5.681  0.1530 -2.7225  1.1716
10410TIP3   OH252644   3.202   0.402   4.019  0.5903  0.0175  0.2040
10410TIP3    H152645   3.187   0.495   4.004  0.1752 -0.3775 -1.9613
10410TIP3    H252646   3.267   0.377   3.954 -0.4546 -1.5201 -0.2884
10411TIP3   OH252647   5.502   3.165   0.548  0.8035 -0.3354  0.6707
10411TIP3    H152648   5.457   3.205   0.623 -0.8192  1.0468 -0.9963
10411TIP3    H252649   5.456   3.083   0.533  0.3501 -0.0394  0.4393
10412TIP3   OH252650   6.153   2.271   6.329 -0.2588  0.2074 -0.6066
10412TIP3    H152651   6.231   2.325   6.344 -0.2613 -0.0407  0.3021
10412TIP3    H252652   6.180   2.207   6.263  0.4443 -0.1717  0.0513
10413TIP3   OH252653   2.787   5.019   6.601 -0.1183 -0.3083 -0.5824
10413TIP3    H152654   2.837   5.093   6.567 -0.8851  0.7083  0.4761
10413TIP3    H252655   2.759   4.971   6.523  1.1350  0.0130 -1.2370
10414TIP3   OH252656   2.009   3.150   2.669  0.5829 -0.1156 -0.1948
10414TIP3    H152657   2.038   3.063   2.642  0.7763 -0.3170  0.6313
10414TIP3    H252658   1.943   3.174   2.605 -0.8405 -1.6803  0.6407
10415TIP3   OH252659   3.184   2.694   3.419  0.2340  0.3708 -0.5362
10415TIP3    H152660   3.165   2.622   3.479  0.1621  0.6175 -0.2592
10415TIP3    H252661   3.097   2.730   3.397  0.1776 -0.4945 -1.7549
10416TIP3   OH252662   6.119   3.294   5.373 -0.1918  0.6433 -0.2433
10416TIP3    H152663   6.148   3.386   5.379  0.3356  0.3656  1.8785
10416TIP3    H252664   6.196   3.243   5.399 -0.6042 -0.3814 -1.0216
10417TIP3   OH252665   2.931   2.087  15.826 -0.3409  0.0440 -0.1185
10417TIP3    H152666   2.935   2.182  15.839  1.7899 -0.1321  0.5877
10417TIP3    H252667   2.948   2.075  15.732 -1.2626  0.3896 -0.3350
10418TIP3   OH252668   2.487   2.543   1.445  0.0450  0.4271  0.3796
10418TIP3    H152669   2.416   2.513   1.387 -0.8160  1.2323  0.9989
10418TIP3    H252670   2.533   2.610   1.393  0.0321  0.2740  0.1689
10419TIP3   OH252671   3.875   4.743   4.288  0.2409  0.2585  0.4779
10419TIP3    H152672   3.849   4.771   4.201 -0.8749 -1.2542  0.3106
10419TIP3    H252673   3.971   4.749   4.287  0.2063  0.7369 -0.6802
10420TIP3   OH252674   0.994   3.322  11.926  0.5601  0.0062  0.5254
10420TIP3    H152675   1.038   3.348  11.845  0.2460 -0.8058  0.0904
10420TIP3    H252676   1.034   3.239  11.950 -1.4709 -1.3194 -0.4899
10421TIP3   OH252677   2.126   3.714  16.689 -0.3296 -0.7511  0.3007
10421TIP3    H152678   2.048   3.753  16.726  0.2753 -1.4053  2.3164
10421TIP3    H252679   2.197   3.772  16.715 -0.1594 -0.0005 -1.7677
10422TIP3   OH252680   1.053   4.416  14.751  0.3173 -0.6333 -0.5586
10422TIP3    H152681   1.073   4.379  14.665  1.7697 -0.6450 -0.2270
10422TIP3    H252682   0.989   4.355  14.788  0.2302 -1.0284 -1.3453
10423TIP3   OH252683   4.212   6.281   3.617  0.5526  0.0992  0.3504
10423TIP3    H152684   4.269   6.353   3.590  0.1571  0.4599  0.4700
10423TIP3    H252685   4.264   6.232   3.680  1.0759 -0.1161 -0.2455
10424TIP3   OH252686   5.933   5.606  15.302  0.0547  0.0617  0.3640
10424TIP3    H152687   5.994   5.543  15.266 -0.6737  0.1224 -1.0016
10424TIP3    H252688   5.955   5.689  15.260 -0.3344  0.2828  0.5881
10425TIP3   OH252689   1.433   5.937   1.201  0.2487  0.0758  0.0738
10425TIP3    H152690   1.428   5.931   1.296  0.4038  0.3914  0.1027
10425TIP3    H252691   1.507   5.995   1.184  1.7824 -1.8988 -0.2813
10426TIP3   OH252692   4.418   3.785   2.484  0.0625  0.4416  0.4693
10426TIP3    H152693   4.477   3.838   2.538 -1.2686 -0.5640  3.0188
10426TIP3    H252694   4.382   3.720   2.545 -1.8211 -0.4981 -1.5658
10427TIP3   OH252695   3.321   1.606  13.162 -0.8284  0.2023  0.5136
10427TIP3    H152696   3.251   1.557  13.207 -1.0808  0.7122  0.6742
10427TIP3    H252697   3.371   1.647  13.232  0.2087 -0.9204  0.4526
10428TIP3   OH252698   3.706   4.880   0.119 -0.1407 -0.4163  0.1049
10428TIP3    H152699   3.636   4.939   0.092 -0.0110 -0.2777  0.0681
10428TIP3    H252700   3.782   4.907   0.067 -0.2071 -0.9206 -0.2545
10429TIP3   OH252701   3.403   1.983  16.196  0.3319 -0.3264  0.3609
10429TIP3    H152702   3.317   1.965  16.232 -0.4783 -0.2701 -1.4871
10429TIP3    H252703   3.429   1.901  16.153  0.7604 -0.0438  0.0744
10430TIP3   OH252704   1.667   0.796  13.293  0.1640 -0.5852 -0.1228
10430TIP3    H152705   1.641   0.854  13.221 -1.2142  0.5349  1.2448
10430TIP3    H252706   1.762   0.788  13.284  0.3308  1.5889 -0.5557
10431TIP3   OH252707   2.549   1.151  16.836  0.2762 -0.4025  0.1986
10431TIP3    H152708   2.541   1.202  16.917  1.5584  1.7393 -0.9719
10431TIP3    H252709   2.485   1.080  16.846 -2.8951  2.4465  1.1547
10432TIP3   OH252710   3.044   2.811   3.954 -0.0183 -0.0184 -0.3259
10432TIP3    H152711   3.102   2.884   3.934 -0.9244  1.5220  2.4848
10432TIP3    H252712   3.039   2.762   3.872 -0.8514  4.0592 -2.8425
10433TIP3   OH252713   1.974   4.975  16.123  0.2449 -0.5576  0.1151
10433TIP3    H152714   1.905   4.966  16.057  1.3723  1.8849 -1.4717
10433TIP3    H252715   1.962   5.064  16.157  1.3331 -0.8565  1.2760
10434TIP3   OH252716   5.681   6.374  12.920 -0.2812 -0.2542  0.2014
10434TIP3    H152717   5.759   6.327  12.951 -0.3567 -0.3850  0.1927
10434TIP3    H252718   5.653   6.425  12.996 -1.4567 -1.8747  0.8786
10435TIP3   OH252719   5.691   6.099   1.754 -0.1073  0.1358  0.5679
10435TIP3    H152720   5.626   6.094   1.824  0.8904  1.2380  1.5973
10435TIP3    H252721   5.774   6.080   1.797  0.3497 -0.5361 -0.5934
10436TIP3   OH252722   5.835   3.539   2.554 -0.3215 -0.1440 -0.1955
10436TIP3    H152723   5.778   3.600   2.506  1.4606  0.5105 -1.5088
10436TIP3    H252724   5.822   3.455   2.510 -0.3633 -0.0189 -0.4260
10437TIP3   OH252725   5.746   4.595  12.248 -0.0997 -0.5205  0.3090
10437TIP3    H152726   5.803   4.604  12.172  2.5018 -2.1463  1.9821
10437TIP3    H252727   5.735   4.501  12.260  1.7453 -0.3968  3.4908
10438TIP3   OH252728   1.305   4.568  15.952 -0.1724  0.5146 -0.1305
10438TIP3    H152729   1.394   4.554  15.984 -0.7980 -0.5221  1.1859
10438TIP3    H252730   1.298   4.510  15.876  0.3508  0.8081 -0.4121
10439TIP3   OH252731   0.503   6.340  12.788  0.3506  0.1431 -0.1969
10439TIP3    H152732   0.410   6.319  12.797 -0.0163  1.7806 -0.0907
10439TIP3    H252733   0.527   6.377  12.873  1.2264 -0.6961 -0.0697
10440TIP3   OH252734   3.758   3.405  16.175 -0.0394  0.0090 -0.2262
10440TIP3    H152735   3.803   3.364  16.249  0.2918 -0.9169 -0.9365
10440TIP3    H252736   3.808   3.486  16.160  0.3573 -0.1747  0.0740
10441TIP3   OH252737   0.481   3.840   1.619 -1.1122  0.1600 -0.1106
10441TIP3    H152738   0.386   3.834   1.604 -1.0534 -1.9791  0.0830
10441TIP3    H252739   0.518   3.856   1.532 -1.7131  2.1943 -0.0140
10442TIP3   OH252740   0.278   0.221   3.982  0.3273  0.1765  0.0419
10442TIP3    H152741   0.315   0.250   4.065  0.2750  1.4612 -0.3622
10442TIP3    H252742   0.183   0.233   3.993  0.3831  1.2647 -0.5125
10443TIP3   OH252743   2.034   3.932  12.324  0.7254 -0.9622  0.1208
10443TIP3    H152744   2.062   3.981  12.401  1.6558 -0.9691 -0.2156
10443TIP3    H252745   1.963   3.985  12.287  0.0638 -1.1144  1.1510
10444TIP3   OH252746   5.971   3.326   0.697 -0.2105  0.0664 -0.3737
10444TIP3    H152747   6.045   3.335   0.758  0.5351 -0.2864 -1.2287
10444TIP3    H252748   5.924   3.248   0.728  0.3190 -0.2692 -0.4123
10445TIP3   OH252749   2.330   3.474  12.476 -0.5706  0.2497 -0.1760
10445TIP3    H152750   2.389   3.421  12.423  0.5551  0.3045  0.9959
10445TIP3    H252751   2.243   3.440  12.455  0.1846 -2.6981  1.1829
10446TIP3   OH252752   4.113   2.660  10.669 -0.3078  0.2795  0.5620
10446TIP3    H152753   4.150   2.579  10.704 -0.1301  0.0572 -0.1304
10446TIP3    H252754   4.091   2.639  10.578  1.4378  1.5265 -0.1868
10447TIP3   OH252755   4.225   0.487  14.550  0.1341 -0.7439  0.2562
10447TIP3    H152756   4.244   0.581  14.548 -0.1239 -0.6783  0.6946
10447TIP3    H252757   4.134   0.482  14.579 -0.2730 -1.0854 -1.0477
10448TIP3   OH252758   2.488   4.675   3.041 -0.4767 -0.2534 -0.3534
10448TIP3    H152759   2.489   4.767   3.014 -0.7247 -0.4455 -1.0287
10448TIP3    H252760   2.430   4.632   2.977 -0.7021 -0.7975  0.2146
10449TIP3   OH252761   5.053   1.782   1.785  0.2507  0.2079 -0.3983
10449TIP3    H152762   5.113   1.724   1.832 -1.5638 -1.0634  0.3887
10449TIP3    H252763   5.028   1.732   1.708  0.2382  0.7646 -0.7542
10450TIP3   OH252764   4.879   1.600  15.147 -0.0314  0.0998  0.1470
10450TIP3    H152765   4.947   1.660  15.117  1.4903 -2.5503 -1.9762
10450TIP3    H252766   4.911   1.565  15.230 -0.4557  1.4170  0.8791
10451TIP3   OH252767   0.346   2.225   2.781  0.2559  0.2643  0.3379
10451TIP3    H152768   0.294   2.149   2.805 -0.7752  1.1308  0.8853
10451TIP3    H252769   0.429   2.189   2.750  0.1811 -1.0151  1.6198
10452TIP3   OH252770   2.826   2.984   4.694  0.3954  0.0849 -0.2067
10452TIP3    H152771   2.809   2.938   4.776  0.1370 -0.7966 -0.7490
10452TIP3    H252772   2.839   3.075   4.720 -0.3787 -0.0634  0.7299
10453TIP3   OH252773   1.665   0.525  12.678  0.4185 -0.7141  0.3564
10453TIP3    H152774   1.716   0.511  12.598  1.9769  0.7523  1.0696
10453TIP3    H252775   1.577   0.493  12.656  0.7830 -0.1878 -1.9894
10454TIP3   OH252776   0.577   4.044   6.189 -0.2793  0.0816 -0.1485
10454TIP3    H152777   0.588   4.058   6.283 -2.1841  0.8958 -0.0091
10454TIP3    H252778   0.630   4.111   6.148  2.1805 -1.5358  0.2817
10455TIP3   OH252779   2.541   1.448   0.148 -0.1301  0.2423  0.6420
10455TIP3    H152780   2.456   1.434   0.191  0.8490 -0.8133  2.2779
10455TIP3    H252781   2.568   1.360   0.121  1.4460  0.2616  2.0855
10456TIP3   OH252782   0.228   3.041   1.898  0.0002 -0.4381 -0.0287
10456TIP3    H152783   0.223   3.137   1.894  0.3377 -0.4500 -1.1191
10456TIP3    H252784   0.299   3.023   1.959 -0.7743 -0.0134  1.0125
10457TIP3   OH252785   2.507   4.841   3.723 -0.0268  0.1431  0.3458
10457TIP3    H152786   2.581   4.818   3.666 -0.1501  0.1356  0.1883
10457TIP3    H252787   2.429   4.822   3.671 -0.1398  0.2225  0.4837
10458TIP3   OH252788   2.605   0.385  16.355 -0.6253 -0.1918 -0.4882
10458TIP3    H152789   2.553   0.348  16.283  0.3679  0.8421 -1.7704
10458TIP3    H252790   2.628   0.473  16.325 -0.3543  0.3383  1.1988
10459TIP3   OH252791   4.016   4.131   2.189 -0.3799 -0.3105  0.4584
10459TIP3    H152792   4.010   4.179   2.107  0.9677  1.2079  1.2117
10459TIP3    H252793   4.057   4.048   2.164 -0.9450 -0.2958 -0.5610
10460TIP3   OH252794   3.926   0.144   6.535 -0.2234 -0.0976  0.5846
10460TIP3    H152795   3.935   0.053   6.506  0.1323 -0.3954  1.5969
10460TIP3    H252796   4.005   0.160   6.587  0.0140  0.9881 -0.0830
10461TIP3   OH252797   5.431   5.077   1.810  0.0850 -0.8191 -0.4947
10461TIP3    H152798   5.389   5.012   1.867 -0.3757  0.0157  0.1318
10461TIP3    H252799   5.518   5.089   1.847  0.1866 -1.1197 -0.6392
10462TIP3   OH252800   1.980   3.120  11.830 -0.0311 -0.2430  0.1446
10462TIP3    H152801   1.900   3.075  11.858 -0.4724 -0.0639 -0.8049
10462TIP3    H252802   2.044   3.050  11.819  1.1426 -0.0334  4.7460
10463TIP3   OH252803   2.324   6.047  12.728 -0.5245  0.2590 -0.0203
10463TIP3    H152804   2.281   6.085  12.652 -0.0280 -0.4236 -0.6550
10463TIP3    H252805   2.257   5.992  12.769 -0.9067  0.9269  0.2681
10464TIP3   OH252806   1.552   4.375  15.609 -0.0230 -0.1394 -0.2467
10464TIP3    H152807   1.558   4.286  15.573 -2.0998  0.2136 -1.6104
10464TIP3    H252808   1.575   4.432  15.536  1.5012  0.4628  0.6815
10465TIP3   OH252809   1.386   4.300   6.011 -0.1147  0.2540  0.3081
10465TIP3    H152810   1.291   4.290   6.005 -0.1343  0.8406 -0.4260
10465TIP3    H252811   1.401   4.333   6.099 -0.4332 -1.5867  1.0794
10466TIP3   OH252812   0.191   0.215  15.441 -0.3143  0.4666 -0.2495
10466TIP3    H152813   0.273   0.208  15.392 -0.3579  1.1194 -0.4096
10466TIP3    H252814   0.186   0.132  15.490 -0.4743 -0.3723 -1.6495
10467TIP3   OH252815   6.382   1.740   1.239 -0.1352  0.1626 -0.5974
10467TIP3    H152816   6.424   1.825   1.251 -0.6193  0.2543  0.4467
10467TIP3    H252817   6.386   1.698   1.325 -0.7951 -0.4671 -0.8695
10468TIP3   OH252818   0.235   4.040   2.325 -0.0651 -0.3835  0.3484
10468TIP3    H152819   0.264   4.126   2.295  0.7565 -1.0805 -0.9206
10468TIP3    H252820   0.291   4.020   2.400 -1.1682  0.7589  1.4893
10469TIP3   OH252821   2.934   6.162  17.150  0.4815  0.5817 -0.0027
10469TIP3    H152822   2.898   6.229  17.207  1.0839  0.5125  0.4616
10469TIP3    H252823   2.875   6.088  17.160  0.3227  0.7311  0.1694
10470TIP3   OH252824   4.284   2.390   3.754 -0.4002 -0.0473  0.6325
10470TIP3    H152825   4.205   2.366   3.706 -0.8332  1.0951  0.7519
10470TIP3    H252826   4.353   2.390   3.687 -0.7695  0.3292  0.2455
10471TIP3   OH252827   5.556   4.340  12.222  0.2929  0.2900 -0.0888
10471TIP3    H152828   5.490   4.398  12.262 -1.0441 -1.0577 -0.2920
10471TIP3    H252829   5.550   4.359  12.129  0.4406  0.4133 -0.0739
10472TIP3   OH252830   6.760   6.478   0.503 -0.0886  0.1360  0.5829
10472TIP3    H152831   6.735   6.392   0.468 -0.9063  0.0497  1.3808
10472TIP3    H252832   6.754   6.469   0.598  1.3617  0.6141  0.7441
10473TIP3   OH252833   0.601   4.851   2.353 -0.0887  0.0533 -0.0562
10473TIP3    H152834   0.551   4.845   2.272  1.6111  0.4086 -1.1464
10473TIP3    H252835   0.535   4.846   2.422 -1.3406 -2.8496 -1.3714
10474TIP3   OH252836   3.262   3.002   0.535 -1.0717  0.0805 -0.1320
10474TIP3    H152837   3.327   3.062   0.570  0.0215 -1.5108  0.5945
10474TIP3    H252838   3.183   3.056   0.525  0.2288  1.9386 -0.7074
10475TIP3   OH252839   3.925   1.529  17.180  0.0148 -0.5648  0.6167
10475TIP3    H152840   3.992   1.480  17.229  0.6155 -0.6054 -0.2306
10475TIP3    H252841   3.868   1.565  17.248  0.0431 -1.7474  1.2865
10476TIP3   OH252842   1.441   3.348   0.489 -0.5367  0.1394  0.5038
10476TIP3    H152843   1.487   3.298   0.557  0.3521  0.5102  0.1934
10476TIP3    H252844   1.452   3.439   0.516 -3.8276  0.1403  2.1219
10477TIP3   OH252845   6.045   0.773  16.866  0.0563 -0.3406  0.3749
10477TIP3    H152846   6.082   0.727  16.791 -0.6448 -0.8805  0.3587
10477TIP3    H252847   6.059   0.866  16.846 -1.1718 -0.4319 -0.9869
10478TIP3   OH252848   2.375   1.079  15.742 -0.4447  0.0630  0.1215
10478TIP3    H152849   2.357   1.150  15.804 -3.0587 -0.0811 -0.4289
10478TIP3    H252850   2.346   1.113  15.657  0.1632 -0.9238 -0.4942
10479TIP3   OH252851   1.211   1.645   0.315 -0.5597 -0.0289  0.1089
10479TIP3    H152852   1.208   1.740   0.322  1.3902  0.2403 -2.0158
10479TIP3    H252853   1.174   1.626   0.229  2.1554 -0.8838 -0.9246
10480TIP3   OH252854   4.718   3.289  15.302 -0.7419  0.3541  0.1772
10480TIP3    H152855   4.810   3.291  15.328  0.5185  1.0977 -3.9412
10480TIP3    H252856   4.689   3.380  15.308  0.2643  0.9642 -3.0083
10481TIP3   OH252857   4.495   1.019  12.541 -0.2832 -0.0590 -0.1687
10481TIP3    H152858   4.531   1.107  12.552  0.7488 -0.5964  0.8786
10481TIP3    H252859   4.556   0.975  12.482  0.0781 -0.5421  0.5429
10482TIP3   OH252860   6.063   2.624   1.410 -0.5713 -0.8094  0.1771
10482TIP3    H152861   6.099   2.676   1.339 -0.5898 -1.5226 -0.3618
10482TIP3    H252862   5.971   2.612   1.388 -0.8625 -0.0101  0.9388
10483TIP3   OH252863   0.832   2.057   0.214 -0.0705  0.4826 -0.4381
10483TIP3    H152864   0.826   1.987   0.279 -0.1685  0.5344 -0.3904
10483TIP3    H252865   0.859   2.014   0.133  2.3522  0.7269  0.2042
10484TIP3   OH252866   4.695   6.579   0.350 -0.9709  0.0144  0.5600
10484TIP3    H152867   4.666   6.589   0.260 -1.4946  3.1042  1.0121
10484TIP3    H252868   4.637   6.637   0.400  1.5775  1.0642  2.3826
10485TIP3   OH252869   2.495   4.927  13.115  0.3850  0.1221  0.1788
10485TIP3    H152870   2.541   4.923  13.031  1.3910 -0.3988  0.7426
10485TIP3    H252871   2.447   4.844  13.119 -1.7603  1.2549 -1.0358
10486TIP3   OH252872   1.789   0.940   0.915  0.7833 -0.1649 -0.1909
10486TIP3    H152873   1.716   0.996   0.943 -0.1120  0.0009 -2.7677
10486TIP3    H252874   1.749   0.856   0.894  1.3871 -0.2022 -1.2311
10487TIP3   OH252875   3.423   2.060  13.448 -0.0746 -0.3973  0.3802
10487TIP3    H152876   3.443   2.150  13.473 -0.4147 -0.3906  0.6285
10487TIP3    H252877   3.337   2.065  13.407 -0.2727 -0.6729  0.7627
10488TIP3   OH252878   3.661   1.188  12.602 -0.1555 -0.1957 -0.1116
10488TIP3    H152879   3.732   1.226  12.654  0.5333  1.3112 -2.1014
10488TIP3    H252880   3.600   1.261  12.587 -0.2823 -0.5716 -1.5145
10489TIP3   OH252881   4.780   2.114   1.911  0.0137 -0.4034  0.1167
10489TIP3    H152882   4.760   2.151   1.998  2.5277  1.2314  0.0612
10489TIP3    H252883   4.759   2.184   1.850  1.5034 -0.2906 -0.2878
10490TIP3   OH252884   5.362   2.263  13.372 -0.2027 -0.3319 -0.0424
10490TIP3    H152885   5.442   2.292  13.417  0.1367 -1.1300 -0.1212
10490TIP3    H252886   5.296   2.329  13.395  0.5698  0.5275 -0.2603
10491TIP3   OH252887   3.480   2.379   6.266 -0.4756 -0.3387 -0.2290
10491TIP3    H152888   3.545   2.346   6.329 -0.0584  1.1550  0.1365
10491TIP3    H252889   3.398   2.379   6.314 -0.0760  1.2371  0.4832
10492TIP3   OH252890   2.309   5.978   0.702  0.6465  0.1275  0.0206
10492TIP3    H152891   2.386   5.978   0.759  1.3374  0.8894 -0.8900
10492TIP3    H252892   2.285   6.071   0.696  0.6956  0.0725 -1.0779
10493TIP3   OH252893   4.262   3.596  14.739 -0.3532 -0.4537 -0.1598
10493TIP3    H152894   4.251   3.669  14.678 -0.4427 -0.3708 -0.0437
10493TIP3    H252895   4.178   3.590  14.784  0.1177  0.2567  0.8270
10494TIP3   OH252896   1.617   1.458  15.211  0.0239 -0.3413 -0.5881
10494TIP3    H152897   1.621   1.416  15.125  1.0992  1.9127 -1.6860
10494TIP3    H252898   1.640   1.550  15.194  1.7812 -0.1908  2.3391
10495TIP3   OH252899   4.669   2.511  14.440 -0.2534  0.0808  0.1728
10495TIP3    H152900   4.590   2.534  14.391 -0.1502 -0.3950 -0.2225
10495TIP3    H252901   4.699   2.594  14.477 -0.1025  0.5275 -0.9085
10496TIP3   OH252902   2.093   3.796   1.333 -0.0721 -0.0274  0.0118
10496TIP3    H152903   2.095   3.756   1.420  0.4101  1.3597  0.6421
10496TIP3    H252904   2.046   3.878   1.345 -0.4789 -0.0783 -1.1542
10497TIP3   OH252905   5.699   0.550  12.571  0.1396 -0.3264  0.0665
10497TIP3    H152906   5.766   0.541  12.639 -2.2660 -2.2305  2.2921
10497TIP3    H252907   5.743   0.523  12.490  2.7210  0.8455  1.0300
10498TIP3   OH252908   5.141   2.890   4.381  0.3259  0.0402  0.1184
10498TIP3    H152909   5.160   2.954   4.450  0.0095 -2.0041  2.1361
10498TIP3    H252910   5.054   2.915   4.349  0.1357  0.5105  0.9917
10499TIP3   OH252911   5.309   2.799   3.980 -0.6665  0.1148 -0.4229
10499TIP3    H152912   5.288   2.713   4.016 -2.7933  0.5673 -0.5289
10499TIP3    H252913   5.275   2.796   3.890  0.2357  0.6958 -0.7898
10500TIP3   OH252914   3.672   4.425   0.605  0.1852  0.3075  0.5310
10500TIP3    H152915   3.641   4.479   0.678 -0.1410  0.1749  0.4906
10500TIP3    H252916   3.656   4.335   0.634 -1.8114  0.3047 -0.5494
10501TIP3   OH252917   2.386   5.632  12.314 -0.0529 -0.1231  0.3333
10501TIP3    H152918   2.313   5.639  12.375  0.7132 -1.2017  1.4262
10501TIP3    H252919   2.461   5.608  12.370  0.7007 -0.9641 -0.9989
10502TIP3   OH252920   4.119   0.924  15.493 -0.3004  0.5257  0.4446
10502TIP3    H152921   4.131   0.990  15.425  0.0735 -0.2084 -0.2169
10502TIP3    H252922   4.032   0.888  15.477  0.8962 -1.6697 -1.4805
10503TIP3   OH252923   1.328   6.207   4.454 -0.2571 -0.4859  0.0064
10503TIP3    H152924   1.384   6.214   4.377  0.7812  1.9056  0.9147
10503TIP3    H252925   1.302   6.297   4.473 -1.9933 -1.2419  1.3807
10504TIP3   OH252926   6.571   3.480  15.750 -0.4143 -0.1750 -0.0806
10504TIP3    H152927   6.521   3.494  15.831 -1.3995  1.1093 -0.8704
10504TIP3    H252928   6.580   3.385  15.743 -0.2118 -0.2942  1.5937
10505TIP3   OH252929   6.758   1.762  14.742 -0.4767  0.8825 -0.4971
10505TIP3    H152930   6.820   1.711  14.691 -1.1925 -1.5375  0.9803
10505TIP3    H252931   6.696   1.796  14.678 -1.3959 -2.1524 -1.2734
10506TIP3   OH252932   2.107   6.452  16.662  0.0898  0.9493 -0.4216
10506TIP3    H152933   2.082   6.505  16.738 -0.7701  1.0341 -0.7646
10506TIP3    H252934   2.161   6.510  16.609 -0.4367  1.3285 -0.5466
10507TIP3   OH252935   6.411   0.311  14.899  0.5580  0.7594  0.9194
10507TIP3    H152936   6.427   0.238  14.959  1.7127  0.5143  0.3183
10507TIP3    H252937   6.482   0.372  14.916 -0.4467  1.7827  1.4701
10508TIP3   OH252938   4.680   6.261  13.185  0.0289 -0.2943  0.2153
10508TIP3    H152939   4.669   6.348  13.147 -0.0244 -1.1597 -1.8574
10508TIP3    H252940   4.767   6.263  13.224  0.5053  0.3275 -0.8571
10509TIP3   OH252941   5.790   4.017  11.650 -0.0912 -0.1488 -0.0746
10509TIP3    H152942   5.750   3.932  11.669  0.9589 -0.7530 -0.4849
10509TIP3    H252943   5.854   3.998  11.581 -0.1564  1.0595 -0.4880
10510TIP3   OH252944   2.574   4.120  14.903  0.0036 -0.6806 -0.0036
10510TIP3    H152945   2.624   4.045  14.870  1.0567  0.4149 -0.9479
10510TIP3    H252946   2.502   4.129  14.840  0.1900 -0.5593 -0.1992
10511TIP3   OH252947   5.812   3.390  12.801 -0.5611 -0.5006 -0.3818
10511TIP3    H152948   5.717   3.378  12.799 -0.8646  1.0682  2.0319
10511TIP3    H252949   5.829   3.457  12.735 -1.0274 -1.2973 -1.3221
10512TIP3   OH252950   1.912   1.262   2.201  0.5025 -0.2738  0.5029
10512TIP3    H152951   1.869   1.279   2.117 -0.4263  0.7800  1.1809
10512TIP3    H252952   1.955   1.177   2.189  2.1735  0.8409 -1.7359
10513TIP3   OH252953   5.125   1.520   5.400  0.3251  0.2940  0.3322
10513TIP3    H152954   5.097   1.440   5.445  0.9953  0.8219  1.7265
10513TIP3    H252955   5.044   1.566   5.380  0.0104  0.0825  1.0775
10514TIP3   OH252956   0.088   5.632   4.867  0.3226 -0.1603 -0.1996
10514TIP3    H152957   0.057   5.614   4.778  0.1038  1.9254 -0.5533
10514TIP3    H252958   0.180   5.604   4.866  0.3195 -0.1678 -1.0735
10515TIP3   OH252959   3.021   0.988   2.989  0.3980  0.0209 -0.3377
10515TIP3    H152960   3.002   0.984   2.895 -0.4329  0.3449 -0.1883
10515TIP3    H252961   3.013   1.080   3.012 -3.0801 -0.4702  0.7645
10516TIP3   OH252962   6.280   3.421  14.745 -0.5312  0.1318  0.0488
10516TIP3    H152963   6.244   3.333  14.740 -0.7252  0.2830 -1.8406
10516TIP3    H252964   6.238   3.461  14.820 -2.1151 -0.6504 -0.4127
10517TIP3   OH252965   0.462   2.780  16.881 -0.0888  0.4517  0.2395
10517TIP3    H152966   0.371   2.758  16.901  0.2798 -1.0451  0.3134
10517TIP3    H252967   0.461   2.874  16.864 -1.4759  0.6250  1.2346
10518TIP3   OH252968   6.121   2.945   3.489  0.1181 -0.8233 -0.0133
10518TIP3    H152969   6.185   3.006   3.453 -0.0677 -0.5400  0.1296
10518TIP3    H252970   6.140   2.861   3.446  1.8200 -1.2227  1.4790
10519TIP3   OH252971   1.729   5.655  17.163  0.4915 -0.6822 -0.0572
10519TIP3    H152972   1.693   5.721  17.222  0.8779 -1.3821  0.9836
10519TIP3    H252973   1.697   5.572  17.198 -0.1067 -1.0390 -1.4333
10520TIP3   OH252974   4.802   0.099   3.477 -0.1692  0.1053  0.6335
10520TIP3    H152975   4.742   0.054   3.536  0.3893  0.1590  1.2412
10520TIP3    H252976   4.846   0.029   3.429 -0.3760  0.0544  0.5140
10521TIP3   OH252977   6.555   6.727  12.813  0.6342  0.4376  0.2405
10521TIP3    H152978   6.592   6.802  12.859  0.1708 -0.0316  1.4101
10521TIP3    H252979   6.566   6.747  12.720  1.4039  1.4970  0.5528
10522TIP3   OH252980   1.289   5.873  14.278  0.2758 -0.0956 -0.8250
10522TIP3    H152981   1.374   5.850  14.241 -0.0780 -3.1631  0.1505
10522TIP3    H252982   1.307   5.894  14.370 -0.0103 -0.6980 -0.6304
10523TIP3   OH252983   1.361   5.986   4.176  0.0061 -0.1280 -0.5743
10523TIP3    H152984   1.285   6.042   4.159 -0.8993 -0.4118  2.3223
10523TIP3    H252985   1.334   5.932   4.251  3.5390  0.6741  1.3583
10524TIP3   OH252986   4.495   0.389   0.360  0.2212  0.1320  0.6383
10524TIP3    H152987   4.403   0.401   0.380 -0.1925 -2.1933  0.2423
10524TIP3    H252988   4.527   0.477   0.339 -1.1642  1.4152  3.6675
10525TIP3   OH252989   2.997   3.298   1.304 -0.4923 -0.0281  0.0345
10525TIP3    H152990   3.025   3.388   1.315 -1.8707  0.4983 -0.6779
10525TIP3    H252991   3.066   3.258   1.249 -0.1112  0.6887 -0.0092
10526TIP3   OH252992   6.207   3.619   1.455  0.0785 -0.0163 -0.0636
10526TIP3    H152993   6.242   3.556   1.393 -1.1475  1.5492 -2.3988
10526TIP3    H252994   6.113   3.606   1.453 -0.1878  1.7989 -0.5235
10527TIP3   OH252995   2.757   6.272   5.326 -0.1081  0.1783 -0.5763
10527TIP3    H152996   2.804   6.193   5.355 -0.0779  0.9474  1.5690
10527TIP3    H252997   2.674   6.240   5.292  0.9717 -0.9983 -2.1695
10528TIP3   OH252998   5.400   3.719   4.570  0.2722 -0.0775  0.0303
10528TIP3    H152999   5.491   3.700   4.592  0.5077 -0.1072 -0.9557
10528TIP3    H253000   5.401   3.737   4.476 -0.4036  1.9070  0.3725
10529TIP3   OH253001   4.934   4.943  15.894 -0.1274  0.3414 -0.2172
10529TIP3    H153002   4.924   5.038  15.884  0.7587  0.1501 -3.3277
10529TIP3    H253003   4.846   4.912  15.913 -0.5495  1.6926  0.1189
10530TIP3   OH253004   4.001   3.367   1.897 -0.0270  0.1528  0.0270
10530TIP3    H153005   4.026   3.458   1.914 -0.4329  0.1810  0.4835
10530TIP3    H253006   4.057   3.315   1.955 -0.1385  0.1400  0.1235
10531TIP3   OH253007   2.526   6.431  14.531 -0.1537  0.1919  0.8797
10531TIP3    H153008   2.528   6.340  14.559 -1.0197 -0.2013 -0.2846
10531TIP3    H253009   2.446   6.466  14.570  0.6838  0.7410  2.1406
10532TIP3   OH253010   4.800   1.651  13.671 -0.3806 -0.5300 -0.6916
10532TIP3    H153011   4.721   1.706  13.675  0.3505  0.6124 -1.4304
10532TIP3    H253012   4.868   1.711  13.639  0.9109 -1.3694  0.4751
10533TIP3   OH253013   2.504   3.946  13.127 -0.1032 -1.0059 -0.1438
10533TIP3    H153014   2.586   3.916  13.167  0.1360 -1.3414 -0.8768
10533TIP3    H253015   2.525   4.032  13.091 -0.1685 -0.9354 -0.0117
10534TIP3   OH253016   0.547   4.124  14.291 -1.0172 -0.2039 -0.6664
10534TIP3    H153017   0.559   4.199  14.233 -0.0862  0.6784  0.6463
10534TIP3    H253018   0.628   4.119  14.341 -0.5531 -2.8584 -1.6044
10535TIP3   OH253019   1.307   4.565   2.155 -0.8702 -0.4229  0.5966
10535TIP3    H153020   1.245   4.639   2.158 -1.6555 -0.9941 -0.9394
10535TIP3    H253021   1.373   4.587   2.221 -0.6068  2.0859 -0.4357
10536TIP3   OH253022   1.270   2.011   6.213 -0.0195 -0.2853 -0.4549
10536TIP3    H153023   1.213   2.046   6.281 -0.6005 -0.1241 -1.0119
10536TIP3    H253024   1.215   2.011   6.134  0.7208 -0.2281 -0.9764
10537TIP3   OH253025   4.255   6.608  11.250  0.1561 -0.5179  0.5749
10537TIP3    H153026   4.209   6.650  11.177  1.9823 -0.1825 -0.4388
10537TIP3    H253027   4.224   6.654  11.328 -0.3702  0.4631 -0.1950
10538TIP3   OH253028   3.003   6.362   0.139  0.7809  0.2035  0.1570
10538TIP3    H153029   2.908   6.372   0.140  0.7964  0.5101 -0.7960
10538TIP3    H253030   3.025   6.331   0.227 -0.1747  0.3380  0.4474
10539TIP3   OH253031   6.395   4.348   4.335  0.2502  0.2670  0.9006
10539TIP3    H153032   6.444   4.303   4.266  2.4696 -1.5506  3.5157
10539TIP3    H253033   6.437   4.434   4.342  1.1201 -0.1563  1.0541
10540TIP3   OH253034   1.643   5.171   1.207  0.3675 -0.6659  0.5316
10540TIP3    H153035   1.676   5.198   1.122  1.7311 -0.6594  1.0467
10540TIP3    H253036   1.689   5.090   1.227 -0.0119 -0.7208  1.2227
10541TIP3   OH253037   5.800   3.559  15.475  0.1847 -0.6059 -0.2795
10541TIP3    H153038   5.884   3.530  15.511 -0.3318 -1.3210  0.3764
10541TIP3    H253039   5.737   3.492  15.503 -0.7288  0.2639 -0.1973
10542TIP3   OH253040   1.934   3.667   2.638  0.0591 -0.3786 -0.2446
10542TIP3    H153041   1.975   3.584   2.612  2.7480  0.4767  1.1147
10542TIP3    H253042   2.004   3.731   2.633 -1.8248  1.7157 -0.5670
10543TIP3   OH253043   5.322   3.566   1.681 -0.4252 -0.5981  0.7347
10543TIP3    H153044   5.271   3.514   1.743 -0.9211  1.2048  1.9055
10543TIP3    H253045   5.410   3.530   1.686 -0.1457  0.2806  3.4936
10544TIP3   OH253046   3.431   6.141  13.002 -0.0176 -0.5857 -0.0562
10544TIP3    H153047   3.387   6.131  12.918  0.2551 -0.8063 -0.1730
10544TIP3    H253048   3.366   6.184  13.058 -0.0879 -0.1487 -0.4722
10545TIP3   OH253049   4.687   1.266   3.852  0.6904 -0.5144  0.1610
10545TIP3    H153050   4.752   1.336   3.846 -0.6700  0.8516  1.1161
10545TIP3    H253051   4.604   1.308   3.830  0.0235 -2.0967 -0.4051
10546TIP3   OH253052   2.014   1.727  16.873 -0.0645 -0.3130  0.2384
10546TIP3    H153053   1.976   1.745  16.959 -0.1181  2.6167 -0.3511
10546TIP3    H253054   1.944   1.749  16.811  0.5695 -0.6973 -0.6144
10547TIP3   OH253055   0.684   1.641   1.850  0.7060  0.0924 -0.0097
10547TIP3    H153056   0.626   1.570   1.820 -0.0374  1.1708 -1.1664
10547TIP3    H253057   0.642   1.721   1.819  2.2078  0.9658  0.1790
10548TIP3   OH253058   3.885   6.225  12.501  0.2216 -0.2232 -0.0926
10548TIP3    H153059   3.863   6.134  12.481 -0.5105 -0.2711  0.8709
10548TIP3    H253060   3.801   6.270  12.506  0.5279  0.3102  0.3610
10549TIP3   OH253061   1.366   0.367   0.681  0.2409  0.1340 -0.0434
10549TIP3    H153062   1.271   0.363   0.677  0.3692 -0.1368 -4.5879
10549TIP3    H253063   1.395   0.282   0.647  2.1572  0.4401  0.7380
10550TIP3   OH253064   5.685   5.889   4.795  0.2965 -0.0166 -0.3120
10550TIP3    H153065   5.599   5.901   4.755 -0.5138  0.4418  1.5200
10550TIP3    H253066   5.678   5.806   4.842  0.8360  0.0713 -0.0713
10551TIP3   OH253067   6.568   0.050  13.273 -0.2653  0.5673  0.1059
10551TIP3    H153068   6.607   0.133  13.246 -2.0795  0.6138 -2.6305
10551TIP3    H253069   6.589   0.042  13.366  3.0807  2.2951 -0.4301
10552TIP3   OH253070   3.786   1.267   5.301  0.3815 -0.8743 -0.2778
10552TIP3    H153071   3.792   1.362   5.305 -2.8377 -0.6762  0.5163
10552TIP3    H253072   3.695   1.248   5.279  0.9581 -3.7805 -0.4464
10553TIP3   OH253073   5.305   5.491  14.166  0.4478 -0.3992 -0.2081
10553TIP3    H153074   5.221   5.487  14.211  0.0232  1.0919 -0.8274
10553TIP3    H253075   5.294   5.560  14.100  1.9571 -0.6028 -0.6984
10554TIP3   OH253076   3.131   4.379  13.946  0.0886 -0.3786 -0.8382
10554TIP3    H153077   3.090   4.380  13.859 -1.3432 -1.3829 -0.1929
10554TIP3    H253078   3.203   4.317  13.939  0.2036 -0.1801 -1.4104
10555TIP3   OH253079   6.606   3.697  12.798 -0.2306 -0.3253  0.2673
10555TIP3    H153080   6.671   3.628  12.788  0.0634 -0.0571  0.3295
10555TIP3    H253081   6.590   3.702  12.892 -0.4991 -0.5330  0.2352
10556TIP3   OH253082   6.545   3.664  11.208 -0.2269 -0.1041  0.0387
10556TIP3    H153083   6.593   3.731  11.158  0.3370 -1.0195 -0.6587
10556TIP3    H253084   6.461   3.657  11.163 -0.1523 -0.1208 -0.0989
10557TIP3   OH253085   6.488   5.142   5.437 -0.0318 -0.4297 -0.6126
10557TIP3    H153086   6.472   5.128   5.531  1.5289 -0.3495 -0.3079
10557TIP3    H253087   6.522   5.058   5.407 -1.0621 -0.6227 -1.2346
10558TIP3   OH253088   0.204   3.774  15.988  0.7814  0.0400 -0.3661
10558TIP3    H153089   0.172   3.728  15.910 -0.8846  2.1542 -0.9596
10558TIP3    H253090   0.296   3.791  15.968  0.4837  0.1684 -1.6730
10559TIP3   OH253091   0.133   3.191   3.687  0.5955  0.3219  0.4067
10559TIP3    H153092   0.108   3.175   3.778  0.9550 -0.5265  0.3588
10559TIP3    H253093   0.224   3.221   3.692 -0.0651  2.4071  0.4958
10560TIP3   OH253094   6.550   0.825  14.072  0.0299  0.4061 -0.1609
10560TIP3    H153095   6.607   0.750  14.083 -0.1930  0.4101  1.0976
10560TIP3    H253096   6.492   0.801  13.999  1.0771  0.0749 -0.8984
10561TIP3   OH253097   4.330   2.796  16.881  0.0710  0.0381 -0.2859
10561TIP3    H153098   4.279   2.877  16.887  1.7282  1.1711 -1.2882
10561TIP3    H253099   4.338   2.779  16.787 -1.3009 -1.9928 -0.0913
10562TIP3   OH253100   4.206   1.375   5.489 -0.3732 -0.3235 -0.9620
10562TIP3    H153101   4.189   1.283   5.470  0.4024 -0.6462 -0.1200
10562TIP3    H253102   4.271   1.373   5.559 -0.5321  0.8645 -0.7780
10563TIP3   OH253103   4.561   5.270  11.837  0.0398 -0.1157 -0.1004
10563TIP3    H153104   4.473   5.249  11.870 -0.0498  0.5340  0.0920
10563TIP3    H253105   4.564   5.229  11.750 -0.7156  0.4472 -0.4069
10564TIP3   OH253106   0.134   0.767   1.635  0.1262 -0.2753 -0.2136
10564TIP3    H153107   0.124   0.768   1.730  0.1965 -1.1878 -0.1882
10564TIP3    H253108   0.109   0.678   1.610 -0.3987  0.1291 -1.1045
10565TIP3   OH253109   0.731   4.238   3.116  0.1690 -0.1002 -0.0938
10565TIP3    H153110   0.800   4.283   3.068 -0.9230  0.5482 -1.0837
10565TIP3    H253111   0.707   4.299   3.187  1.4192 -0.8331  0.9771
10566TIP3   OH253112   0.876   3.650  11.743 -0.1321 -0.6029  0.4244
10566TIP3    H153113   0.919   3.639  11.658 -0.5679 -0.2839  0.1567
10566TIP3    H253114   0.833   3.736  11.736 -0.1310 -0.5561  0.9861
10567TIP3   OH253115   5.444   5.382  15.172 -0.2638  0.3050 -0.0805
10567TIP3    H153116   5.429   5.296  15.133  0.7271  1.0093 -2.1554
10567TIP3    H253117   5.540   5.388  15.179 -0.3800  0.7300  1.2724
10568TIP3   OH253118   0.833   2.050  14.818  0.5446  0.1881  0.4013
10568TIP3    H153119   0.840   2.067  14.725 -1.7955  0.8036  0.3104
10568TIP3    H253120   0.822   1.955  14.825 -0.0594  0.2284 -0.0081
10569TIP3   OH253121   1.609   3.461   0.263 -0.2796 -0.5462 -0.2974
10569TIP3    H153122   1.568   3.374   0.265 -0.9831 -0.2693 -1.9190
10569TIP3    H253123   1.702   3.443   0.248 -0.2862 -1.0575  0.2575
10570TIP3   OH253124   5.053   6.748  14.112 -0.0692 -0.6340  0.1415
10570TIP3    H153125   4.990   6.750  14.184 -1.2884  2.1641 -0.9178
10570TIP3    H253126   5.001   6.728  14.035  0.6815 -0.4185 -0.4251
10571TIP3   OH253127   5.303   2.045   2.876  0.2886 -0.4168  0.2847
10571TIP3    H153128   5.241   2.063   2.946  0.5203 -1.4495  0.7597
10571TIP3    H253129   5.389   2.046   2.918  0.4036 -1.3827  0.1037
10572TIP3   OH253130   4.364   6.604  16.202  0.7029 -0.0230 -0.3869
10572TIP3    H153131   4.305   6.599  16.127  1.0288 -0.0581 -0.6470
10572TIP3    H253132   4.445   6.564  16.171  0.6671 -0.5264  0.1549
10573TIP3   OH253133   6.632   3.947  14.256 -0.2748 -0.7606  0.9393
10573TIP3    H153134   6.649   4.010  14.327  2.2235  0.0662 -0.3052
10573TIP3    H253135   6.641   3.999  14.176 -1.6704 -1.9820 -0.0336
10574TIP3   OH253136   3.706   4.077   5.864  0.3267  0.3548  0.4769
10574TIP3    H153137   3.616   4.102   5.883 -0.1503 -0.1098 -1.0830
10574TIP3    H253138   3.698   3.996   5.814  1.6555 -0.2493  1.2226
10575TIP3   OH253139   0.983   0.012  15.663  0.4257 -0.1935 -0.1305
10575TIP3    H153140   0.965   0.030  15.756  0.5343 -0.5763 -0.0370
10575TIP3    H253141   0.946   0.088  15.617 -1.1147 -0.7926  0.0889
10576TIP3   OH253142   1.625   5.882   3.741  0.2008  0.3648 -0.3335
10576TIP3    H153143   1.610   5.928   3.824 -2.0910  0.3285 -0.6857
10576TIP3    H253144   1.672   5.945   3.686 -0.0149  1.1061  0.3271
10577TIP3   OH253145   5.979   4.640   1.392  0.2418 -0.0143 -0.1287
10577TIP3    H153146   6.038   4.567   1.371 -0.8644 -1.0068  0.1654
10577TIP3    H253147   5.936   4.660   1.309  0.8815  0.6207 -0.3132
10578TIP3   OH253148   6.150   6.474   2.455  0.0622  0.0144 -0.0831
10578TIP3    H153149   6.216   6.473   2.385 -0.1615 -0.0446 -0.2926
10578TIP3    H253150   6.183   6.410   2.519  0.6561  0.6292  0.2260
10579TIP3   OH253151   3.597   1.651   4.391  0.5695  0.2008 -0.2694
10579TIP3    H153152   3.634   1.738   4.379 -1.6041  1.0568 -0.9230
10579TIP3    H253153   3.585   1.643   4.486 -1.3432  1.5095 -0.3986
10580TIP3   OH253154   5.480   2.579  13.231 -0.0268 -0.4221 -0.0215
10580TIP3    H153155   5.478   2.653  13.292 -1.0152 -2.4785  2.5688
10580TIP3    H253156   5.389   2.568  13.205  0.4540  0.7315 -2.3129
10581TIP3   OH253157   4.610   6.080  10.371  0.2634  1.1462 -0.8193
10581TIP3    H153158   4.653   6.154  10.415  1.1304  0.9041 -1.2490
10581TIP3    H253159   4.612   6.103  10.278  0.2484  0.7226 -0.9240
10582TIP3   OH253160   0.437   5.501   3.431 -0.3796  0.0853  0.0561
10582TIP3    H153161   0.449   5.527   3.340 -0.5997 -0.1261 -0.0323
10582TIP3    H253162   0.525   5.505   3.469 -0.0655 -1.2225 -0.5292
10583TIP3   OH253163   1.277   0.841  16.574 -0.4344 -0.0061  0.0257
10583TIP3    H153164   1.319   0.914  16.528  0.1088  0.2516  0.9209
10583TIP3    H253165   1.334   0.824  16.648  0.2254 -2.3194 -0.9861
10584TIP3   OH253166   0.880   2.640   1.461  0.0762  0.1475  0.4800
10584TIP3    H153167   0.974   2.627   1.453  0.2374  1.1058  0.7073
10584TIP3    H253168   0.871   2.728   1.500 -0.8716 -0.4111  1.5523
10585TIP3   OH253169   1.766   3.994  13.038  0.1407  0.0499  0.1425
10585TIP3    H153170   1.843   4.042  13.009  1.8035 -2.4898  0.2003
10585TIP3    H253171   1.720   3.972  12.958  0.3894  0.0949 -0.0129
10586TIP3   OH253172   6.492   3.367  15.988 -0.0077 -0.1943 -0.8533
10586TIP3    H153173   6.482   3.293  16.048  1.4100  1.0405  0.9847
10586TIP3    H253174   6.540   3.432  16.039 -0.7906  1.8047 -2.5960
10587TIP3   OH253175   4.537   2.109  12.499 -0.0168  0.2752 -0.9351
10587TIP3    H153176   4.543   2.077  12.409  1.4224  0.9611 -1.0781
10587TIP3    H253177   4.473   2.180  12.495 -0.0306  0.2394 -1.3952
10588TIP3   OH253178   4.816   5.573  11.209  0.5639 -0.3602  0.2915
10588TIP3    H153179   4.888   5.524  11.168  0.1545 -1.3137  0.7194
10588TIP3    H253180   4.822   5.552  11.302 -1.7393 -2.3476  0.0238
10589TIP3   OH253181   1.251   1.087  13.423  0.9685  0.4193  1.2265
10589TIP3    H153182   1.299   1.011  13.456  0.6523 -0.9079 -1.2219
10589TIP3    H253183   1.229   1.064  13.333 -0.6750  2.7158  0.9945
10590TIP3   OH253184   3.476   2.597  13.810  0.3275 -0.4787  0.5824
10590TIP3    H153185   3.391   2.588  13.767 -0.4566 -2.2579  2.4280
10590TIP3    H253186   3.536   2.623  13.740 -1.7912  1.1484 -0.6759
10591TIP3   OH253187   1.192   5.312   2.224  0.1947  0.0140 -0.8754
10591TIP3    H153188   1.199   5.400   2.188  0.5442  0.2125 -0.3256
10591TIP3    H253189   1.180   5.325   2.318 -1.6369 -0.4736 -1.0244
10592TIP3   OH253190   1.528   4.737   1.747 -0.3693 -0.0775 -0.0577
10592TIP3    H153191   1.522   4.643   1.728  1.1066 -0.0818 -0.5902
10592TIP3    H253192   1.476   4.778   1.678 -1.2513 -0.5137  0.3408
10593TIP3   OH253193   1.918   1.698   4.651  0.0224  0.3173  0.0795
10593TIP3    H153194   1.979   1.709   4.578  1.6021  1.0521  1.4888
10593TIP3    H253195   1.937   1.610   4.685 -0.4008  0.1531 -0.1056
10594TIP3   OH253196   1.037   1.409   5.024  0.1311 -0.2285 -0.1176
10594TIP3    H153197   1.018   1.493   5.067  1.7455  0.3350 -0.4483
10594TIP3    H253198   1.124   1.386   5.055 -0.1412 -1.5974 -0.3533
10595TIP3   OH253199   6.747   5.970   5.091  0.5381 -0.9494 -0.2271
10595TIP3    H153200   6.731   6.059   5.060  0.2221 -1.1646 -0.6915
10595TIP3    H253201   6.838   5.970   5.120  0.0733 -0.0455  1.2730
10596TIP3   OH253202   1.913   6.618  15.544 -0.1481 -0.4169  0.4107
10596TIP3    H153203   1.909   6.652  15.455  0.8610  0.2770  0.6141
10596TIP3    H253204   1.857   6.676  15.595 -0.0369 -0.2841  0.3835
10597TIP3   OH253205   2.607   5.968   4.247  0.0894 -0.4825  0.1497
10597TIP3    H153206   2.670   5.911   4.203  1.0284 -0.0037  0.8477
10597TIP3    H253207   2.522   5.928   4.229  0.5989 -1.1965 -0.7141
10598TIP3   OH253208   5.652   4.735   6.025  0.8611  0.2643  0.3481
10598TIP3    H153209   5.619   4.654   6.064 -0.7533  1.0746  0.7057
10598TIP3    H253210   5.709   4.772   6.093  2.5898 -1.1676 -0.2926
10599TIP3   OH253211   4.569   0.546  12.170 -0.0345 -0.1313  0.0658
10599TIP3    H153212   4.474   0.553  12.164 -0.0884  0.8059  1.6875
10599TIP3    H253213   4.584   0.460  12.210 -0.1657 -0.5027 -0.6697
10600TIP3   OH253214   2.051   1.210   4.568  0.0628  0.7813  0.4340
10600TIP3    H153215   2.008   1.135   4.610 -0.0195  0.4627 -0.2105
10600TIP3    H253216   1.980   1.267   4.540 -0.0638 -0.5150 -2.0791
10601TIP3   OH253217   0.689   1.552   0.732  0.0417 -0.0866 -0.1725
10601TIP3    H153218   0.682   1.463   0.698  0.0880 -0.3422  0.4772
10601TIP3    H253219   0.632   1.604   0.675  1.5113 -0.1706 -1.7730
10602TIP3   OH253220   3.008   0.529  15.925 -0.3499  0.0315 -0.2078
10602TIP3    H153221   3.049   0.524  15.838  1.0396  1.5450  0.3369
10602TIP3    H253222   2.978   0.619  15.933  0.1846  0.1015  1.1576
10603TIP3   OH253223   0.574   6.007   4.680 -0.5004  0.1705  0.5036
10603TIP3    H153224   0.581   5.931   4.736 -2.6801  0.8060  1.6783
10603TIP3    H253225   0.565   5.971   4.591 -0.0863 -0.8889  0.8890
10604TIP3   OH253226   2.035   2.068  17.062  0.4873 -0.1365  1.0343
10604TIP3    H153227   2.077   2.148  17.094  0.3460 -0.0810  1.0800
10604TIP3    H253228   1.966   2.050  17.125  0.4552 -0.2402  0.9707
10605TIP3   OH253229   2.529   2.015  12.203  0.0424  0.3943 -0.3863
10605TIP3    H153230   2.554   2.106  12.184  1.3114  0.4608  1.4629
10605TIP3    H253231   2.499   2.018  12.294  0.9884 -1.1874 -0.0028
10606TIP3   OH253232   2.638   5.790  13.137 -0.3835  0.0083 -0.3711
10606TIP3    H153233   2.612   5.842  13.213 -0.8161 -0.0591 -0.4670
10606TIP3    H253234   2.585   5.710  13.145  1.6040 -1.2228  0.7677
10607TIP3   OH253235   0.385   4.312  15.753 -0.6312 -0.2244  0.1412
10607TIP3    H153236   0.333   4.392  15.747 -0.8776 -0.3683  0.3699
10607TIP3    H253237   0.379   4.274  15.665 -0.0620  0.2902 -0.1244
10608TIP3   OH253238   2.437   3.654  12.050  0.2481 -0.0217  0.0512
10608TIP3    H153239   2.369   3.605  12.096  0.4854  0.1227  0.5606
10608TIP3    H253240   2.398   3.741  12.036  0.1254 -0.1079 -0.1389
10609TIP3   OH253241   4.359   4.954   3.713 -0.0170  0.0614 -0.2035
10609TIP3    H153242   4.410   4.931   3.790 -1.5724 -0.0865  0.8019
10609TIP3    H253243   4.399   4.905   3.641  1.8189  0.6670  0.3860
10610TIP3   OH253244   0.308   2.749  11.038  1.0147 -0.3129  0.6261
10610TIP3    H153245   0.315   2.654  11.027  0.7847 -0.2010 -0.5298
10610TIP3    H253246   0.398   2.779  11.049  1.2202 -0.4860 -0.5424
10611TIP3   OH253247   1.402   0.192   3.520 -0.2613 -0.0812 -0.3828
10611TIP3    H153248   1.442   0.248   3.454 -0.6928 -0.7019 -1.1747
10611TIP3    H253249   1.308   0.209   3.513 -0.1743  1.3669  1.4696
10612TIP3   OH253250   6.375   5.576   1.859  0.4416 -0.3456  0.3095
10612TIP3    H153251   6.448   5.602   1.803  0.6659  0.1955  0.8556
10612TIP3    H253252   6.403   5.600   1.947  0.6595 -2.4085  0.8294
10613TIP3   OH253253   5.319   3.196   1.557  0.4235  0.0050  0.3218
10613TIP3    H153254   5.315   3.180   1.652  0.4393 -2.0229  0.0093
10613TIP3    H253255   5.285   3.115   1.518 -0.0603  1.0213 -1.3977
10614TIP3   OH253256   5.209   1.230  12.817  0.0034 -0.1409 -0.2311
10614TIP3    H153257   5.303   1.248  12.824 -0.2263  1.0492 -0.1220
10614TIP3    H253258   5.167   1.309  12.850 -1.0461 -0.0859 -1.6523
10615TIP3   OH253259   0.191   3.207  11.114 -0.7197  0.2100  0.5385
10615TIP3    H153260   0.282   3.181  11.099 -0.1693  1.4384  1.6183
10615TIP3    H253261   0.156   3.137  11.170 -0.6130 -0.5658 -0.3637
10616TIP3   OH253262   4.480   4.806   5.106 -0.2673  0.1565 -0.2560
10616TIP3    H153263   4.571   4.789   5.130 -0.1347  1.8590  0.4873
10616TIP3    H253264   4.432   4.732   5.143  0.7072 -0.3528  0.0337
10617TIP3   OH253265   1.922   1.011  11.663 -0.1267 -0.2764 -0.1194
10617TIP3    H153266   2.014   1.023  11.689  0.0786 -0.8016 -0.5927
10617TIP3    H253267   1.927   0.957  11.584 -0.7209  1.8833 -1.6636
10618TIP3   OH253268   1.938   6.500  14.708  0.4546  0.6185  0.2468
10618TIP3    H153269   1.985   6.417  14.706  0.2741  0.4339  2.1962
10618TIP3    H253270   1.860   6.485  14.655  0.3187 -0.5347  0.7597
10619TIP3   OH253271   3.574   6.638   0.936 -0.2557  0.1684  0.0080
10619TIP3    H153272   3.547   6.722   0.899 -1.9069 -0.9165 -1.3773
10619TIP3    H253273   3.512   6.575   0.898  2.1973 -1.9600 -0.5754
10620TIP3   OH253274   1.528   2.882  16.054  0.0379  0.5628  0.5040
10620TIP3    H153275   1.510   2.932  15.975  0.9064  0.1331  0.0240
10620TIP3    H253276   1.448   2.889  16.106 -0.8990  0.0361 -0.8392
10621TIP3   OH253277   4.968   1.440   3.423  1.0821  0.0368  0.0077
10621TIP3    H153278   4.980   1.416   3.515 -1.1398 -1.2466 -0.0150
10621TIP3    H253279   4.930   1.362   3.383  0.7114  1.0826 -1.7095
10622TIP3   OH253280   1.611   4.581   4.936 -0.5100  0.2078  0.3638
10622TIP3    H153281   1.567   4.666   4.943 -0.0358  0.3722  1.3998
10622TIP3    H253282   1.594   4.539   5.021 -3.0741 -1.8767 -1.0977
10623TIP3   OH253283   4.584   5.808  16.540 -0.9814 -0.1889 -0.0748
10623TIP3    H153284   4.602   5.792  16.447  0.3776 -0.2370  0.1862
10623TIP3    H253285   4.534   5.890  16.540 -1.0022 -0.1919 -0.8511
10624TIP3   OH253286   6.613   5.361  16.860 -0.1384  0.8496 -0.2483
10624TIP3    H153287   6.591   5.322  16.776  0.3712 -0.1659  0.0902
10624TIP3    H253288   6.639   5.288  16.916  0.7107  1.6406  0.4261
10625TIP3   OH253289   1.314   0.149  15.228  0.1048  0.1001 -0.2588
10625TIP3    H153290   1.283   0.234  15.260 -0.7255  0.0637 -0.9733
10625TIP3    H253291   1.238   0.108  15.187 -0.0509 -1.9319  1.9731
10626TIP3   OH253292   1.323   1.668  11.177  0.1222  0.0354 -0.1563
10626TIP3    H153293   1.322   1.753  11.222 -1.7947  0.7816 -1.5397
10626TIP3    H253294   1.416   1.647  11.167  0.6508  2.4638 -0.7064
10627TIP3   OH253295   4.297   0.478  13.493  0.2250  0.5806 -0.0099
10627TIP3    H153296   4.269   0.519  13.411  0.8673  2.2043  0.5664
10627TIP3    H253297   4.227   0.498  13.555 -0.7343 -1.4874 -0.3898
10628TIP3   OH253298   3.157   5.650  15.482 -0.4997 -0.7560 -0.3313
10628TIP3    H153299   3.061   5.660  15.483 -0.5093 -0.9627  0.4377
10628TIP3    H253300   3.181   5.631  15.572  0.4265  0.6665 -0.2638
10629TIP3   OH253301   5.540   3.405  12.731 -0.5079  0.1901  0.0978
10629TIP3    H153302   5.518   3.440  12.644 -0.1371 -1.4476 -0.6755
10629TIP3    H253303   5.457   3.380  12.769 -0.4822 -1.1776 -0.7141
10630TIP3   OH253304   4.501   4.384   1.630  0.1492  0.4312  0.0136
10630TIP3    H153305   4.488   4.315   1.695 -1.1805  0.2150 -0.4567
10630TIP3    H253306   4.506   4.465   1.680  0.4206  0.1219  0.4796
10631TIP3   OH253307   2.570   3.041  16.274  0.0834 -0.2428 -0.0023
10631TIP3    H153308   2.538   2.968  16.327  1.5735 -0.9892 -0.0935
10631TIP3    H253309   2.492   3.078  16.234 -1.0628  0.3023  2.6617
10632TIP3   OH253310   6.617   4.090   1.515 -0.1866  0.3748 -0.3165
10632TIP3    H153311   6.666   4.160   1.558  1.0757 -1.2162  0.9315
10632TIP3    H253312   6.656   4.084   1.427  0.1402  0.8235 -0.2038
10633TIP3   OH253313   3.997   0.911  10.453 -0.3803 -0.6944 -0.3969
10633TIP3    H153314   4.087   0.942  10.450  0.3313 -2.2961  1.9778
10633TIP3    H253315   3.949   0.968  10.394  1.8296  1.4527 -0.1989
10634TIP3   OH253316   0.814   0.861   4.998  0.0227  0.4392  0.1041
10634TIP3    H153317   0.770   0.790   5.045 -1.5985  0.6990 -0.9904
10634TIP3    H253318   0.867   0.905   5.065  2.4516 -2.8477  0.4383
10635TIP3   OH253319   3.775   1.162   0.841 -0.2137  0.0626  0.2673
10635TIP3    H153320   3.820   1.106   0.778 -0.3466  0.4829 -0.1978
10635TIP3    H253321   3.705   1.107   0.876 -0.6983  0.1190 -0.6018
10636TIP3   OH253322   0.212   0.644  12.170  0.5588  0.0686 -0.6511
10636TIP3    H153323   0.289   0.627  12.225 -0.6751 -0.9650  0.8305
10636TIP3    H253324   0.175   0.557  12.155  1.7506  0.1202 -4.5610
10637TIP3   OH253325   5.174   1.476  12.631 -0.8081 -0.4691 -0.3498
10637TIP3    H153326   5.191   1.535  12.704  0.1380 -1.0122 -0.1245
10637TIP3    H253327   5.259   1.466  12.588 -1.2990 -0.3581 -1.3840
10638TIP3   OH253328   3.735   6.716  13.438  0.0032  0.2149  0.4082
10638TIP3    H153329   3.734   6.808  13.464 -2.8324  0.6896 -1.2832
10638TIP3    H253330   3.689   6.671  13.509  0.4243  0.2137  0.6901
10639TIP3   OH253331   4.867   2.291   0.822 -0.3466  0.7026  0.0347
10639TIP3    H153332   4.910   2.376   0.811 -2.4092  1.8336  0.2557
10639TIP3    H253333   4.931   2.237   0.868  1.0402  2.1203 -0.1812
10640TIP3   OH253334   6.285   1.980   5.041 -0.1019 -0.1899  0.0867
10640TIP3    H153335   6.259   1.892   5.066 -1.0289 -0.1287 -0.6122
10640TIP3    H253336   6.233   2.038   5.098 -2.3808 -0.0474 -2.0249
10641TIP3   OH253337   0.567   3.443  11.969 -0.1868 -0.2069 -0.6222
10641TIP3    H153338   0.646   3.436  12.023 -0.5959 -2.5308 -0.2606
10641TIP3    H253339   0.595   3.416  11.882 -0.1949  0.6602 -0.8952
10642TIP3   OH253340   6.560   0.349   6.324 -0.0021  0.2299  0.4597
10642TIP3    H153341   6.500   0.281   6.293  0.3189  0.7487 -1.3349
10642TIP3    H253342   6.503   0.413   6.368 -0.3615 -0.9051  1.6799
10643TIP3   OH253343   1.488   1.111   6.144  0.1677 -0.3531  0.2090
10643TIP3    H153344   1.397   1.106   6.173 -0.3090  0.9703 -1.0012
10643TIP3    H253345   1.539   1.101   6.224 -1.0781  0.4888  1.1347
10644TIP3   OH253346   0.303   4.395   0.832 -0.3871  0.1614 -0.0694
10644TIP3    H153347   0.210   4.384   0.810  0.1206  0.8158 -2.8265
10644TIP3    H253348   0.328   4.477   0.789  1.2817  0.3860  1.2885
10645TIP3   OH253349   5.746   4.469   1.484 -0.1730 -0.3065  0.6084
10645TIP3    H153350   5.736   4.442   1.575  0.0744  1.3856  1.1617
10645TIP3    H253351   5.838   4.495   1.477 -0.0936 -0.7971 -0.2315
10646TIP3   OH253352   1.204   5.827   2.153  0.0690 -0.3444  0.5314
10646TIP3    H153353   1.113   5.807   2.175  0.0201  1.4722  2.1620
10646TIP3    H253354   1.199   5.883   2.076 -0.2838  0.7410  1.3277
10647TIP3   OH253355   5.086   3.018   2.560  0.0122  0.3804 -0.6381
10647TIP3    H153356   5.123   3.022   2.472  0.4489  0.5872 -0.4448
10647TIP3    H253357   5.162   3.021   2.618 -0.3669  2.0188 -0.2048
10648TIP3   OH253358   0.407   0.912  11.363 -0.1462 -0.7786 -0.1203
10648TIP3    H153359   0.460   0.989  11.384 -0.8292 -0.3217 -0.0672
10648TIP3    H253360   0.370   0.932  11.277 -1.8072 -0.2345  0.6898
10649TIP3   OH253361   4.251   1.114  10.397 -0.8581  0.0082 -0.3914
10649TIP3    H153362   4.298   1.084  10.319 -0.8772  0.7074 -0.6778
10649TIP3    H253363   4.183   1.172  10.363 -0.7864  0.4163  0.1542
10650TIP3   OH253364   2.803   1.654   3.969  0.3581  0.3549  0.4280
10650TIP3    H153365   2.888   1.697   3.962  0.6435 -0.3118 -0.3567
10650TIP3    H253366   2.745   1.720   4.007  1.0485  1.0646  0.2550
10651TIP3   OH253367   3.669   3.780  13.842 -0.0090  0.2963 -0.0184
10651TIP3    H153368   3.762   3.775  13.817 -0.6285 -3.9320 -1.9689
10651TIP3    H253369   3.623   3.790  13.759 -1.4730 -1.5055  0.5491
10652TIP3   OH253370   4.313   3.301   4.195 -0.1931 -0.1819  0.2289
10652TIP3    H153371   4.389   3.355   4.214  0.2844 -1.4568  2.0440
10652TIP3    H253372   4.242   3.364   4.181  0.7276  0.9452  0.5844
10653TIP3   OH253373   4.503   0.626   2.590 -0.2214  0.4935 -0.0216
10653TIP3    H153374   4.421   0.634   2.639 -0.7098  1.6793 -0.9887
10653TIP3    H253375   4.539   0.715   2.591  2.0314 -0.3994  2.0243
10654TIP3   OH253376   2.819   2.823  15.106 -0.0143  0.0394 -0.4900
10654TIP3    H153377   2.755   2.870  15.160 -1.4243 -0.8592 -1.3401
10654TIP3    H253378   2.890   2.802  15.167 -0.9180  0.3084  0.6819
10655TIP3   OH253379   6.554   2.052   5.970 -0.0040 -0.1740  0.1043
10655TIP3    H153380   6.537   1.989   5.900  2.6095 -0.6779 -0.1259
10655TIP3    H253381   6.588   2.129   5.924 -3.4829  1.5960  0.3479
10656TIP3   OH253382   0.693   4.920   0.849 -0.1887 -0.1440 -0.3681
10656TIP3    H153383   0.621   4.878   0.896 -1.3595  1.2589 -0.8908
10656TIP3    H253384   0.651   4.978   0.787  1.3873 -0.5651 -1.8641
10657TIP3   OH253385   2.006   3.569  16.991  0.1636 -0.3270  0.6689
10657TIP3    H153386   1.968   3.615  16.916  0.5123  1.3535  1.4843
10657TIP3    H253387   1.935   3.517  17.028  0.3275 -2.2485 -1.6171
10658TIP3   OH253388   4.656   0.732   4.551 -0.6105 -0.1931  0.8590
10658TIP3    H153389   4.706   0.777   4.619  0.6504 -1.0054  0.4853
10658TIP3    H253390   4.604   0.801   4.509  1.5851  0.9974  0.0374
10659TIP3   OH253391   4.232   6.394   5.596  0.7493  0.2291  0.4115
10659TIP3    H153392   4.195   6.364   5.679  2.7391 -1.3641  0.7691
10659TIP3    H253393   4.286   6.469   5.620  1.8815 -0.6509  0.7197
10660TIP3   OH253394   5.125   1.302   0.494 -0.2578 -0.7309  0.6275
10660TIP3    H153395   5.104   1.210   0.503 -0.1641 -0.7905  0.2531
10660TIP3    H253396   5.079   1.345   0.566 -0.0188 -1.1112  1.0032
10661TIP3   OH253397   1.999   3.175  16.849  0.0788 -0.1706 -0.8234
10661TIP3    H153398   2.030   3.097  16.804  0.6695 -0.6176  0.3562
10661TIP3    H253399   1.915   3.149  16.887  1.2616 -0.8754  1.3452
10662TIP3   OH253400   5.381   1.583  15.238  0.3072  0.0613  0.3346
10662TIP3    H153401   5.352   1.666  15.273  1.3868  0.8929 -0.6989
10662TIP3    H253402   5.473   1.598  15.213  0.0483 -0.9532 -1.3223
10663TIP3   OH253403   1.013   2.446   4.336 -0.2999 -0.5799 -0.4677
10663TIP3    H153404   1.016   2.367   4.389  0.4354  0.2842  0.8176
10663TIP3    H253405   0.926   2.445   4.296 -1.2087 -0.8322  1.4339
10664TIP3   OH253406   0.094   4.685   5.797  0.3540 -0.2342 -0.1185
10664TIP3    H153407   0.028   4.732   5.848 -0.4616 -0.9644 -0.4934
10664TIP3    H253408   0.171   4.742   5.800 -0.4793  0.9141 -0.1926
10665TIP3   OH253409   1.846   1.411   5.238  0.3485  0.4877  0.5652
10665TIP3    H153410   1.875   1.331   5.194 -2.1430 -0.0886 -0.1097
10665TIP3    H253411   1.848   1.478   5.170 -0.5221  0.2897  0.3353
10666TIP3   OH253412   3.467   5.271  12.343  0.3869 -0.4180  0.3983
10666TIP3    H153413   3.550   5.315  12.362  1.1584 -1.1520 -1.2213
10666TIP3    H253414   3.428   5.256  12.429  0.9207  1.8434  1.0879
10667TIP3   OH253415   0.862   3.800  15.282 -0.0426  0.0874 -0.8862
10667TIP3    H153416   0.935   3.769  15.336  0.0772  1.7431 -0.0928
10667TIP3    H253417   0.799   3.836  15.344  0.3581  2.5352 -1.8712
10668TIP3   OH253418   5.382   3.431  15.465 -0.2520 -0.3779  0.0175
10668TIP3    H153419   5.451   3.370  15.491 -0.8781 -1.1920 -0.1943
10668TIP3    H253420   5.345   3.393  15.385 -0.4553  0.4315 -0.2759
10669TIP3   OH253421   3.762   3.713  11.586 -0.1214  0.0519  0.0594
10669TIP3    H153422   3.726   3.637  11.539 -1.6547  0.8105 -0.0283
10669TIP3    H253423   3.752   3.690  11.678 -1.6926  0.6201  0.0517
10670TIP3   OH253424   5.786   4.560  14.957 -0.3345  0.0058 -0.2434
10670TIP3    H153425   5.814   4.511  14.880 -1.0582 -0.4332 -0.2368
10670TIP3    H253426   5.773   4.650  14.925 -0.5356 -0.1520 -0.6142
10671TIP3   OH253427   6.671   1.820  12.972  0.3179 -0.4194 -0.1725
10671TIP3    H153428   6.748   1.764  12.985 -1.2105 -2.1477  1.6404
10671TIP3    H253429   6.606   1.786  13.032 -1.3529  2.0662 -0.5110
10672TIP3   OH253430   2.625   4.566   1.417 -0.4295 -0.3143 -0.3447
10672TIP3    H153431   2.616   4.471   1.420 -0.1326 -0.2952  1.5547
10672TIP3    H253432   2.672   4.589   1.497 -0.7372  1.4617 -0.6448
10673TIP3   OH253433   1.247   4.091   3.496 -0.1231  0.3683 -0.6171
10673TIP3    H153434   1.326   4.045   3.466 -0.2049  1.1979 -2.1223
10673TIP3    H253435   1.220   4.043   3.575 -0.0932 -2.0260 -2.0320
10674TIP3   OH253436   0.090   6.452   3.870 -0.1887  0.3340 -0.6003
10674TIP3    H153437   0.036   6.419   3.942  0.9873  0.7236  0.4858
10674TIP3    H253438   0.054   6.539   3.851  0.0497  0.5913  0.1141
10675TIP3   OH253439   6.051   3.393   6.094 -0.3642 -0.6965  0.8693
10675TIP3    H153440   6.034   3.442   6.175 -2.7027 -1.1625  0.7176
10675TIP3    H253441   6.004   3.443   6.027  1.1727 -0.5808 -0.1278
10676TIP3   OH253442   2.657   6.680   5.508  1.1115 -0.0153 -0.2660
10676TIP3    H153443   2.749   6.691   5.531  1.0203 -0.8652  0.5114
10676TIP3    H253444   2.610   6.730   5.575  0.9850  0.1057 -0.4449
10677TIP3   OH253445   5.003   0.476  14.915 -0.2514 -0.0738 -0.4953
10677TIP3    H153446   4.993   0.555  14.968 -1.4760 -0.2984 -0.3885
10677TIP3    H253447   5.014   0.405  14.979 -2.2020 -0.4137 -0.4981
10678TIP3   OH253448   0.314   1.002  11.124  1.0016 -0.5392  0.0406
10678TIP3    H153449   0.372   1.076  11.107 -1.1430  1.4475  0.9347
10678TIP3    H253450   0.249   1.006  11.054 -0.4768 -0.0733  1.3763
10679TIP3   OH253451   0.122   3.251  12.080 -0.6072  0.2219 -0.3216
10679TIP3    H153452   0.155   3.315  12.142  0.7529 -0.1883 -0.6102
10679TIP3    H253453   0.074   3.187  12.133 -0.6494  0.6391  0.1346
10680TIP3   OH253454   6.784   0.826   3.134  0.1970 -0.1069 -0.0208
10680TIP3    H153455   6.766   0.918   3.151  1.1201  0.3386 -1.3785
10680TIP3    H253456   6.698   0.784   3.140 -0.2355  0.8358  0.5803
10681TIP3   OH253457   0.892   4.815  11.914  0.5701  0.4683 -0.3181
10681TIP3    H153458   0.867   4.726  11.888  0.0309  0.4854  0.1318
10681TIP3    H253459   0.920   4.806  12.005  0.7252  0.7242 -0.3411
10682TIP3   OH253460   2.508   2.023   1.140  0.0575  0.8750  0.2229
10682TIP3    H153461   2.542   2.056   1.056  0.3236 -1.3799 -0.5833
10682TIP3    H253462   2.582   2.032   1.201  0.7944 -0.1576 -0.5049
10683TIP3   OH253463   2.279   4.630   0.292 -0.7799  0.0122 -0.4219
10683TIP3    H153464   2.277   4.571   0.368  0.0411  0.2006 -0.2514
10683TIP3    H253465   2.272   4.718   0.331  1.4233  0.2208 -0.4147
10684TIP3   OH253466   1.383   6.385   0.273 -0.0403 -0.3259  0.3293
10684TIP3    H153467   1.444   6.410   0.203 -1.1269 -0.9919 -0.8906
10684TIP3    H253468   1.297   6.412   0.241 -0.4550  0.1759  1.8269
10685TIP3   OH253469   0.575   2.126   5.183  0.4648  0.1196 -0.0068
10685TIP3    H153470   0.498   2.069   5.182  0.3666  0.2585 -0.4760
10685TIP3    H253471   0.561   2.186   5.110  1.1615 -0.0432 -0.2761
10686TIP3   OH253472   2.783   1.918   1.506  0.1267  0.2171 -0.4699
10686TIP3    H153473   2.690   1.918   1.485  0.6758 -1.1904 -3.0622
10686TIP3    H253474   2.790   1.866   1.587 -1.3854  0.9010  0.1108
10687TIP3   OH253475   6.237   0.146   1.726  0.1850 -0.1088  0.1907
10687TIP3    H153476   6.204   0.136   1.816 -1.1166  1.1654 -0.1147
10687TIP3    H253477   6.310   0.207   1.734  0.4929 -0.5165  0.4769
10688TIP3   OH253478   0.130   2.275   0.490  0.8358  0.5273 -0.7366
10688TIP3    H153479   0.087   2.335   0.551  1.2367  0.6921 -0.6148
10688TIP3    H253480   0.095   2.189   0.514 -0.1382  0.7735 -1.2630
10689TIP3   OH253481   2.914   5.344   1.152 -0.0367 -0.5624 -0.6241
10689TIP3    H153482   3.007   5.328   1.138  0.2434  1.5651 -1.3074
10689TIP3    H253483   2.907   5.366   1.245 -0.2135 -2.9139 -0.0343
10690TIP3   OH253484   2.340   3.790  13.411 -0.1399 -0.4963  0.0204
10690TIP3    H153485   2.379   3.744  13.337 -0.2992 -0.2666 -0.2083
10690TIP3    H253486   2.287   3.859  13.371 -0.9471 -0.9379  0.3167
10691TIP3   OH253487   3.957   5.035  13.293  0.3200 -0.9232  0.6186
10691TIP3    H153488   4.047   5.026  13.324  0.4519  0.8124  0.7811
10691TIP3    H253489   3.966   5.074  13.206 -0.3165  0.6094  1.2238
10692TIP3   OH253490   3.826   3.099   3.388 -0.6100  0.0605 -0.6073
10692TIP3    H153491   3.836   3.088   3.293  2.1386  0.5569 -0.3980
10692TIP3    H253492   3.873   3.024   3.425  2.6133  2.5203  0.4333
10693TIP3   OH253493   1.116   1.248   4.669 -0.0682 -0.2516 -0.3653
10693TIP3    H153494   1.091   1.204   4.588 -0.9481 -0.6676  0.1293
10693TIP3    H253495   1.098   1.184   4.738  0.9244  0.0024  0.1402
10694TIP3   OH253496   3.622   6.602   2.453 -0.3641  0.2088  0.3046
10694TIP3    H153497   3.709   6.606   2.493 -0.2051  0.8453 -0.1031
10694TIP3    H253498   3.589   6.691   2.457  0.2936  0.6120 -2.4214
10695TIP3   OH253499   5.293   4.417   4.702  0.1688  0.1804  0.1310
10695TIP3    H153500   5.263   4.333   4.737  0.3920  0.1676  0.2911
10695TIP3    H253501   5.344   4.456   4.772  0.7825  0.0645 -0.2532
10696TIP3   OH253502   0.030   4.056  16.278 -0.1147  0.0839 -0.4909
10696TIP3    H153503   0.121   4.050  16.250  0.4540 -0.5360  1.4644
10696TIP3    H253504   0.015   4.150  16.291  1.0790 -0.0265  1.8644
10697TIP3   OH253505   2.229   6.341  14.408  0.5229 -0.0873 -0.2511
10697TIP3    H153506   2.186   6.342  14.494 -0.6812  1.8277 -0.8467
10697TIP3    H253507   2.271   6.255  14.404  1.0636 -0.0148  2.4698
10698TIP3   OH253508   6.484   4.593   4.005 -0.6739  0.3023 -0.4539
10698TIP3    H153509   6.429   4.620   3.932 -1.0122 -2.0923 -1.1349
10698TIP3    H253510   6.485   4.669   4.063 -0.1588  2.3603 -3.0567
10699TIP3   OH253511   2.099   4.557   2.283  0.4648  0.4394 -0.4757
10699TIP3    H153512   2.050   4.573   2.364  1.9457 -1.2995  0.8172
10699TIP3    H253513   2.050   4.486   2.240 -0.6003  1.6971 -1.3780
10700TIP3   OH253514   1.131   1.911   0.337  0.5139 -0.1312  0.4002
10700TIP3    H153515   1.084   1.986   0.300  1.0619 -0.9020 -1.9493
10700TIP3    H253516   1.085   1.892   0.419 -0.7203  1.6733  0.1584
10701TIP3   OH253517   0.066   0.012   4.206 -0.2835  0.1952  0.4707
10701TIP3    H153518   0.041   0.047   4.121 -0.4050 -2.3506 -0.5753
10701TIP3    H253519  -0.001   0.044   4.266 -1.7981 -0.3450 -0.9212
10702TIP3   OH253520   3.585   4.368  13.908  0.3163  0.8390 -0.2755
10702TIP3    H153521   3.514   4.304  13.900  1.1377 -0.0091 -0.7480
10702TIP3    H253522   3.595   4.381  14.002  3.0083 -2.9575  0.0794
10703TIP3   OH253523   2.900   3.597   3.329 -0.5425  0.0166  0.0809
10703TIP3    H153524   2.996   3.592   3.332 -0.4896 -0.0822 -1.4264
10703TIP3    H253525   2.876   3.649   3.406  0.7942  0.9705 -0.1386
10704TIP3   OH253526   2.266   0.346   3.198  0.2785 -0.5093 -0.3579
10704TIP3    H153527   2.349   0.336   3.245 -0.4922 -3.2685  0.5140
10704TIP3    H253528   2.199   0.342   3.267 -0.6086  1.2466 -1.0943
10705TIP3   OH253529   0.115   2.446  16.114  0.0812 -0.4681  0.5735
10705TIP3    H153530   0.037   2.440  16.060  0.9580 -0.7145 -0.6724
10705TIP3    H253531   0.179   2.388  16.073  1.2780  0.5333  0.9474
10706TIP3   OH253532   4.772   2.969   1.367  0.0374 -0.8682  0.1493
10706TIP3    H153533   4.792   2.876   1.368  0.2590 -0.8304 -0.2776
10706TIP3    H253534   4.844   3.008   1.316 -1.2157 -0.7513 -1.5862
10707TIP3   OH253535   2.303   2.529  15.893 -0.2217 -0.0026 -0.4556
10707TIP3    H153536   2.240   2.545  15.823 -0.0836 -1.1279 -0.8420
10707TIP3    H253537   2.282   2.595  15.959 -0.0509  1.3724 -1.7426
10708TIP3   OH253538   2.978   6.715  11.325  0.5667  0.5490  0.5138
10708TIP3    H153539   2.900   6.766  11.349 -0.6244  0.2209 -2.4760
10708TIP3    H253540   3.049   6.780  11.322  0.0202  1.1958  1.3294
10709TIP3   OH253541   3.798   2.983  14.176  0.1145  0.9098  0.3097
10709TIP3    H153542   3.773   2.991  14.084  1.9210 -0.6105 -0.3459
10709TIP3    H253543   3.736   3.040  14.222 -0.6956  1.8610 -1.8481
10710TIP3   OH253544   2.922   0.663   3.331 -0.7353 -0.1779  0.0875
10710TIP3    H153545   2.898   0.589   3.386 -0.4939  0.1695  0.6653
10710TIP3    H253546   2.914   0.630   3.242  0.4180 -1.2243  0.3633
10711TIP3   OH253547   6.402   6.056  14.764 -0.0652  0.3095  0.1274
10711TIP3    H153548   6.470   6.122  14.770  0.1155  0.0037  1.8323
10711TIP3    H253549   6.332   6.098  14.713  1.0332  0.9134 -0.9102
10712TIP3   OH253550   6.180   3.795  11.955  0.0170  0.4375  0.0420
10712TIP3    H153551   6.192   3.866  12.018  0.3471  0.7857 -0.4109
10712TIP3    H253552   6.093   3.811  11.918  0.4148  1.0802 -0.6425
10713TIP3   OH253553   5.609   5.437  13.799  0.0907 -0.4679 -0.2556
10713TIP3    H153554   5.591   5.424  13.892 -3.1159 -2.8923 -1.1096
10713TIP3    H253555   5.588   5.352  13.759  1.0860  0.6334 -3.2504
10714TIP3   OH253556   0.077   6.735  15.559 -0.0076  0.8604 -0.4857
10714TIP3    H153557   0.150   6.687  15.519  0.5483  1.5308 -0.2761
10714TIP3    H253558  -0.000   6.682  15.538  0.8890 -1.6280  2.0964
10715TIP3   OH253559   0.782   4.794  12.844  0.1901  0.1171  0.3096
10715TIP3    H153560   0.868   4.785  12.803  0.3147 -0.0449  0.6054
10715TIP3    H253561   0.796   4.767  12.934 -0.0758  0.5110  0.4699
10716TIP3   OH253562   4.088   0.337  13.759 -0.0816 -0.0487  1.0020
10716TIP3    H153563   4.125   0.423  13.742 -1.7390  0.3748 -0.6083
10716TIP3    H253564   4.016   0.354  13.820 -0.0806 -0.3579  1.0905
10717TIP3   OH253565   4.642   1.604   0.232  0.2577  0.3665  0.1095
10717TIP3    H153566   4.617   1.687   0.271 -0.3155  0.3859 -0.2751
10717TIP3    H253567   4.561   1.553   0.231  0.9428 -0.7680  1.7379
10718TIP3   OH253568   1.599   2.620  15.946 -0.4292  0.3669 -0.3728
10718TIP3    H153569   1.561   2.698  15.987  1.2794  0.5990  0.8009
10718TIP3    H253570   1.656   2.654  15.877 -0.3685  0.1065 -0.4522
10719TIP3   OH253571   1.732   1.688  16.812 -0.2310  0.1688  0.4252
10719TIP3    H153572   1.745   1.755  16.746  0.1231  1.0254  1.3531
10719TIP3    H253573   1.638   1.689  16.829 -0.1372  0.8922  0.9136
10720TIP3   OH253574   4.802   3.828  14.257 -0.4264 -0.5360 -0.2591
10720TIP3    H153575   4.862   3.782  14.316 -0.7115 -1.9776 -1.0809
10720TIP3    H253576   4.737   3.762  14.233 -1.0708  0.4125 -1.1347
10721TIP3   OH253577   5.969   5.674  13.410 -0.1263 -0.4142 -0.1586
10721TIP3    H153578   5.880   5.696  13.383 -0.6149 -2.3323 -0.1975
10721TIP3    H253579   6.018   5.663  13.329  0.0370  0.2428 -0.1461
10722TIP3   OH253580   4.207   0.826   2.530 -0.6132 -0.2421 -0.5702
10722TIP3    H153581   4.186   0.890   2.598  1.4298 -1.0610  0.8804
10722TIP3    H253582   4.278   0.866   2.480  0.5691 -1.3077  0.2477
10723TIP3   OH253583   4.372   2.312  16.895 -0.0065 -0.0841 -0.3329
10723TIP3    H153584   4.375   2.236  16.954  0.9827  0.9167  0.9101
10723TIP3    H253585   4.431   2.289  16.824 -0.2773 -0.7947 -0.3331
10724TIP3   OH253586   0.078   6.187  15.051 -0.0077  0.2325 -0.5271
10724TIP3    H153587   0.074   6.160  15.143 -0.9017 -0.2982 -0.7136
10724TIP3    H253588   0.170   6.203  15.035  0.2520 -0.4027  0.2627
10725TIP3   OH253589   2.569   1.816   2.673  0.5479 -0.6080 -0.4268
10725TIP3    H153590   2.625   1.822   2.751 -1.6299 -1.4176  1.2332
10725TIP3    H253591   2.510   1.891   2.681 -1.7226 -2.4125  0.3876
10726TIP3   OH253592   1.076   1.328  12.139  0.1517 -0.2310  0.4140
10726TIP3    H153593   1.005   1.392  12.147  0.1304 -0.2192  0.1287
10726TIP3    H253594   1.058   1.283  12.056  0.4654 -0.2457  0.3551
10727TIP3   OH253595   2.725   2.861  12.492 -0.4227  0.2945  0.4407
10727TIP3    H153596   2.666   2.788  12.477 -0.9279  0.6940  0.4756
10727TIP3    H253597   2.795   2.850  12.427  0.3095 -1.0574  1.4276
10728TIP3   OH253598   4.656   0.007   1.334  0.7811  0.0375 -0.3649
10728TIP3    H153599   4.635  -0.043   1.256  0.7959 -0.1946 -0.2206
10728TIP3    H253600   4.574   0.049   1.359  0.2162 -1.6925  0.7970
10729TIP3   OH253601   1.122   3.692  10.959  0.0302  0.0893 -0.1137
10729TIP3    H153602   1.079   3.759  10.906  2.1313  0.5645 -1.2510
10729TIP3    H253603   1.215   3.714  10.956  0.4148 -1.0463  2.1285
10730TIP3   OH253604   0.237   2.059   0.293  0.1859  0.4905 -0.1010
10730TIP3    H153605   0.317   2.110   0.310  2.3125 -2.3303 -1.2091
10730TIP3    H253606   0.237   2.045   0.199 -1.0062 -0.5446  0.0404
10731TIP3   OH253607   4.170   1.108   1.599  0.1037  0.0620 -0.2260
10731TIP3    H153608   4.225   1.109   1.521  0.3329 -1.0549 -0.0806
10731TIP3    H253609   4.086   1.143   1.570  0.5836  0.8463 -0.6774
10732TIP3   OH253610   4.237   3.504  15.906  0.3693 -0.3836 -0.2331
10732TIP3    H153611   4.248   3.423  15.956 -0.8583 -0.5460 -0.1903
10732TIP3    H253612   4.188   3.476  15.828 -0.1010  0.3325 -0.1937
10733TIP3   OH253613   4.544   4.248   5.555  0.1494 -0.2855  0.4274
10733TIP3    H153614   4.607   4.201   5.609 -0.0688  0.2172  1.1285
10733TIP3    H253615   4.486   4.181   5.520  0.5004 -0.6473  0.5426
10734TIP3   OH253616   3.604   4.118  14.299  0.5093  0.3368 -0.0845
10734TIP3    H153617   3.614   4.087  14.209 -0.7326  0.4942 -0.2753
10734TIP3    H253618   3.587   4.212  14.291 -0.7175  0.1522  0.2508
10735TIP3   OH253619   4.954   0.411  13.048 -0.3265 -0.4205 -0.0560
10735TIP3    H153620   5.029   0.426  12.990  0.5754 -1.6265  0.7713
10735TIP3    H253621   4.993   0.383  13.131 -1.6510  0.0949  0.7494
10736TIP3   OH253622   2.001   3.089  10.786  0.2656 -0.4663 -0.0220
10736TIP3    H153623   1.932   3.079  10.721 -0.6691  0.6995  0.7721
10736TIP3    H253624   2.048   3.168  10.759  0.5548 -0.5904  0.1121
10737TIP3   OH253625   4.754   5.334   5.613 -0.2640 -0.0500 -0.1326
10737TIP3    H153626   4.743   5.386   5.692 -0.3088  0.9028 -0.7625
10737TIP3    H253627   4.712   5.250   5.634  3.4089 -1.3836  2.3406
10738TIP3   OH253628   3.431   6.055   0.295  0.0063 -0.1835 -0.2929
10738TIP3    H153629   3.365   6.045   0.227  0.4374 -0.3913 -0.6837
10738TIP3    H253630   3.422   5.976   0.349  1.1864 -1.1440 -1.4487
10739TIP3   OH253631   2.130   4.322  14.434  0.3076  0.4104 -0.1523
10739TIP3    H153632   2.182   4.359  14.363 -0.4750  1.5806 -0.1275
10739TIP3    H253633   2.040   4.348  14.414  0.1546  1.2922  1.5808
10740TIP3   OH253634   1.683   5.500  12.366 -0.8228 -0.1288  0.0487
10740TIP3    H153635   1.619   5.570  12.351 -0.4099  0.1976 -0.2135
10740TIP3    H253636   1.750   5.540  12.421  1.3342  0.8406 -3.1602
10741TIP3   OH253637   1.551   3.136   0.887 -0.3841 -0.7263  0.1096
10741TIP3    H153638   1.579   3.219   0.850  1.8136 -1.3803  0.2126
10741TIP3    H253639   1.610   3.122   0.962 -1.3297 -1.9183  0.6405
10742TIP3   OH253640   0.936   4.927  15.691  0.2976 -0.2180 -0.3605
10742TIP3    H153641   1.023   4.925  15.732 -0.0031  0.9858  0.3839
10742TIP3    H253642   0.949   4.981  15.612 -0.1089  1.3908  0.6378
10743TIP3   OH253643   3.536   1.064   0.949  0.2479 -0.1253  0.1928
10743TIP3    H153644   3.497   0.991   0.900  0.2399 -0.0653  0.1092
10743TIP3    H253645   3.483   1.140   0.924 -0.1200 -0.1969  0.7432
10744TIP3   OH253646   1.668   0.483   3.229 -0.0742  0.0365 -0.1688
10744TIP3    H153647   1.612   0.535   3.173 -0.0990 -1.1037 -1.2337
10744TIP3    H253648   1.623   0.481   3.314 -0.1099  1.6358 -0.1419
10745TIP3   OH253649   1.451   2.249  15.936  0.2979  0.2533 -1.2155
10745TIP3    H153650   1.530   2.222  15.982  0.0034  0.1545 -0.7640
10745TIP3    H253651   1.449   2.196  15.856  0.6683  0.2343 -1.2109
10746TIP3   OH253652   0.735   1.937  11.272 -0.2653  0.0456 -0.2903
10746TIP3    H153653   0.779   1.931  11.187 -0.2370  0.6125 -0.3180
10746TIP3    H253654   0.651   1.893  11.258  1.2995 -3.3777  0.4614
10747TIP3   OH253655   2.661   2.670   5.043  0.6499 -0.0686  0.0721
10747TIP3    H153656   2.694   2.616   5.115  0.4211 -1.5583 -0.9146
10747TIP3    H253657   2.694   2.627   4.964 -1.6425 -0.2148 -0.8508
10748TIP3   OH253658   4.143   3.068  16.352 -0.5042 -0.0795 -0.3548
10748TIP3    H153659   4.220   3.117  16.382  0.4117 -0.9648 -1.2051
10748TIP3    H253660   4.123   3.008  16.424 -1.7833  1.6941  0.7883
10749TIP3   OH253661   4.688   3.132   2.600 -0.2457  0.3925 -0.5198
10749TIP3    H153662   4.770   3.158   2.558 -0.2740 -0.2568 -0.9830
10749TIP3    H253663   4.714   3.069   2.666 -0.4133 -0.1295 -0.9495
10750TIP3   OH253664   3.641   0.582   5.648 -0.6152 -0.0294  0.4571
10750TIP3    H153665   3.715   0.582   5.587 -0.9128  1.2099  0.0732
10750TIP3    H253666   3.584   0.512   5.618  0.7369 -1.4862  1.1891
10751TIP3   OH253667   3.414   0.418   5.864  0.0743  0.0739 -0.1069
10751TIP3    H153668   3.473   0.457   5.929 -0.0888  0.9061 -0.4528
10751TIP3    H253669   3.405   0.327   5.892  2.0805 -0.2526 -0.4511
10752TIP3   OH253670   0.070   0.864   1.393 -0.2894  0.4099  0.1235
10752TIP3    H153671   0.139   0.921   1.359  2.1982 -2.7238 -0.3438
10752TIP3    H253672   0.109   0.822   1.469 -1.8832 -1.0072  0.1899
10753TIP3   OH253673   5.260   3.087  11.490  0.1917  0.6567  0.0277
10753TIP3    H153674   5.271   3.103  11.396 -0.5904 -1.7574 -0.5266
10753TIP3    H253675   5.167   3.067  11.500  0.2589  0.9993  1.3447
10754TIP3   OH253676   2.949   5.658   6.244  0.3929 -0.1210 -0.5912
10754TIP3    H153677   2.966   5.578   6.293  1.2256 -0.1761 -0.9617
10754TIP3    H253678   3.034   5.684   6.209  0.0119  0.5519 -1.0463
10755TIP3   OH253679   6.488   1.792   3.053 -0.0845  0.2363 -0.1215
10755TIP3    H153680   6.439   1.840   3.120  0.9240  0.1509  0.7039
10755TIP3    H253681   6.550   1.855   3.017  1.4899 -0.4904  1.2178
10756TIP3   OH253682   1.078   4.906  13.077  0.1253 -0.5588  0.1483
10756TIP3    H153683   1.034   4.835  13.030 -0.5808 -1.2679  1.8497
10756TIP3    H253684   1.161   4.869  13.104  0.1570 -0.4259  0.2323
10757TIP3   OH253685   2.125   2.095  15.445 -0.1160  0.0103  0.0334
10757TIP3    H153686   2.103   2.100  15.352 -1.6926 -2.4385  0.2322
10757TIP3    H253687   2.219   2.077  15.446  0.1023  1.0445 -1.0636
10758TIP3   OH253688   2.728   3.667   5.374 -0.3753  0.0709  0.1655
10758TIP3    H153689   2.766   3.587   5.337 -0.0219  0.1929  0.2605
10758TIP3    H253690   2.635   3.647   5.385 -0.5606  0.1482 -1.1110
10759TIP3   OH253691   1.925   0.329  13.699  0.1387  0.3584 -0.4473
10759TIP3    H153692   1.871   0.303  13.624 -0.9093 -0.9210  0.7239
10759TIP3    H253693   1.943   0.247  13.745  2.3182  0.8976 -0.2981
10760TIP3   OH253694   5.658   2.440   4.997  0.4578  0.4431  0.0401
10760TIP3    H153695   5.619   2.526   4.979 -0.7443  0.0436  0.6503
10760TIP3    H253696   5.614   2.411   5.077  0.2011 -1.1377 -0.6684
10761TIP3   OH253697   0.501   1.715  12.588  0.1597 -0.9593 -0.3016
10761TIP3    H153698   0.509   1.746  12.678 -0.5312 -0.2006 -0.4939
10761TIP3    H253699   0.489   1.794  12.536  0.8014 -1.3733 -1.1016
10762TIP3   OH253700   2.226   4.393  13.841 -0.5702  0.6617  0.2448
10762TIP3    H153701   2.296   4.358  13.895  0.3342  3.0905  0.7167
10762TIP3    H253702   2.183   4.459  13.896 -2.3914  0.1551 -0.5077
10763TIP3   OH253703   0.221   1.466  11.385  0.1582  0.5917  0.3645
10763TIP3    H153704   0.264   1.547  11.413  2.1659 -1.0117  2.1619
10763TIP3    H253705   0.274   1.435  11.312  0.5967 -0.0911  0.9601
10764TIP3   OH253706   4.530   4.338  15.851  0.6190  0.2485 -0.1624
10764TIP3    H153707   4.468   4.373  15.787  1.9493 -0.5940 -1.9455
10764TIP3    H253708   4.543   4.247  15.824 -0.0688 -0.6052  2.2932
10765TIP3   OH253709   3.133   2.018  13.444  0.7187  0.0925 -0.3666
10765TIP3    H153710   3.131   2.059  13.358 -1.3245  2.5421  0.7600
10765TIP3    H253711   3.060   1.955  13.443  1.0258 -0.2610 -0.5910
10766TIP3   OH253712   0.338   5.249   0.679 -0.7285  0.0864 -0.2950
10766TIP3    H153713   0.292   5.241   0.763 -0.8877 -0.9479 -0.4830
10766TIP3    H253714   0.283   5.202   0.617  0.2911 -0.6744 -0.6290
10767TIP3   OH253715   0.885   2.818   2.713 -0.2942  0.2016  0.1912
10767TIP3    H153716   0.906   2.829   2.620 -0.7251 -0.0416  0.0607
10767TIP3    H253717   0.906   2.727   2.732  2.5518  1.0149  1.0794
10768TIP3   OH253718   6.613   4.283  16.091  0.3259  0.9196 -0.3284
10768TIP3    H153719   6.596   4.232  16.170 -1.0719  1.1539 -0.4636
10768TIP3    H253720   6.569   4.234  16.021  0.0933  1.6123 -0.6759
10769TIP3   OH253721   1.830   3.203  15.166 -0.7534  0.2254 -0.0159
10769TIP3    H153722   1.804   3.285  15.124 -0.3289  0.2061 -0.3208
10769TIP3    H253723   1.810   3.136  15.101 -0.2609  0.1767 -0.1225
10770TIP3   OH253724   0.651   1.369   5.038  0.7540 -0.6305 -0.0385
10770TIP3    H153725   0.678   1.377   4.947  0.3021  0.9318 -0.0511
10770TIP3    H253726   0.561   1.336   5.034  0.3502  0.4517 -0.2126
10771TIP3   OH253727   1.347   1.324  15.219 -0.3097 -0.8781 -0.3198
10771TIP3    H153728   1.426   1.353  15.265 -2.0155  1.2480  1.3858
10771TIP3    H253729   1.379   1.274  15.144  2.6842  1.3099 -0.5747
10772TIP3   OH253730   0.118   0.703   4.795  0.0693  0.5536  0.5486
10772TIP3    H153731   0.095   0.678   4.884 -1.1927  2.8043  0.9041
10772TIP3    H253732   0.202   0.749   4.804  0.2806  0.1813  0.4813
10773TIP3   OH253733   5.423   6.730   4.176 -0.3396  0.3415  0.1113
10773TIP3    H153734   5.353   6.727   4.240 -0.0997 -0.2055  0.3486
10773TIP3    H253735   5.451   6.822   4.175 -0.7883  0.4807  0.2988
10774TIP3   OH253736   6.564   5.099  16.785 -0.4020 -0.2718 -0.2375
10774TIP3    H153737   6.600   5.037  16.849  1.1777 -1.1536 -1.9132
10774TIP3    H253738   6.470   5.084  16.787 -0.3716 -0.2754  1.8669
10775TIP3   OH253739   5.009   0.025   0.811  0.2012  0.3764 -0.0605
10775TIP3    H153740   5.058  -0.056   0.823  0.3212  0.6890  1.6212
10775TIP3    H253741   4.983   0.051   0.899  1.7996  3.1726 -0.3632
10776TIP3   OH253742   2.038   1.742   3.030 -0.6170  0.3884  0.1828
10776TIP3    H153743   1.963   1.789   3.066 -0.2154  1.2878 -0.1412
10776TIP3    H253744   2.114   1.784   3.070 -0.2959 -0.7671  0.7976
10777TIP3   OH253745   3.482   1.600  14.003 -0.1802  0.1797 -0.2900
10777TIP3    H153746   3.572   1.635  14.004 -0.6054  1.3231  1.2341
10777TIP3    H253747   3.458   1.595  14.096 -0.4751 -3.3988 -0.4810
10778TIP3   OH253748   1.804   1.048  14.628 -0.3982  0.3074 -0.0127
10778TIP3    H153749   1.850   0.983  14.681  0.4420  0.5380 -0.4425
10778TIP3    H253750   1.804   1.127  14.681 -0.6126  0.2018  0.1404
10779TIP3   OH253751   2.109   4.473   2.695 -0.4231 -0.5541 -0.1057
10779TIP3    H153752   2.164   4.442   2.624 -1.0920  0.4704 -1.1011
10779TIP3    H253753   2.169   4.489   2.768  0.5325  0.0672 -1.0133
10780TIP3   OH253754   1.469   2.617  15.341 -0.3308  0.5614 -0.0923
10780TIP3    H153755   1.438   2.533  15.309  1.0557  0.2445 -0.6688
10780TIP3    H253756   1.488   2.603  15.434 -0.2111  0.2564 -0.1610
10781TIP3   OH253757   0.490   3.823  12.672 -0.1033 -0.0406 -0.1685
10781TIP3    H153758   0.453   3.754  12.727  0.5928  1.3332  2.0979
10781TIP3    H253759   0.418   3.884  12.658 -0.4740 -0.7383 -1.4279
10782TIP3   OH253760   5.993   2.065  15.760  0.4418 -0.3960  0.0986
10782TIP3    H153761   5.966   2.000  15.694 -0.8084 -1.1503  1.3065
10782TIP3    H253762   6.058   2.019  15.813  0.4709 -0.2393  0.1963
10783TIP3   OH253763   4.995   6.570   2.170  0.3200  0.1645 -0.1222
10783TIP3    H153764   5.064   6.600   2.229 -0.8427  1.6980  0.5187
10783TIP3    H253765   4.915   6.607   2.208 -0.6676 -0.3921 -1.6460
10784TIP3   OH253766   1.997   1.508  15.314  0.3700  0.3245  0.5823
10784TIP3    H153767   1.986   1.459  15.233  1.0657  0.1152  0.6074
10784TIP3    H253768   2.006   1.599  15.286  2.8829 -0.0053  0.2453
10785TIP3   OH253769   6.724   5.707   2.558 -0.2482  0.2991 -0.9269
10785TIP3    H153770   6.815   5.732   2.542  0.1032 -0.1971  0.2539
10785TIP3    H253771   6.704   5.739   2.645 -0.8412 -0.5939 -0.7178
10786TIP3   OH253772   1.010   2.793  14.785 -0.8039  0.7805  0.1710
10786TIP3    H153773   1.085   2.850  14.804 -0.0356  0.1689 -1.0136
10786TIP3    H253774   1.033   2.709  14.824 -0.7569  0.5218 -0.4084
10787TIP3   OH253775   0.655   6.310  14.903  0.2908  0.5925 -0.0311
10787TIP3    H153776   0.588   6.256  14.862 -0.1813  0.8780  0.3636
10787TIP3    H253777   0.689   6.365  14.832  0.6912 -0.1368 -0.4106
10788TIP3   OH253778   1.471   0.665   3.121  0.0863  0.3624 -0.7605
10788TIP3    H153779   1.503   0.755   3.115  1.2549  0.0346  0.3747
10788TIP3    H253780   1.397   0.670   3.181  1.5185  0.2418  1.0719
10789TIP3   OH253781   3.722   1.221   0.050  0.1206  0.5809 -0.2451
10789TIP3    H153782   3.815   1.197   0.051  0.1060  0.5323  0.5750
10789TIP3    H253783   3.692   1.200   0.138 -0.9280 -0.4216 -0.8377
10790TIP3   OH253784   3.523   0.241   1.330 -0.1589  0.5894  0.1098
10790TIP3    H153785   3.506   0.150   1.308  1.1385  0.2233  0.5654
10790TIP3    H253786   3.487   0.291   1.257 -2.6347 -0.1667  0.7894
10791TIP3   OH253787   5.433   5.205   1.423  0.1933  0.0021 -0.0791
10791TIP3    H153788   5.466   5.283   1.378  2.2041  0.2759  1.8004
10791TIP3    H253789   5.470   5.131   1.375  1.2088  0.2705  0.2849
10792TIP3   OH253790   2.734   6.150  12.624  0.1363 -0.3328  0.5648
10792TIP3    H153791   2.804   6.105  12.577  1.7552  1.3250  1.3698
10792TIP3    H253792   2.697   6.083  12.682  0.9230 -1.2600  0.0088
10793TIP3   OH253793   1.135   6.713  13.620  0.1057  0.3075  1.1177
10793TIP3    H153794   1.160   6.806  13.612  0.9172  0.1003  1.2398
10793TIP3    H253795   1.141   6.679  13.531  0.5746  0.1796  1.1965
10794TIP3   OH253796   6.273   2.939   2.537  0.2630 -0.0768 -0.5341
10794TIP3    H153797   6.209   2.981   2.479  1.8987  0.6793 -1.8368
10794TIP3    H253798   6.236   2.853   2.556 -0.8218  0.0965 -1.8020
10795TIP3   OH253799   2.484   4.363  14.050  0.1315 -0.0868  0.3426
10795TIP3    H153800   2.528   4.341  14.131 -1.0332  0.3688  1.1171
10795TIP3    H253801   2.398   4.395  14.077 -0.1176  0.4763 -1.0403
10796TIP3   OH253802   3.201   0.134  16.810  0.0743  0.3708  0.8241
10796TIP3    H153803   3.228   0.044  16.829  0.0506  0.2863  0.4541
10796TIP3    H253804   3.272   0.171  16.758 -0.6837  0.0370 -0.4525
10797TIP3   OH253805   2.951   4.397  10.302  0.7424 -0.8703 -0.0000
10797TIP3    H153806   3.020   4.440  10.354  0.6210 -0.5719 -0.0837
10797TIP3    H253807   2.892   4.469  10.277 -0.1703 -1.2842  0.9511
10798TIP3   OH253808   0.664   0.723   5.666  0.3931 -0.0009 -0.2425
10798TIP3    H153809   0.664   0.775   5.746  2.9492 -1.0023  0.4360
10798TIP3    H253810   0.601   0.652   5.683  0.1622  0.3729  0.4713
10799TIP3   OH253811   5.975   1.020   3.880  0.4139 -0.0476  0.5201
10799TIP3    H153812   6.019   1.093   3.925  0.1436  0.1602  0.4523
10799TIP3    H253813   5.996   0.943   3.933 -0.6432  0.3277  1.5125
10800TIP3   OH253814   4.169   5.696   4.126  0.5099 -0.4308 -0.4572
10800TIP3    H153815   4.228   5.745   4.068 -0.3488  1.2966  0.0972
10800TIP3    H253816   4.220   5.684   4.206  1.4413 -2.2072 -1.2834
10801TIP3   OH253817   5.050   1.316  13.456 -0.1589 -0.4383 -0.6517
10801TIP3    H153818   5.051   1.296  13.362 -2.2930 -0.5783 -0.6772
10801TIP3    H253819   4.961   1.295  13.484  0.7441 -1.3828  1.6469
10802TIP3   OH253820   3.113   3.027  15.509 -0.0811  0.4124  0.7544
10802TIP3    H153821   3.093   3.085  15.582  0.4863 -0.9107  1.9941
10802TIP3    H253822   3.149   2.948  15.550 -0.1541 -0.5300 -0.9280
10803TIP3   OH253823   4.881   4.091   4.574 -0.4543  0.0739  0.0416
10803TIP3    H153824   4.819   4.163   4.571  2.9316  3.2278  1.6959
10803TIP3    H253825   4.899   4.071   4.482 -1.2920  1.4478 -0.4311
10804TIP3   OH253826   2.716   2.581  11.269  0.7124  0.5523 -0.0929
10804TIP3    H153827   2.799   2.588  11.221  1.1401  0.6457  0.6631
10804TIP3    H253828   2.696   2.488  11.269  2.3871  0.1571  2.3836
10805TIP3   OH253829   3.216   3.164  16.367 -0.4469 -0.3618  0.0237
10805TIP3    H153830   3.257   3.090  16.320 -0.4287 -0.2319 -0.1660
10805TIP3    H253831   3.123   3.141  16.371 -0.5244 -0.1351 -0.5188
10806TIP3   OH253832   3.643   2.969   4.569 -0.2284 -0.0277  0.8243
10806TIP3    H153833   3.621   2.900   4.506 -0.4182  1.4314 -0.7366
10806TIP3    H253834   3.579   2.959   4.640 -0.3140 -1.3745  0.5706
10807TIP3   OH253835   5.727   5.519   1.277 -0.3398 -0.5709  0.1603
10807TIP3    H153836   5.681   5.593   1.237 -1.2081 -1.0295  0.2989
10807TIP3    H253837   5.753   5.551   1.363  1.5483  0.4252 -0.7551
10808TIP3   OH253838   6.291   2.302  12.619 -0.2597 -0.1103  0.4983
10808TIP3    H153839   6.345   2.314  12.698 -0.2895  1.7915  0.2509
10808TIP3    H253840   6.327   2.364  12.556 -0.8624 -0.9362 -0.6629
10809TIP3   OH253841   0.329   5.157   6.450 -0.1830  0.1669 -0.8012
10809TIP3    H153842   0.353   5.248   6.464 -2.2311  0.3618  1.9407
10809TIP3    H253843   0.409   5.116   6.416  1.3759  2.5378 -0.1270
10810TIP3   OH253844   4.958   5.356  11.081 -0.0157  0.0499  0.7335
10810TIP3    H153845   4.863   5.345  11.073  0.0159 -0.6700  1.2816
10810TIP3    H253846   4.976   5.338  11.173  0.7391 -0.4331  0.4891
10811TIP3   OH253847   6.540   3.940  16.761 -0.7016 -0.2023 -0.5485
10811TIP3    H153848   6.511   4.027  16.789 -1.4794 -1.4091  2.6143
10811TIP3    H253849   6.465   3.884  16.778  0.6528 -1.9365 -0.1934
10812TIP3   OH253850   5.624   5.126   4.411 -0.3669  0.3121  0.2834
10812TIP3    H153851   5.601   5.163   4.325  1.0550 -1.2389 -0.7887
10812TIP3    H253852   5.540   5.097   4.448 -0.8737  0.0712 -1.0317
10813TIP3   OH253853   3.010   4.738  13.780 -0.0854 -0.5099  0.2891
10813TIP3    H153854   3.011   4.701  13.869  1.3380 -0.1149  0.4543
10813TIP3    H253855   2.925   4.713  13.744 -1.2728  0.5151  2.2764
10814TIP3   OH253856   2.961   4.764  17.064 -0.3482  0.2337 -0.2820
10814TIP3    H153857   2.950   4.764  17.159  0.9630  2.7722 -0.0853
10814TIP3    H253858   2.895   4.825  17.032 -0.1911  0.0673 -0.9279
10815TIP3   OH253859   6.481   6.693  15.638  0.4135  0.0810  0.4776
10815TIP3    H153860   6.538   6.618  15.656  0.7299  0.6893  2.1205
10815TIP3    H253861   6.438   6.711  15.721 -3.0381 -1.0205 -1.0087
10816TIP3   OH253862   2.123   6.597  15.828 -0.3476  0.2492 -0.3417
10816TIP3    H153863   2.215   6.575  15.846 -0.1641 -0.4656 -2.0728
10816TIP3    H253864   2.093   6.641  15.908  1.4067  0.2120  0.3637
10817TIP3   OH253865   0.171   3.005  11.775  0.5094  0.0983 -0.4097
10817TIP3    H153866   0.168   3.090  11.731 -1.3263 -0.9355 -2.3910
10817TIP3    H253867   0.140   3.023  11.864 -1.0027  1.2938 -1.1567
10818TIP3   OH253868   1.557   0.356   5.373  0.3549  0.3725  0.3918
10818TIP3    H153869   1.506   0.429   5.408  0.1957  0.2562  0.3969
10818TIP3    H253870   1.550   0.365   5.278  1.4771  1.1870  0.3708
10819TIP3   OH253871   3.606   4.443  12.679  0.6526 -0.8036 -0.2106
10819TIP3    H153872   3.631   4.380  12.746 -0.2555 -0.7934  0.1359
10819TIP3    H253873   3.512   4.430  12.666  0.7302 -0.4899 -1.1495
10820TIP3   OH253874   5.142   2.517   4.520  0.6405 -0.0236  0.6752
10820TIP3    H153875   5.098   2.547   4.600  1.1533  2.0479  0.1983
10820TIP3    H253876   5.088   2.444   4.489 -1.8572  1.7464  0.6940
10821TIP3   OH253877   2.999   2.878   5.128 -0.3337 -0.2692  0.4050
10821TIP3    H153878   2.975   2.795   5.170 -1.1335  0.2861  1.0871
10821TIP3    H253879   3.001   2.858   5.035 -4.1268 -0.2419  0.2365
10822TIP3   OH253880   1.675   4.327   4.278  0.3009  0.3694 -0.6553
10822TIP3    H153881   1.628   4.401   4.240 -0.5154 -0.7667 -1.8634
10822TIP3    H253882   1.655   4.332   4.372 -0.7354  0.9614 -0.9044
10823TIP3   OH253883   2.132   0.085  13.652  0.4684 -0.0354 -0.5060
10823TIP3    H153884   2.156   0.162  13.704  1.1372  0.8498 -2.1202
10823TIP3    H253885   2.173   0.098  13.567  0.7899 -2.2985 -0.7440
10824TIP3   OH253886   1.367   5.821  11.537 -0.4377 -0.2016  0.0244
10824TIP3    H153887   1.439   5.872  11.574 -0.3110 -0.5811  0.3058
10824TIP3    H253888   1.397   5.799  11.449 -0.8702  0.9606 -0.4291
10825TIP3   OH253889   2.476   2.119   2.043  0.5765 -0.3105  0.3603
10825TIP3    H153890   2.525   2.105   2.125 -1.0543  0.9697  1.5920
10825TIP3    H253891   2.505   2.048   1.986  1.1247 -1.7528  2.3463
10826TIP3   OH253892   5.156   4.140   5.025 -0.1162  0.0514  0.0187
10826TIP3    H153893   5.132   4.130   4.933  2.6671  3.0973 -1.1341
10826TIP3    H253894   5.252   4.140   5.025 -0.0645  1.3302  2.7351
10827TIP3   OH253895   0.469   4.617   0.684 -0.2648  0.3166 -0.0413
10827TIP3    H153896   0.474   4.607   0.588 -0.2610  1.5021 -0.1703
10827TIP3    H253897   0.412   4.693   0.697 -1.0297 -0.4089  0.9301
10828TIP3   OH253898   2.718   4.530  12.598  0.1597 -0.6456  0.0809
10828TIP3    H153899   2.775   4.601  12.629  0.9387  0.5623 -3.8331
10828TIP3    H253900   2.630   4.558  12.622  0.5142  1.3982 -0.8503
10829TIP3   OH253901   1.927   6.725  16.657 -0.1247  0.2733 -0.0821
10829TIP3    H153902   1.943   6.734  16.563 -0.5359 -0.3961 -0.2187
10829TIP3    H253903   1.836   6.698  16.664  0.0879 -0.3286  0.4712
10830TIP3   OH253904   3.402   5.666   0.633 -0.3692 -0.0028  0.0949
10830TIP3    H153905   3.430   5.578   0.607 -0.1227  0.1617 -0.1916
10830TIP3    H253906   3.429   5.722   0.561  1.2575  0.6255  1.1603
10831TIP3   OH253907   0.474   1.258  11.898 -0.0484  0.6732 -0.0577
10831TIP3    H153908   0.405   1.289  11.839  0.8594  0.8654 -1.0262
10831TIP3    H253909   0.512   1.338  11.935 -0.0230  0.5871  0.1014
10832TIP3   OH253910   1.108   4.329   1.752 -0.7099 -0.0051 -0.4214
10832TIP3    H153911   1.080   4.396   1.814 -1.6326  0.8507 -1.7274
10832TIP3    H253912   1.163   4.270   1.803 -0.0888  1.6037  0.8113
10833TIP3   OH253913   1.970   2.365   0.791  0.2549 -0.4586  0.0054
10833TIP3    H153914   1.982   2.273   0.816 -0.8081 -0.5215  0.2936
10833TIP3    H253915   2.059   2.397   0.775  0.6590 -1.4397  0.2509
10834TIP3   OH253916   1.566   3.245  15.386 -0.0455  0.2452 -0.6836
10834TIP3    H153917   1.500   3.292  15.438 -0.5187  1.2723 -2.1872
10834TIP3    H253918   1.544   3.265  15.295  1.2422 -0.9039 -1.2643
10835TIP3   OH253919   5.041   6.399  17.168  0.3010 -0.2362  0.4241
10835TIP3    H153920   5.093   6.350  17.232  1.3027 -0.4540 -0.5486
10835TIP3    H253921   4.957   6.413  17.212 -0.5121 -4.0086  0.1961
10836TIP3   OH253922   5.709   1.145  15.943 -0.0262 -0.2581 -0.0613
10836TIP3    H153923   5.743   1.147  16.032 -0.8729 -0.7743  0.2835
10836TIP3    H253924   5.754   1.217  15.898 -0.4772  0.7901  1.1122
10837TIP3   OH253925   1.930   4.855  15.208 -0.4592  0.1186 -0.1493
10837TIP3    H153926   1.887   4.832  15.290 -0.6168 -0.9425 -0.5323
10837TIP3    H253927   1.932   4.774  15.157  2.9503 -0.1643  0.2781
10838TIP3   OH253928   3.991   1.892   3.066  0.1320 -0.1805 -0.4144
10838TIP3    H153929   4.013   1.801   3.047  0.7505 -0.3345  0.9272
10838TIP3    H253930   3.913   1.888   3.121 -0.0738  0.1173 -0.6818
10839TIP3   OH253931   6.524   4.260  12.899 -0.0007  0.2215 -0.5653
10839TIP3    H153932   6.517   4.317  12.822 -2.0093  2.2247  1.0321
10839TIP3    H253933   6.463   4.189  12.881  0.4281  0.0356 -1.3372
10840TIP3   OH253934   6.476   1.601  14.134  0.0928 -0.5136 -0.1293
10840TIP3    H153935   6.398   1.548  14.113  0.6152 -1.5704  0.5648
10840TIP3    H253936   6.532   1.592  14.057 -0.8044  0.9269 -0.9907
10841TIP3   OH253937   2.773   5.096   0.193 -0.7876  0.9049  0.3633
10841TIP3    H153938   2.856   5.140   0.178 -0.6141 -0.0282 -1.5629
10841TIP3    H253939   2.791   5.035   0.265 -0.1317  1.5301  0.7315
10842TIP3   OH253940   4.122   4.819  14.651 -0.4756 -0.4563  0.0963
10842TIP3    H153941   4.137   4.910  14.623  0.0952 -0.1467  1.3448
10842TIP3    H253942   4.071   4.780  14.580 -1.3044  1.0328 -0.1555
10843TIP3   OH253943   3.174   5.363  12.357  0.6646 -0.0906 -0.1409
10843TIP3    H153944   3.225   5.441  12.380  0.1139  1.0544 -2.6637
10843TIP3    H253945   3.219   5.326  12.281  0.0133 -1.3778  0.0752
10844TIP3   OH253946   1.413   4.324  14.589 -0.5397 -0.5612  0.5851
10844TIP3    H153947   1.378   4.242  14.623 -0.6308 -1.1761 -0.9409
10844TIP3    H253948   1.504   4.303  14.565 -1.0018 -0.6411 -1.1848
10845TIP3   OH253949   6.633   4.893   6.276 -0.3286  0.3082  0.6627
10845TIP3    H153950   6.548   4.882   6.234  0.5112  2.8264 -1.8536
10845TIP3    H253951   6.678   4.809   6.260 -0.6155  0.6390 -2.2739
10846TIP3   OH253952   4.757   3.874  11.786 -0.2801  0.3349 -0.6432
10846TIP3    H153953   4.747   3.963  11.752 -1.3996 -0.1642 -1.7043
10846TIP3    H253954   4.695   3.822  11.734 -0.4007 -0.8706  0.6758
10847TIP3   OH253955   1.795   0.532   0.563  0.5741 -0.0036  0.1475
10847TIP3    H153956   1.716   0.559   0.517  0.1713  0.6280  1.1819
10847TIP3    H253957   1.773   0.446   0.599  1.1811 -0.8752 -1.5181
10848TIP3   OH253958   0.842   5.559  16.000 -0.8435  0.2088  0.4623
10848TIP3    H153959   0.844   5.643  16.045 -0.5048  1.0105 -1.0426
10848TIP3    H253960   0.772   5.567  15.935  1.4979  0.5895 -2.0715
10849TIP3   OH253961   5.211   6.546   0.547 -0.0144  0.4968 -0.2014
10849TIP3    H153962   5.265   6.591   0.612 -0.9252  0.7221  0.4221
10849TIP3    H253963   5.124   6.585   0.558 -0.5104 -0.4959 -0.5736
10850TIP3   OH253964   4.441   1.823   1.544  0.1089 -0.5928  0.1169
10850TIP3    H153965   4.530   1.824   1.511 -0.1233 -0.5567 -0.5052
10850TIP3    H253966   4.415   1.731   1.541  1.1051 -1.0291  2.9546
10851TIP3   OH253967   4.810   4.545  14.760 -0.4901 -0.0738 -0.3692
10851TIP3    H153968   4.796   4.588  14.675  0.7635 -2.1506 -1.6559
10851TIP3    H253969   4.776   4.608  14.824 -2.2862  1.1528 -2.4508
10852TIP3   OH253970   4.189   1.720  15.499  0.2341  0.2848 -0.0573
10852TIP3    H153971   4.277   1.689  15.520  0.1112  1.1622  1.9569
10852TIP3    H253972   4.203   1.800  15.448  0.5735 -0.5442 -1.2855
10853TIP3   OH253973   5.157   4.242  11.267  0.1446 -0.1916  0.0560
10853TIP3    H153974   5.114   4.221  11.184 -0.0890  1.1554 -0.1793
10853TIP3    H253975   5.136   4.169  11.325 -1.1177 -0.3196 -0.5525
10854TIP3   OH253976   1.307   1.789   3.815 -0.7889 -0.2410 -0.0210
10854TIP3    H153977   1.292   1.695   3.810  0.5654 -0.5229  0.8438
10854TIP3    H253978   1.329   1.815   3.726  2.3178 -1.3913  0.3553
10855TIP3   OH253979   1.980   1.657   2.754 -0.2137  0.3262 -0.1182
10855TIP3    H153980   2.041   1.627   2.821 -0.3749  0.0808 -0.0832
10855TIP3    H253981   1.973   1.751   2.770 -0.0262  0.3175  0.0249
10856TIP3   OH253982   0.596   3.591   1.697  0.0652  0.0837  0.3543
10856TIP3    H153983   0.549   3.671   1.675  0.1837  0.5316  1.7299
10856TIP3    H253984   0.528   3.525   1.711 -0.1089  0.4812  1.3614
10857TIP3   OH253985   0.899   3.943   2.583 -0.3615  0.1586 -0.1668
10857TIP3    H153986   0.873   4.008   2.649  0.2089  0.0270  0.1957
10857TIP3    H253987   0.848   3.865   2.605  0.4886 -0.1708  0.6798
10858TIP3   OH253988   4.497   1.353   0.758 -0.3246 -0.1625 -0.1764
10858TIP3    H153989   4.480   1.420   0.692  2.5001 -0.2406 -1.0588
10858TIP3    H253990   4.592   1.339   0.753 -0.7793 -3.7398  0.4843
10859TIP3   OH253991   4.928   1.778  12.728 -0.6118  0.0202  0.3331
10859TIP3    H153992   4.858   1.840  12.749  0.3579  1.1833  0.1414
10859TIP3    H253993   4.976   1.819  12.657 -0.3047 -1.2240 -0.1842
10860TIP3   OH253994   0.837   1.089  11.969  0.2586  0.0818  0.1226
10860TIP3    H153995   0.849   1.027  11.898 -3.8558 -0.2296 -0.4571
10860TIP3    H253996   0.824   1.035  12.047 -0.0109  0.2700  0.2107
10861TIP3   OH253997   1.015   4.843  13.467 -0.1491 -0.4065 -0.3493
10861TIP3    H153998   1.038   4.751  13.476 -0.4542 -0.5373 -0.8995
10861TIP3    H253999   1.091   4.883  13.425  0.8881  0.0240  1.8639
10862TIP3   OH254000   2.764   4.344  15.533  1.2188  0.0149 -0.7888
10862TIP3    H154001   2.710   4.335  15.455 -0.4667 -1.4523  0.5201
10862TIP3    H254002   2.742   4.431  15.568  1.9053  0.6321 -1.8613
10863TIP3   OH254003   1.731   0.382   2.813  0.0550  0.2808  0.1444
10863TIP3    H154004   1.711   0.315   2.878  0.5941  0.3781  0.4089
10863TIP3    H254005   1.708   0.464   2.855 -0.9481  0.2440 -0.3111
10864TIP3   OH254006   3.864   5.870   5.424  0.0937  0.0744 -0.4078
10864TIP3    H154007   3.929   5.933   5.393  1.1495 -0.8632 -0.1828
10864TIP3    H254008   3.836   5.823   5.345  1.1952 -0.8702 -0.2565
10865TIP3   OH254009   1.735   3.323   1.873  0.0275  0.1344  0.3656
10865TIP3    H154010   1.688   3.243   1.896  1.9090 -0.8507  0.9484
10865TIP3    H254011   1.718   3.335   1.779 -1.2022 -0.2912  0.5285
10866TIP3   OH254012   6.341   5.004  17.184  0.4857  0.3670  0.1239
10866TIP3    H154013   6.397   4.927  17.172 -0.0038  0.2839 -1.7617
10866TIP3    H254014   6.341   5.047  17.099 -1.1364  1.1796  0.5211
10867TIP3   OH254015   4.526   0.277   3.022 -0.0651  0.1987  0.7518
10867TIP3    H154016   4.566   0.192   3.041  0.8865  0.2739 -0.8526
10867TIP3    H254017   4.577   0.340   3.073 -0.1543 -0.0751  1.1817
10868TIP3   OH254018   5.919   5.713   5.684 -0.1850 -0.1979 -0.3972
10868TIP3    H154019   6.014   5.724   5.675 -0.2611  0.4959 -0.4492
10868TIP3    H254020   5.894   5.781   5.747 -0.2327 -2.3003  1.9564
10869TIP3   OH254021   5.886   5.359   5.223  0.0724  0.9482 -0.1298
10869TIP3    H154022   5.874   5.347   5.317 -0.0824  0.0294 -0.2611
10869TIP3    H254023   5.966   5.312   5.203  0.6982  2.0590 -0.2804
10870TIP3   OH254024   3.515   3.564   5.859  0.1847 -0.7093 -0.1513
10870TIP3    H154025   3.497   3.481   5.815 -1.6173 -0.3443 -0.1572
10870TIP3    H254026   3.603   3.589   5.829 -0.1023 -1.5757 -1.7876
10871TIP3   OH254027   4.107   1.324  11.729  0.4648 -0.2758  0.3205
10871TIP3    H154028   4.072   1.235  11.727 -0.4724  0.0631  1.3372
10871TIP3    H254029   4.189   1.318  11.679 -1.6090 -0.8240 -3.1825
10872TIP3   OH254030   2.128   1.343   6.362 -0.1954 -0.2304  0.1206
10872TIP3    H154031   2.185   1.271   6.335  0.9201  1.2358 -1.4470
10872TIP3    H254032   2.049   1.332   6.309 -0.7613 -1.3307  1.1661
10873TIP3   OH254033   6.273   1.377   4.760 -0.1675  0.1182 -0.5808
10873TIP3    H154034   6.259   1.387   4.666 -1.7036  1.2178 -0.2573
10873TIP3    H254035   6.232   1.455   4.798 -0.1581 -0.6593  1.0420
10874TIP3   OH254036   1.475   3.684   2.507 -0.5295  0.4201 -0.4674
10874TIP3    H154037   1.467   3.637   2.590 -0.2877 -2.0445 -1.7844
10874TIP3    H254038   1.490   3.615   2.442  1.6978  2.4858 -2.2324
10875TIP3   OH254039   0.923   0.250  14.015 -0.3904  0.0632 -0.4203
10875TIP3    H154040   0.840   0.222  14.055 -1.1609 -0.9988 -2.6962
10875TIP3    H254041   0.900   0.272  13.925  1.5993  0.9158 -0.7453
10876TIP3   OH254042   2.807   1.819  10.859 -0.2457  0.0190 -0.1569
10876TIP3    H154043   2.889   1.861  10.834 -0.4742  1.1304  0.9197
10876TIP3    H254044   2.740   1.865  10.809 -0.4504  0.6746  0.7041
10877TIP3   OH254045   4.796   5.602   5.538 -0.4880 -0.0355  0.0351
10877TIP3    H154046   4.768   5.512   5.551 -0.3314  0.1542  1.9271
10877TIP3    H254047   4.812   5.635   5.627  1.1652  1.3072 -0.7268
10878TIP3   OH254048   6.387   0.297   2.843  0.1599 -0.1233  0.0796
10878TIP3    H154049   6.445   0.368   2.870 -1.2561  0.8236  0.7315
10878TIP3    H254050   6.325   0.339   2.783  1.0347 -1.4382 -1.7726
10879TIP3   OH254051   5.912   6.281   0.727 -0.2960 -0.0158  0.1858
10879TIP3    H154052   5.947   6.229   0.799 -1.7687  1.8179  2.2786
10879TIP3    H254053   5.823   6.249   0.716 -0.1511 -0.1317 -0.7151
10880TIP3   OH254054   2.083   6.268  14.644 -0.2241 -0.1595 -0.2724
10880TIP3    H154055   2.022   6.200  14.672 -1.6002  1.4038  0.5946
10880TIP3    H254056   2.170   6.232  14.663 -0.9948 -0.8621  2.0357
10881TIP3   OH254057   5.229   0.681  14.505  0.4047 -0.4392  0.0248
10881TIP3    H154058   5.181   0.757  14.472  1.2977 -0.1706 -0.6997
10881TIP3    H254059   5.164   0.629  14.551 -1.3734 -1.8538 -3.8815
10882TIP3   OH254060   4.971   0.097  12.851  0.2280 -0.1318 -0.2323
10882TIP3    H154061   4.896   0.081  12.908 -0.9064 -0.2462 -1.7106
10882TIP3    H254062   4.976   0.018  12.796  0.9883  0.1894 -0.6255
10883TIP3   OH254063   0.654   1.092  16.653 -0.2068 -0.0641  0.2386
10883TIP3    H154064   0.576   1.125  16.609  0.5046  0.7944 -0.3786
10883TIP3    H254065   0.647   0.997  16.646  0.6974  0.0776 -3.1476
10884TIP3   OH254066   2.686   3.953   1.216 -0.4504 -0.8742 -0.0017
10884TIP3    H154067   2.599   3.924   1.188 -0.5538 -0.1751 -0.4057
10884TIP3    H254068   2.710   3.892   1.286 -0.5551 -2.1066 -1.0132
10885TIP3   OH254069   6.437   0.169  12.171 -0.0193  0.1435  0.6144
10885TIP3    H154070   6.408   0.182  12.080  0.3629 -2.5712  0.0858
10885TIP3    H254071   6.532   0.167  12.166  0.0035  0.0279  1.0876
10886TIP3   OH254072   5.290   5.374  14.626 -0.4141 -0.2461 -0.0255
10886TIP3    H154073   5.274   5.377  14.721  2.6873  1.6273  0.5092
10886TIP3    H254074   5.311   5.283  14.608 -0.9005 -0.5932  1.1060
10887TIP3   OH254075   5.614   3.546   6.233  0.3469 -0.3759  0.5226
10887TIP3    H154076   5.695   3.593   6.213 -0.5916  1.1367  0.2775
10887TIP3    H254077   5.544   3.601   6.197 -0.7353 -2.1757 -0.2210
10888TIP3   OH254078   0.966   4.723   0.461 -0.0557 -0.6227  0.1266
10888TIP3    H154079   0.872   4.736   0.479 -0.5513 -2.5308 -0.9160
10888TIP3    H254080   0.967   4.660   0.388  2.0223  0.2787 -0.6401
10889TIP3   OH254081   0.026   5.273  13.272 -0.3893  0.2501 -0.2906
10889TIP3    H154082  -0.040   5.249  13.207 -1.9943  0.5030  1.2313
10889TIP3    H254083   0.062   5.189  13.301  0.2729  0.1332 -1.4377
10890TIP3   OH254084   0.498   5.273  16.571 -0.1245 -0.2262 -0.4447
10890TIP3    H154085   0.473   5.305  16.484 -1.6521  0.8254  0.3391
10890TIP3    H254086   0.415   5.242  16.610  0.5123 -0.5621  0.6783
10891TIP3   OH254087   5.443   1.759  16.092 -0.5971 -0.6290 -0.5709
10891TIP3    H154088   5.468   1.846  16.060 -2.2319 -0.2711 -0.9389
10891TIP3    H254089   5.504   1.699  16.050 -0.9187  0.1212 -2.1454
10892TIP3   OH254090   1.463   2.726   0.145 -0.3344  0.3298 -0.3050
10892TIP3    H154091   1.426   2.662   0.207 -1.3783  0.4302 -0.8138
10892TIP3    H254092   1.387   2.766   0.103  0.3137  1.8104 -0.1070
10893TIP3   OH254093   1.446   1.260   2.568  0.6235 -0.1930 -0.4048
10893TIP3    H154094   1.428   1.351   2.592  1.6052 -0.0819 -0.0501
10893TIP3    H254095   1.532   1.242   2.608  0.7867 -1.0237 -1.1316
10894TIP3   OH254096   1.013   1.073   2.557  0.4055 -0.1337  0.2523
10894TIP3    H154097   1.078   1.134   2.590  0.2163  0.6160 -0.7143
10894TIP3    H254098   0.930   1.106   2.591  0.1931  0.7242 -1.0226
10895TIP3   OH254099   5.466   4.940  14.311 -0.2491 -0.7437 -0.3683
10895TIP3    H154100   5.402   4.872  14.332  0.4552 -0.9521  1.1743
10895TIP3    H254101   5.445   5.013  14.370  1.7710 -1.3428  1.1520
10896TIP3   OH254102   1.829   2.524   3.772  0.1474 -0.0676  0.6326
10896TIP3    H154103   1.832   2.572   3.855  0.2011 -1.5166  1.4974
10896TIP3    H254104   1.920   2.520   3.743  0.5266 -2.0329  1.9959
10897TIP3   OH254105   5.723   0.875   4.099  0.2839 -0.0780 -0.3000
10897TIP3    H154106   5.781   0.892   4.174  1.3641 -2.2615 -0.5946
10897TIP3    H254107   5.647   0.830   4.136  0.8270 -1.1757 -0.4893
10898TIP3   OH254108   3.886   1.172   1.538 -0.2551 -0.6651 -0.2798
10898TIP3    H154109   3.839   1.253   1.517  1.8266  0.4193 -0.9109
10898TIP3    H254110   3.829   1.126   1.599 -0.3651  2.5099  2.1602
10899TIP3   OH254111   4.650   4.069  17.031  0.1861 -0.1942  0.2120
10899TIP3    H154112   4.630   3.978  17.054  1.4729 -0.4165  0.4906
10899TIP3    H254113   4.744   4.069  17.015 -0.1204  0.6849 -1.6797
10900TIP3   OH254114   5.687   5.636   2.318  0.2256  0.0708  0.5336
10900TIP3    H154115   5.594   5.651   2.301  0.0091 -0.9670  0.7313
10900TIP3    H254116   5.689   5.554   2.368  1.2755 -0.2207  0.0287
10901TIP3   OH254117   5.225   1.547  11.063 -0.3129  0.1422 -0.7950
10901TIP3    H154118   5.204   1.455  11.044  0.9590 -0.6839  1.5340
10901TIP3    H254119   5.278   1.576  10.989 -0.8319 -0.9706 -1.6113
10902TIP3   OH254120   6.039   0.296  13.018 -0.1018  0.6490 -0.7826
10902TIP3    H154121   6.100   0.297  13.091  0.0834  0.7661 -0.9377
10902TIP3    H254122   6.074   0.231  12.958 -0.5141  0.2042 -0.5484
10903TIP3   OH254123   3.253   6.326  15.676  0.4480 -0.4727  0.3389
10903TIP3    H154124   3.178   6.337  15.617  1.2617  0.1218 -0.5988
10903TIP3    H254125   3.294   6.245  15.647  0.8039 -0.2200  0.1344
10904TIP3   OH254126   1.254   3.301   5.659  0.1823 -0.4644  0.1985
10904TIP3    H154127   1.269   3.302   5.564 -0.2031  0.2597  0.1452
10904TIP3    H254128   1.342   3.302   5.697  0.3191  0.1663 -0.1407
10905TIP3   OH254129   4.166   0.483  16.326  0.2430 -0.3410 -0.2138
10905TIP3    H154130   4.099   0.484  16.395  2.4748  1.3897  2.0142
10905TIP3    H254131   4.118   0.503  16.246 -2.0232  0.0713  1.1974
10906TIP3   OH254132   6.157   3.574   5.375 -0.6286 -0.2648  0.1972
10906TIP3    H154133   6.226   3.598   5.436  0.8039 -1.4629 -0.8992
10906TIP3    H254134   6.129   3.657   5.335  1.1746  0.0886 -0.3654
10907TIP3   OH254135   2.353   2.225  12.262 -0.3291  0.0717 -0.3053
10907TIP3    H154136   2.263   2.256  12.251 -1.0448 -1.8714 -0.1954
10907TIP3    H254137   2.366   2.165  12.189  0.4771 -0.5110  0.3075
10908TIP3   OH254138   4.452   6.473  15.295 -0.0571  0.2299 -0.0228
10908TIP3    H154139   4.391   6.487  15.367  0.1678  1.0654  0.0146
10908TIP3    H254140   4.492   6.559  15.281  0.3967 -0.0868 -0.6894
10909TIP3   OH254141   4.039   1.199   1.016  0.6582 -0.1407 -0.6183
10909TIP3    H154142   4.059   1.144   1.091  2.9095 -0.5247 -1.4741
10909TIP3    H254143   3.991   1.141   0.956  0.7021 -0.4174 -0.3827
10910TIP3   OH254144   3.986   4.276   5.805 -0.1467 -0.4661  0.7102
10910TIP3    H154145   4.034   4.295   5.886 -1.2783  0.5498  1.1594
10910TIP3    H254146   3.920   4.344   5.800  0.7603  0.2879 -1.7909
10911TIP3   OH254147   0.688   6.593   2.040  0.4522 -0.7988 -0.0938
10911TIP3    H154148   0.760   6.654   2.025  0.0591 -0.3702 -0.2532
10911TIP3    H254149   0.613   6.649   2.062 -0.4832 -1.0945 -2.4227
10912TIP3   OH254150   2.949   6.084   0.445 -0.2015  0.2751  0.1331
10912TIP3    H154151   2.916   6.093   0.356 -1.3141  2.3091  0.7045
10912TIP3    H254152   2.872   6.092   0.500  0.4644 -1.0652  1.2934
10913TIP3   OH254153   2.137   0.877  13.091  0.5017  0.0616  0.3659
10913TIP3    H154154   2.050   0.907  13.064  1.0999  0.2081 -1.4530
10913TIP3    H254155   2.121   0.797  13.141 -0.7966  1.0061  1.4972
10914TIP3   OH254156   6.526   6.561  13.723 -0.4879  0.2018 -0.4789
10914TIP3    H154157   6.452   6.523  13.770  0.3163 -0.4652  0.2697
10914TIP3    H254158   6.568   6.618  13.788  0.6634 -0.7655 -0.3591
10915TIP3   OH254159   1.092   1.315  13.960 -0.5638 -0.6265 -0.3118
10915TIP3    H154160   1.136   1.335  14.043 -0.9231 -1.6457  0.1363
10915TIP3    H254161   1.000   1.307  13.984 -0.8102  0.0794 -0.9955
10916TIP3   OH254162   1.763   2.252   2.058  0.2815  0.1050 -0.1136
10916TIP3    H154163   1.746   2.310   1.983  0.8654 -1.5156 -1.5375
10916TIP3    H254164   1.843   2.205   2.034 -0.3427 -1.5196  0.8705
10917TIP3   OH254165   4.721   0.916  15.000  0.3120 -0.5241 -0.1022
10917TIP3    H154166   4.684   0.836  14.961  0.4991 -0.7551  0.1929
10917TIP3    H254167   4.645   0.962  15.036 -0.1693  0.7917 -2.6939
10918TIP3   OH254168   5.228   1.378  10.723  0.6998 -0.2974 -0.5127
10918TIP3    H154169   5.281   1.438  10.670  3.2410 -1.3423  0.7293
10918TIP3    H254170   5.157   1.432  10.757  3.0280  2.1072  0.7447
10919TIP3   OH254171   2.319   6.227   0.247  0.6763  0.4110  0.5072
10919TIP3    H154172   2.337   6.134   0.261  2.3308  0.7231  0.5393
10919TIP3    H254173   2.237   6.228   0.197  1.6015 -1.1182 -1.0928
10920TIP3   OH254174   5.757   5.939  11.704 -0.1099 -0.0602  0.8410
10920TIP3    H154175   5.667   5.965  11.687 -0.2295 -0.0328  1.5080
10920TIP3    H254176   5.810   5.996  11.647 -0.4061  1.1650  1.7656
10921TIP3   OH254177   0.022   1.496   3.190 -0.2021  0.1186  0.1764
10921TIP3    H154178  -0.023   1.426   3.236  0.6745 -0.4118  0.2355
10921TIP3    H254179   0.090   1.452   3.140  0.6886  0.9779  0.6210
10922TIP3   OH254180   2.777   6.723   0.504  0.6603  0.3394 -0.1079
10922TIP3    H154181   2.748   6.655   0.444 -2.8106  1.5521  0.0483
10922TIP3    H254182   2.799   6.677   0.585  1.0724 -0.8463 -0.8903
10923TIP3   OH254183   4.738   0.078   2.116 -0.3301  0.3051 -0.4962
10923TIP3    H154184   4.724   0.028   2.196  0.1723 -1.1570 -1.3045
10923TIP3    H254185   4.695   0.162   2.132 -1.3536 -0.4531  0.8084
10924TIP3   OH254186   5.551   1.844  14.539  0.0005  0.5880  0.1427
10924TIP3    H154187   5.598   1.820  14.460 -0.9415 -0.5452 -0.0961
10924TIP3    H254188   5.515   1.761  14.572 -2.3462  1.4903 -0.0547
10925TIP3   OH254189   3.815   6.330  11.207  0.2410  0.3712 -0.1644
10925TIP3    H154190   3.745   6.297  11.265 -2.6018  3.2792 -1.7961
10925TIP3    H254191   3.871   6.382  11.265  0.2378 -0.7727  0.8952
10926TIP3   OH254192   5.410   5.253  12.973 -0.7959  0.0653 -0.1392
10926TIP3    H154193   5.494   5.297  12.986  0.1217 -1.5266 -0.5570
10926TIP3    H254194   5.412   5.223  12.882 -1.0516 -1.5394  0.3660
10927TIP3   OH254195   5.943   2.793   5.365  0.7880 -0.2754 -0.4750
10927TIP3    H154196   5.904   2.837   5.289 -1.1471  1.5465  1.5085
10927TIP3    H254197   5.996   2.862   5.407  0.6224 -0.8443  0.6719
10928TIP3   OH254198   3.854   0.352  15.076  0.1203  0.3034 -0.1001
10928TIP3    H154199   3.798   0.283  15.111  0.6626 -0.3350 -0.4751
10928TIP3    H254200   3.837   0.351  14.981  1.7478 -0.8101 -0.4024
10929TIP3   OH254201   3.809   0.437   0.564 -0.6081  0.4289  0.0312
10929TIP3    H154202   3.795   0.531   0.557  2.1037  0.9438  0.6988
10929TIP3    H254203   3.722   0.398   0.556 -1.6201  2.8988 -1.5421
10930TIP3   OH254204   2.085   1.585   2.334  0.1385  0.0593  0.3370
10930TIP3    H154205   2.147   1.652   2.363 -0.1032 -0.4329  2.0497
10930TIP3    H254206   2.091   1.516   2.401  0.4559 -1.6782 -1.4581
10931TIP3   OH254207   6.074   2.851   5.013  0.1576 -0.0016  0.3307
10931TIP3    H154208   6.024   2.897   5.080 -1.8840 -0.5379 -0.7711
10931TIP3    H254209   6.158   2.830   5.055  0.0514  2.2513  1.7198
10932TIP3   OH254210   6.264   5.561  11.877 -0.2406 -0.5970  0.3097
10932TIP3    H154211   6.273   5.621  11.803 -0.9285 -0.4497  0.3469
10932TIP3    H254212   6.354   5.533  11.896  0.1705  1.0308  0.8031
10933TIP3   OH254213   3.727   2.417   3.809 -0.2466 -0.4287 -0.1398
10933TIP3    H154214   3.769   2.444   3.891  2.4205 -2.9472 -0.5945
10933TIP3    H254215   3.639   2.391   3.835 -0.7781  2.5249  1.2598
10934TIP3   OH254216   6.261   1.042  10.449 -0.2555 -0.2958 -0.1190
10934TIP3    H154217   6.327   0.997  10.398 -0.9241 -1.3968 -0.0313
10934TIP3    H254218   6.235   0.979  10.516 -0.4871  0.5749  0.6218
10935TIP3   OH254219   6.022   3.574  15.626 -0.1187  0.5591  0.0975
10935TIP3    H154220   6.052   3.525  15.549 -0.2553  0.7542 -0.0819
10935TIP3    H254221   6.075   3.540  15.698  2.3547  2.6657 -0.6564
10936TIP3   OH254222   5.082   5.358   2.271  0.4839  0.4153  0.1480
10936TIP3    H154223   5.102   5.265   2.280  1.2165  0.6570  1.1470
10936TIP3    H254224   5.051   5.367   2.181 -0.9432 -1.0407  0.4607
10937TIP3   OH254225   1.916   4.775   0.219  0.0491 -0.2588 -0.2122
10937TIP3    H154226   1.919   4.811   0.130 -2.8260 -0.6133 -0.4816
10937TIP3    H254227   1.897   4.851   0.274 -0.5323 -0.4418 -0.1622
10938TIP3   OH254228   1.112   2.844  14.219  0.1563  0.2993  0.1470
10938TIP3    H154229   1.055   2.868  14.147 -0.3766 -2.5453 -0.4253
10938TIP3    H254230   1.057   2.856  14.297 -0.7580 -1.0060 -0.2823
10939TIP3   OH254231   3.600   1.937   6.349  0.1776  0.6265 -0.3274
10939TIP3    H154232   3.522   1.884   6.364  1.0762 -0.2996  1.1877
10939TIP3    H254233   3.586   2.015   6.403 -0.2552  1.0357 -1.0248
10940TIP3   OH254234   2.172   5.334   2.489 -0.5507 -1.0487 -0.1111
10940TIP3    H154235   2.085   5.325   2.528 -0.4569 -2.2557 -0.1725
10940TIP3    H254236   2.233   5.318   2.562 -0.3532  0.7185  0.1535
10941TIP3   OH254237   5.904   1.407  13.806 -0.1687  0.0390  0.3722
10941TIP3    H154238   5.937   1.400  13.717  0.1641  0.5416  0.4572
10941TIP3    H254239   5.864   1.493  13.812  1.0579  0.5697  1.1182
10942TIP3   OH254240   3.299   0.426  10.987 -0.2561 -0.2591  0.0465
10942TIP3    H154241   3.261   0.339  10.989 -0.7690 -0.0774 -1.1717
10942TIP3    H254242   3.225   0.484  10.967  0.2896  0.3100 -0.3601
10943TIP3   OH254243   4.889   6.096  13.064  0.4651  0.0776  0.2085
10943TIP3    H154244   4.932   6.141  12.991 -2.0411  1.5866 -0.3759
10943TIP3    H254245   4.915   6.146  13.142 -0.1695  0.9691 -0.1403
10944TIP3   OH254246   5.142   6.222   0.746  0.3543 -0.1461 -0.2391
10944TIP3    H154247   5.185   6.138   0.731 -0.6436 -0.5191 -1.0446
10944TIP3    H254248   5.091   6.209   0.826 -0.6444 -0.6441 -0.9523
10945TIP3   OH254249   5.766   6.377   0.185 -0.2712 -0.3438 -0.3883
10945TIP3    H154250   5.672   6.392   0.188 -0.3257 -0.8991  1.0260
10945TIP3    H254251   5.801   6.430   0.256  0.3602 -1.0241 -0.1856
10946TIP3   OH254252   0.128   5.415   1.347 -0.3044  0.2614 -0.5256
10946TIP3    H154253   0.048   5.376   1.381 -0.3150 -0.2422 -1.1128
10946TIP3    H254254   0.141   5.493   1.400 -0.9539  0.1167 -0.1462
10947TIP3   OH254255   3.973   2.583   4.997  0.4416 -0.1717 -0.0138
10947TIP3    H154256   3.925   2.518   5.048 -0.6180  0.4774 -0.1742
10947TIP3    H254257   4.027   2.629   5.061  1.5297 -1.4806  0.0405
10948TIP3   OH254258   1.675   2.438  11.250 -0.0873 -0.2395 -0.0799
10948TIP3    H154259   1.767   2.449  11.226 -0.1612 -0.1668 -0.3339
10948TIP3    H254260   1.666   2.344  11.268  0.1834 -0.1383  0.5656
10949TIP3   OH254261   5.082   5.613  15.289  0.3488 -0.4862  0.0251
10949TIP3    H154262   5.141   5.663  15.232 -0.2864 -1.2372 -1.3268
10949TIP3    H254263   5.013   5.675  15.313  0.4493 -0.2487 -0.2893
10950TIP3   OH254264   3.699   3.133  11.748 -0.2912 -0.3078  0.7160
10950TIP3    H154265   3.723   3.040  11.741 -0.2936 -0.3345  1.0472
10950TIP3    H254266   3.624   3.143  11.690 -0.0870 -0.4430  0.4292
10951TIP3   OH254267   3.658   3.579   4.816  0.0053 -0.1895 -0.1764
10951TIP3    H154268   3.626   3.654   4.766 -1.8132 -1.0208 -0.3099
10951TIP3    H254269   3.623   3.503   4.770  1.3186 -1.1049  0.3067
10952TIP3   OH254270   2.935   0.839   2.728  0.3239  0.2165 -0.3611
10952TIP3    H154271   3.024   0.811   2.709  0.2725  0.5674 -1.1616
10952TIP3    H254272   2.885   0.814   2.650  0.0008  1.2595 -0.4931
10953TIP3   OH254273   1.730   1.954   5.980 -0.2805 -0.2930 -0.1867
10953TIP3    H154274   1.634   1.958   5.980 -0.2979 -0.7185 -0.6590
10953TIP3    H254275   1.757   2.036   5.939 -0.3904  1.0061  2.2786
10954TIP3   OH254276   2.742   0.266  15.856 -0.3501 -0.1850 -0.4710
10954TIP3    H154277   2.743   0.292  15.763  1.5514  0.4742 -0.2952
10954TIP3    H254278   2.822   0.214  15.866 -0.6817 -0.4573  0.7537
10955TIP3   OH254279   4.412   2.918  16.204  0.4749 -0.3222 -0.0105
10955TIP3    H154280   4.347   2.957  16.146  2.4383  0.2191 -1.9174
10955TIP3    H254281   4.408   2.971  16.284 -1.1572 -0.0827 -0.2470
10956TIP3   OH254282   0.597   3.512   4.477 -0.5205 -0.6604  0.1119
10956TIP3    H154283   0.580   3.438   4.535 -0.4225 -1.0672 -0.3727
10956TIP3    H254284   0.624   3.472   4.394 -1.7167 -0.1236 -0.5530
10957TIP3   OH254285   4.884   0.283   0.233  0.4846  0.0510  0.2640
10957TIP3    H154286   4.919   0.337   0.162  1.8033 -0.3416  0.5952
10957TIP3    H254287   4.789   0.291   0.225  0.6413  1.7790 -0.1852
10958TIP3   OH254288   5.087   6.236   5.480  0.0838  0.3741 -0.3075
10958TIP3    H154289   5.114   6.196   5.397 -1.5251 -1.7538  0.1538
10958TIP3    H254290   5.149   6.202   5.544 -1.7840 -2.1738  0.2342
10959TIP3   OH254291   2.994   6.462   6.681  0.4891 -0.4667  0.0206
10959TIP3    H154292   2.908   6.424   6.693  0.3423  0.2364  1.2692
10959TIP3    H254293   2.988   6.509   6.598 -0.3947 -0.2423  0.2063
10960TIP3   OH254294   4.209   5.340  14.546  0.2115  0.1416  0.0877
10960TIP3    H154295   4.151   5.383  14.483 -0.3878 -0.9005 -0.0819
10960TIP3    H254296   4.263   5.411  14.582  0.7422  0.7164 -1.7797
10961TIP3   OH254297   4.745   2.344  10.571 -0.2062 -0.5137 -0.0956
10961TIP3    H154298   4.769   2.261  10.612 -1.7359 -0.8445  0.1303
10961TIP3    H254299   4.775   2.411  10.633 -0.6912 -0.9530  0.6166
10962TIP3   OH254300   4.107   4.723  15.578  0.1251  0.1197  0.0480
10962TIP3    H154301   4.078   4.674  15.501  1.0942 -0.5154  0.0821
10962TIP3    H254302   4.050   4.801  15.580 -1.2615 -0.8677 -0.1419
10963TIP3   OH254303   2.317   6.169   1.324  0.5836 -0.0823  0.4661
10963TIP3    H154304   2.309   6.101   1.258  1.1784 -1.0945  1.4009
10963TIP3    H254305   2.400   6.212   1.304  0.3125  0.2264  0.0039
10964TIP3   OH254306   3.140   1.271   2.529 -0.1683 -0.1074  0.2679
10964TIP3    H154307   3.207   1.337   2.513 -0.0289 -0.7440 -1.9259
10964TIP3    H254308   3.098   1.299   2.610  1.4796  1.3365  0.6555
10965TIP3   OH254309   5.020   5.334   1.996  0.1820 -0.1321 -0.2894
10965TIP3    H154310   4.936   5.352   1.953 -0.8983 -0.8889  1.4645
10965TIP3    H254311   5.049   5.251   1.958  0.0097 -0.0011 -0.7110
10966TIP3   OH254312   5.974   1.064   2.684  0.7506  0.7596  0.2059
10966TIP3    H154313   5.882   1.039   2.671  1.4052 -1.8635  0.4938
10966TIP3    H254314   6.004   1.091   2.597  0.7583 -1.9959 -0.6720
10967TIP3   OH254315   1.717   0.973   4.230  0.3852 -0.1906 -0.7870
10967TIP3    H154316   1.643   1.028   4.254  2.2100  1.3918  1.4175
10967TIP3    H254317   1.693   0.935   4.146 -3.0444  0.0504  0.0215
10968TIP3   OH254318   3.101   6.043  16.050 -1.3001 -0.1526  0.7920
10968TIP3    H154319   3.095   5.977  16.119  0.0803 -2.8149 -1.5179
10968TIP3    H254320   3.014   6.043  16.010 -1.5744  0.1215  1.3733
10969TIP3   OH254321   6.599   3.524  14.110 -0.1365 -0.1081  0.6530
10969TIP3    H154322   6.507   3.504  14.093 -0.1459 -0.0424  0.6277
10969TIP3    H254323   6.599   3.567  14.195 -0.1020 -0.3247  0.7618
10970TIP3   OH254324   5.783   4.036  12.518  0.0748 -0.9543 -0.1131
10970TIP3    H154325   5.760   3.992  12.436  0.8417 -0.3586 -0.6559
10970TIP3    H254326   5.878   4.045  12.515  0.1230 -1.0350  0.9082
10971TIP3   OH254327   0.706   2.446  16.005  0.4796 -0.0664 -0.2827
10971TIP3    H154328   0.670   2.461  15.918  0.1896  1.9859  0.1460
10971TIP3    H254329   0.795   2.480  16.000  0.4519  0.0918  0.2131
10972TIP3   OH254330   2.156   1.044  10.941  0.2975 -0.4315 -0.5188
10972TIP3    H154331   2.126   0.961  10.979  0.8260  0.4081  1.8204
10972TIP3    H254332   2.125   1.111  11.002  0.6189  1.0237 -1.9359
10973TIP3   OH254333   6.607   0.122   5.590 -0.3796  0.6307 -0.5463
10973TIP3    H154334   6.663   0.118   5.513  2.2522  1.8924  1.2385
10973TIP3    H254335   6.594   0.216   5.604 -0.1957  0.4339  0.9779
10974TIP3   OH254336   3.497   3.810  11.490 -0.1855 -0.6343  0.3017
10974TIP3    H154337   3.567   3.760  11.532  0.7586 -0.8836 -1.5229
10974TIP3    H254338   3.445   3.845  11.563  0.2819 -2.6400  1.6290
10975TIP3   OH254339   6.105   1.563  14.454  0.3009 -0.0251  0.6810
10975TIP3    H154340   6.197   1.569  14.480  0.2716  0.7575  0.6391
10975TIP3    H254341   6.106   1.581  14.360  0.1534 -0.4254  0.6054
10976TIP3   OH254342   4.117   6.472   4.443 -0.4208 -0.7208 -0.0481
10976TIP3    H154343   4.033   6.490   4.399  0.0752 -0.5699 -0.9426
10976TIP3    H254344   4.104   6.504   4.532 -1.0863 -0.0407 -0.3807
10977TIP3   OH254345   2.616   5.965  13.438  0.5658  0.1457 -0.2387
10977TIP3    H154346   2.690   5.915  13.473  0.2510 -0.3218 -0.2511
10977TIP3    H254347   2.639   6.057  13.457  1.1702  0.0060 -0.2850
10978TIP3   OH254348   3.111   6.265  15.432 -0.2901 -0.1648 -0.1930
10978TIP3    H154349   3.039   6.203  15.445  1.0462 -1.4473  1.2283
10978TIP3    H254350   3.068   6.350  15.429 -1.9339 -0.9519  0.0859
10979TIP3   OH254351   3.224   1.766   5.525 -0.1642  0.2690 -0.6472
10979TIP3    H154352   3.223   1.831   5.596 -1.6379  2.4177 -2.5589
10979TIP3    H254353   3.278   1.807   5.457  0.1502 -1.2108 -1.2921
10980TIP3   OH254354   6.604   0.021  16.700 -0.3848  0.5846  0.4581
10980TIP3    H154355   6.587  -0.074  16.696 -0.5591  0.6352 -0.0174
10980TIP3    H254356   6.640   0.035  16.788  1.5585 -0.2430 -0.1696
10981TIP3   OH254357   0.016   3.935   5.252 -0.5085  0.2147  0.5517
10981TIP3    H154358  -0.005   4.026   5.232  0.1128 -0.0051 -1.1914
10981TIP3    H254359  -0.050   3.885   5.205 -0.3254 -0.2623  0.8012
10982TIP3   OH254360   4.016   3.365   5.731  0.1436  0.3182 -0.1514
10982TIP3    H154361   3.945   3.304   5.750  0.9180 -0.7919 -0.7606
10982TIP3    H254362   4.074   3.359   5.808  1.6012 -1.7450 -1.3669
10983TIP3   OH254363   0.557   0.022  13.350  0.2302 -0.9218  0.1086
10983TIP3    H154364   0.557  -0.058  13.403  1.4870 -0.4727  0.7917
10983TIP3    H254365   0.620   0.079  13.393 -1.2021  0.7354  0.0603
10984TIP3   OH254366   2.616   3.046  12.013 -0.5949  0.2633 -0.1785
10984TIP3    H154367   2.674   3.046  11.937 -2.0253  1.0817 -1.2726
10984TIP3    H254368   2.575   3.133  12.012 -1.6122 -0.1981  0.7653
10985TIP3   OH254369   6.429   2.737  12.822 -0.0061 -0.2111 -0.1966
10985TIP3    H154370   6.365   2.808  12.835  0.8964  0.4875  0.5413
10985TIP3    H254371   6.514   2.782  12.820  0.4953 -1.1720 -0.7773
10986TIP3   OH254372   4.178   2.279  16.596 -0.3136  0.5609 -0.1595
10986TIP3    H154373   4.215   2.279  16.507 -1.1697  3.1918 -0.5488
10986TIP3    H254374   4.254   2.286  16.653  0.2380 -1.0307 -0.6473
10987TIP3   OH254375   0.109   6.362   3.416  0.2585 -0.9291 -0.5467
10987TIP3    H154376   0.173   6.365   3.487 -0.6258  0.2781  0.2207
10987TIP3    H254377   0.159   6.382   3.337  0.8412  0.0279  0.0562
10988TIP3   OH254378   2.981   3.212  15.681  0.8366 -0.4217 -0.2216
10988TIP3    H154379   2.996   3.163  15.761  3.6160  0.4402 -0.1673
10988TIP3    H254380   2.886   3.210  15.669  0.5988 -2.6955  1.7074
10989TIP3   OH254381   4.545   0.103   4.334  0.0296 -0.1454 -0.1631
10989TIP3    H154382   4.569   0.016   4.366  0.9620  0.7309  1.5943
10989TIP3    H254383   4.588   0.110   4.249  0.3853 -1.2158 -0.0787
10990TIP3   OH254384   5.074   5.673   3.901 -0.0126 -0.3720  0.6071
10990TIP3    H154385   5.112   5.670   3.813 -1.2041 -1.0541  0.1008
10990TIP3    H254386   5.108   5.754   3.939  1.2385 -0.5390 -0.1456
10991TIP3   OH254387   3.323   3.636   4.017 -0.0063 -0.2722  0.0163
10991TIP3    H154388   3.311   3.628   3.923 -0.2740 -0.8071  0.0947
10991TIP3    H254389   3.389   3.571   4.039  0.0104 -0.1929  0.2090
10992TIP3   OH254390   1.198   4.338  14.132  0.2518 -0.0632 -0.4052
10992TIP3    H154391   1.252   4.300  14.201 -0.1614 -0.8992 -0.5417
10992TIP3    H254392   1.171   4.423  14.167  0.2899 -0.3573  0.3401
10993TIP3   OH254393   6.449   4.267  14.176  0.0332 -0.2755 -0.3662
10993TIP3    H154394   6.516   4.200  14.162  1.7993  0.9531  1.9198
10993TIP3    H254395   6.498   4.349  14.183 -1.8208  0.8304  0.0429
10994TIP3   OH254396   5.918   6.068   4.116 -0.4578 -0.0234  0.4424
10994TIP3    H154397   5.905   6.159   4.142  1.5350  0.3619  0.1775
10994TIP3    H254398   5.882   6.017   4.188 -2.4606  0.9513  0.1601
10995TIP3   OH254399   0.154   2.477  16.613 -0.0646 -0.3118  0.3280
10995TIP3    H154400   0.232   2.517  16.651  1.4058  0.1126 -3.0092
10995TIP3    H254401   0.149   2.512  16.525 -1.5742 -3.6579 -0.9885
10996TIP3   OH254402   1.766   1.249  17.068  0.3101 -0.4449 -0.0535
10996TIP3    H154403   1.676   1.217  17.058  0.6267 -1.3882  0.0657
10996TIP3    H254404   1.786   1.289  16.983 -0.2026 -0.2738 -0.0999
10997TIP3   OH254405   2.987   1.737   6.017 -0.1135 -0.1496 -0.2081
10997TIP3    H154406   2.930   1.738   5.940 -1.2292 -1.6869  0.5558
10997TIP3    H254407   2.926   1.729   6.091  1.0045  0.1120  0.7561
10998TIP3   OH254408   0.983   4.106   0.629  0.2133  0.6163 -0.0131
10998TIP3    H154409   1.037   4.031   0.603 -0.8249 -0.3141  0.4704
10998TIP3    H254410   0.919   4.069   0.690  0.2264  2.0657  0.8872
10999TIP3   OH254411   1.513   5.957   0.414 -0.5268 -0.2570 -0.5312
10999TIP3    H154412   1.589   5.910   0.449 -0.3249  0.6029  0.1913
10999TIP3    H254413   1.487   6.017   0.484 -0.3150  1.2632 -1.7250
11000TIP3   OH254414   4.583   5.604   6.060 -0.1135 -0.3788  0.1257
11000TIP3    H154415   4.518   5.546   6.100  0.7542 -0.1785  1.9144
11000TIP3    H254416   4.659   5.597   6.118  0.1343  2.2663  0.2070
11001TIP3   OH254417   1.977   6.468  13.136 -0.0148  0.3092 -0.5897
11001TIP3    H154418   2.019   6.402  13.192 -2.5395 -0.3414  0.5898
11001TIP3    H254419   1.938   6.417  13.065 -0.4483  0.7113 -0.6367
11002TIP3   OH254420   6.391   3.759  14.552 -0.3952 -0.2445 -0.0466
11002TIP3    H154421   6.302   3.760  14.517 -0.6844 -0.6346  0.6681
11002TIP3    H254422   6.380   3.739  14.645  0.2848  2.2450  0.5829
11003TIP3   OH254423   1.786   0.934   5.282  0.1694  0.1301 -0.1133
11003TIP3    H154424   1.698   0.948   5.318 -0.1487  0.4097 -0.9859
11003TIP3    H254425   1.810   0.846   5.311  0.1329  0.5410  1.2078
11004TIP3   OH254426   4.770   4.603  16.328  0.3175 -0.2142 -0.2725
11004TIP3    H154427   4.739   4.610  16.238  0.6902  1.0046 -0.3161
11004TIP3    H254428   4.864   4.589  16.320  0.4339  0.4269 -0.0680
11005TIP3   OH254429   2.050   1.664  10.507 -0.2615 -0.6682 -0.6866
11005TIP3    H154430   2.038   1.602  10.435 -0.7579 -0.3208 -0.9074
11005TIP3    H254431   2.117   1.725  10.476  1.3408 -1.9674  0.1229
11006TIP3   OH254432   1.713   4.451  11.765  0.4654  0.4568  0.1821
11006TIP3    H154433   1.642   4.468  11.827 -0.4110 -1.4936 -0.2441
11006TIP3    H254434   1.763   4.532  11.763 -1.1169  1.4913  1.3290
11007TIP3   OH254435   4.792   5.438   4.571 -0.1988  0.3375  0.8817
11007TIP3    H154436   4.772   5.526   4.538 -1.3405  0.1187  0.9894
11007TIP3    H254437   4.851   5.401   4.505 -1.4293  0.3824 -0.2553
11008TIP3   OH254438   3.276   6.783  13.307  0.3927 -0.2616 -0.4726
11008TIP3    H154439   3.305   6.739  13.387  0.2540 -2.0195 -1.3513
11008TIP3    H254440   3.224   6.857  13.337  1.3057 -0.2278  1.0691
11009TIP3   OH254441   0.321   5.785  14.630  0.2126  0.6411  0.1809
11009TIP3    H154442   0.406   5.780  14.585  0.2741  3.3684 -0.0346
11009TIP3    H254443   0.267   5.719  14.586  1.8691 -0.3856 -0.3811
11010TIP3   OH254444   1.511   4.819  16.571 -0.0132 -0.3090 -0.2089
11010TIP3    H154445   1.606   4.824  16.585  0.1186 -1.2857 -0.7174
11010TIP3    H254446   1.485   4.910  16.555  1.0069 -0.1596 -1.0784
11011TIP3   OH254447   2.496   6.191   5.277  0.3236  0.4769 -0.3022
11011TIP3    H154448   2.475   6.218   5.187  0.9623  0.8402 -0.3370
11011TIP3    H254449   2.433   6.238   5.331 -0.2684  0.0176 -0.5862
11012TIP3   OH254450   0.820   1.400   1.653  0.2930  0.0978  0.0426
11012TIP3    H154451   0.765   1.472   1.683 -1.2779 -1.0218 -0.1422
11012TIP3    H254452   0.886   1.390   1.723  0.3665  1.5343  0.1836
11013TIP3   OH254453   1.917   0.352   4.062  0.1345  0.3070 -0.1256
11013TIP3    H154454   1.882   0.267   4.088  1.6731  0.1796  1.6232
11013TIP3    H254455   1.881   0.413   4.126  0.8978  0.5903  0.0432
11014TIP3   OH254456   3.618   1.760   4.685 -0.0738  0.3391  0.3373
11014TIP3    H154457   3.636   1.668   4.703 -0.3652  0.1638 -0.2390
11014TIP3    H254458   3.705   1.801   4.677  0.1350 -0.6040 -2.9461
11015TIP3   OH254459   1.367   4.829   0.803 -0.2296 -0.1930  0.6732
11015TIP3    H154460   1.447   4.792   0.765  0.6368  2.2425  0.0655
11015TIP3    H254461   1.301   4.820   0.735 -0.5930 -2.4554  1.2711
11016TIP3   OH254462   3.754   5.430   0.765  0.4674 -0.4843  0.5738
11016TIP3    H154463   3.825   5.369   0.743  1.3082  0.3922  0.7865
11016TIP3    H254464   3.761   5.442   0.860  1.2023  0.9980  0.3526
11017TIP3   OH254465   5.656   6.427   3.916  0.5025  0.4046  0.1960
11017TIP3    H154466   5.660   6.498   3.852  1.2930  0.7269  0.6023
11017TIP3    H254467   5.694   6.352   3.871 -2.0156 -0.2837 -0.8913
11018TIP3   OH254468   6.279   4.127  13.559 -0.0504  0.3562 -0.5319
11018TIP3    H154469   6.184   4.131  13.548  0.0138  0.1419 -1.1909
11018TIP3    H254470   6.291   4.073  13.637 -0.4566 -0.1955 -0.8439
11019TIP3   OH254471   4.505   0.277  12.999  0.0073 -0.0455 -0.5858
11019TIP3    H154472   4.576   0.341  13.005  1.1064 -1.3610  0.8822
11019TIP3    H254473   4.445   0.300  13.070 -0.8463  0.7845 -1.5430
11020TIP3   OH254474   6.560   5.010  16.139  0.0291  0.6142 -0.0149
11020TIP3    H154475   6.624   5.060  16.189 -0.3933  1.3098 -0.1653
11020TIP3    H254476   6.561   5.051  16.052  0.1639 -0.0626 -0.3396
11021TIP3   OH254477   0.954   4.709  15.428  0.3642  0.0146 -0.3546
11021TIP3    H154478   0.861   4.722  15.443  0.9047  2.4856  1.2260
11021TIP3    H254479   0.978   4.780  15.367  0.7594 -2.0815 -2.7237
11022TIP3   OH254480   0.714   1.466  17.094  0.2822  0.1544 -0.0647
11022TIP3    H154481   0.710   1.376  17.061  0.9302 -0.1073  0.5494
11022TIP3    H254482   0.787   1.505  17.046 -0.6956  0.6930 -1.1261
11023TIP3   OH254483   1.701   6.710  16.167 -0.1313  0.0059 -0.3227
11023TIP3    H154484   1.755   6.785  16.193  1.8317 -0.5394 -2.5917
11023TIP3    H254485   1.647   6.743  16.095  1.1587 -0.8540 -1.7232
11024TIP3   OH254486   3.814   1.133  12.122  0.5535 -0.2607 -0.2668
11024TIP3    H154487   3.894   1.106  12.076  0.9199 -1.8494  1.2151
11024TIP3    H254488   3.792   1.057  12.176 -0.7063  1.0053  1.0168
11025TIP3   OH254489   6.191   5.464  11.280  0.3910  0.0987 -0.0534
11025TIP3    H154490   6.138   5.430  11.353  0.7163  0.3312  0.2924
11025TIP3    H254491   6.223   5.387  11.235 -0.2608 -0.0441 -0.2722
11026TIP3   OH254492   4.315   5.628  11.844 -0.3889  0.0308  0.5895
11026TIP3    H154493   4.337   5.583  11.762  2.2773  1.9965  0.1926
11026TIP3    H254494   4.375   5.590  11.908 -1.9199 -0.9086  1.5017
11027TIP3   OH254495   2.862   5.903  11.728 -0.2965 -0.0548  0.4139
11027TIP3    H154496   2.893   5.986  11.764  1.8901 -0.7581  0.2494
11027TIP3    H254497   2.820   5.927  11.645  2.2361  0.7219 -0.7049
11028TIP3   OH254498   0.203   0.831   3.981  0.0519  0.2761  0.4614
11028TIP3    H154499   0.294   0.807   3.998  0.1916 -1.2749 -2.2113
11028TIP3    H254500   0.201   0.926   3.991  1.8495  0.2624  1.0906
11029TIP3   OH254501   0.657   6.566   2.411 -0.2680 -0.0112  0.8242
11029TIP3    H154502   0.708   6.646   2.397 -1.2362  0.8636  2.1834
11029TIP3    H254503   0.720   6.495   2.397  0.5174  0.9718 -0.7371
11030TIP3   OH254504   5.131   0.283  12.094  0.5755  0.1301 -0.0065
11030TIP3    H154505   5.130   0.340  12.172  0.4065  0.0924  0.0175
11030TIP3    H254506   5.193   0.326  12.035 -0.5202  1.0405 -0.5138
11031TIP3   OH254507   5.047   3.544   2.052  0.0705  0.4963 -0.0005
11031TIP3    H154508   5.017   3.512   2.137 -1.3254 -0.4036 -0.8063
11031TIP3    H254509   5.082   3.632   2.070  0.3368  0.0738  1.5880
11032TIP3   OH254510   6.272   2.745   4.639 -0.5021 -0.1819 -0.1700
11032TIP3    H154511   6.201   2.690   4.672 -0.5137 -0.1184 -0.0900
11032TIP3    H254512   6.340   2.740   4.706 -1.7374  2.4070  1.3580
11033TIP3   OH254513   1.999   2.168   1.611 -0.5187 -0.2047  0.2486
11033TIP3    H154514   2.068   2.202   1.670 -0.6777 -0.8304  0.7996
11033TIP3    H254515   2.011   2.073   1.613  0.3145 -0.1588 -1.7806
11034TIP3   OH254516   0.908   0.832   4.664 -0.3412  0.5950  0.2456
11034TIP3    H154517   0.936   0.892   4.733  0.9553  0.0466  0.2089
11034TIP3    H254518   0.909   0.745   4.705 -2.1089  0.5606  0.2705
11035TIP3   OH254519   6.525   3.698  14.309  0.4044  0.1224  0.3324
11035TIP3    H154520   6.474   3.704  14.390 -0.9533 -0.6120 -0.4554
11035TIP3    H254521   6.564   3.785  14.299 -0.0787  0.4635  1.3458
11036TIP3   OH254522   5.287   2.948   0.971  0.2872  0.0601 -0.1973
11036TIP3    H154523   5.339   3.004   1.029 -0.4433  0.6607 -0.1111
11036TIP3    H254524   5.200   2.947   1.011 -0.5136  1.3840 -1.8872
11037TIP3   OH254525   4.430   4.884  15.878  0.3542  0.1617  0.1018
11037TIP3    H154526   4.465   4.857  15.793  1.2100 -0.2839  0.5973
11037TIP3    H254527   4.439   4.979  15.878  0.5764  0.1432 -0.2087
11038TIP3   OH254528   2.665   2.197  14.181  0.0470  0.1845 -0.3531
11038TIP3    H154529   2.656   2.133  14.251 -0.5013 -0.4170 -0.9715
11038TIP3    H254530   2.597   2.174  14.118  1.5142 -0.2216 -1.8201
11039TIP3   OH254531   6.028   1.897  16.608  0.4443  0.3778  0.1060
11039TIP3    H154532   6.047   1.881  16.701  1.5622 -3.3535 -0.6773
11039TIP3    H254533   6.107   1.938  16.574  0.8914 -0.2935  0.3270
11040TIP3   OH254534   3.082   6.320   4.487 -0.1805 -0.1030  0.5308
11040TIP3    H154535   3.166   6.348   4.451  0.4762  0.3019  2.3808
11040TIP3    H254536   3.078   6.359   4.574 -1.1325 -2.2589  1.4922
11041TIP3   OH254537   5.275   2.680   2.902  0.5076 -0.3759 -0.3889
11041TIP3    H154538   5.363   2.694   2.867  1.0887 -0.8306  0.8385
11041TIP3    H254539   5.275   2.588   2.930 -0.3240 -0.3516 -0.3064
11042TIP3   OH254540   2.962   0.131   2.749  0.5458  0.1848 -0.4968
11042TIP3    H154541   3.048   0.121   2.707  0.4340 -1.7871 -0.2768
11042TIP3    H254542   2.983   0.159   2.838  0.9220  0.4961 -0.6782
11043TIP3   OH254543   6.225   4.962   4.343  0.2471  0.3784  0.3951
11043TIP3    H154544   6.224   4.898   4.415 -3.4083 -0.1739 -0.0184
11043TIP3    H254545   6.282   4.922   4.277 -0.7639 -1.7983  0.7685
11044TIP3   OH254546   1.407   3.920   3.795  0.0032 -0.1766  0.9217
11044TIP3    H154547   1.400   4.015   3.804  1.3952 -0.0496  0.8110
11044TIP3    H254548   1.316   3.889   3.786 -0.3720  1.2648 -0.3215
11045TIP3   OH254549   4.373   6.121   2.070 -0.3394  0.0899 -0.9297
11045TIP3    H154550   4.327   6.075   2.000  1.1781 -0.2180 -1.7294
11045TIP3    H254551   4.368   6.061   2.145 -1.7783  0.3322 -0.8125
11046TIP3   OH254552   0.253   6.118  11.438 -0.2254  0.1271  0.5070
11046TIP3    H154553   0.293   6.161  11.362  1.2797 -1.9310  0.1010
11046TIP3    H254554   0.293   6.161  11.514 -0.2084  0.7849  0.1345
11047TIP3   OH254555   4.514   5.049  13.654 -0.3891 -0.2500 -0.1298
11047TIP3    H154556   4.552   5.097  13.580  2.4218 -1.5483  0.4111
11047TIP3    H254557   4.440   5.103  13.682  1.4575  2.7687 -0.8252
11048TIP3   OH254558   5.695   2.760  17.213 -0.3247  0.1474 -0.0306
11048TIP3    H154559   5.620   2.703  17.226 -1.1374  1.4064  0.8835
11048TIP3    H254560   5.658   2.843  17.181  0.8733  0.0562 -1.7620
11049TIP3   OH254561   6.217   3.119   4.090 -0.8543 -0.2361  0.3666
11049TIP3    H154562   6.256   3.061   4.156 -1.4361 -3.5796 -2.0743
11049TIP3    H254563   6.125   3.125   4.114 -1.1482 -1.7758 -0.3261
11050TIP3   OH254564   1.586   1.823   2.990  0.1873  0.4306 -0.7255
11050TIP3    H154565   1.500   1.844   3.025  0.1375  0.8054 -1.0663
11050TIP3    H254566   1.576   1.833   2.895  0.5632  0.3207 -0.7771
11051TIP3   OH254567   6.231   5.679  12.330  0.4792  0.0065  0.0070
11051TIP3    H154568   6.256   5.753  12.385  1.5154 -0.2481 -0.1131
11051TIP3    H254569   6.253   5.706  12.241 -1.8845  0.7117 -0.3895
11052TIP3   OH254570   4.100   0.196  13.479 -0.4690 -0.1279 -0.4350
11052TIP3    H154571   4.173   0.134  13.475 -0.5795 -0.1508 -2.5730
11052TIP3    H254572   4.105   0.233  13.567  0.4759 -2.1017  0.3707
11053TIP3   OH254573   5.045   3.967   3.944  0.0470 -0.4911  0.2217
11053TIP3    H154574   5.071   4.025   3.872  0.7913  0.7968  1.5079
11053TIP3    H254575   5.049   3.879   3.906 -0.6883  0.2282 -1.6418
11054TIP3   OH254576   5.419   4.662  15.538  0.7506  0.3122 -0.2133
11054TIP3    H154577   5.465   4.593  15.585 -1.2655 -0.5802  0.4720
11054TIP3    H254578   5.489   4.722  15.509  2.3268 -1.0273  0.7656
11055TIP3   OH254579   4.055   1.899  15.185 -0.1336  0.0455  0.0998
11055TIP3    H154580   4.130   1.940  15.141 -1.4470  0.7240 -1.5536
11055TIP3    H254581   4.061   1.931  15.275  0.4375  1.6967 -0.4975
11056TIP3   OH254582   3.759   1.356   0.555 -0.0355  0.2518 -0.5432
11056TIP3    H154583   3.755   1.284   0.492  1.5364 -0.7819  0.5179
11056TIP3    H254584   3.672   1.357   0.595  0.1659 -1.5711 -0.0205
11057TIP3   OH254585   2.524   4.413   4.414 -0.3646  0.1095  0.1406
11057TIP3    H154586   2.558   4.416   4.503 -1.1751 -0.6825  0.4849
11057TIP3    H254587   2.467   4.336   4.413  0.6213 -0.6040 -1.4159
11058TIP3   OH254588   1.415   4.187  13.240  0.3249 -0.0409  0.2512
11058TIP3    H154589   1.333   4.230  13.218  0.3525 -0.1980 -0.1788
11058TIP3    H254590   1.393   4.128  13.311  0.1621  0.2536  0.4459
11059TIP3   OH254591   4.681   2.921  16.102 -0.1462 -0.2334 -0.6747
11059TIP3    H154592   4.590   2.893  16.105 -0.3090  0.3997  0.4919
11059TIP3    H254593   4.728   2.846  16.064 -0.7513 -1.6427  1.2633
11060TIP3   OH254594   4.036   2.505  15.172  0.8220  0.1430 -0.4360
11060TIP3    H154595   3.968   2.439  15.162  0.8108  0.0695  0.0880
11060TIP3    H254596   4.016   2.547  15.256  1.7308 -0.2432 -0.0171
11061TIP3   OH254597   4.726   4.841  11.892 -0.6563 -0.2128 -0.0496
11061TIP3    H154598   4.748   4.758  11.936  0.6187  0.5081  0.6902
11061TIP3    H254599   4.733   4.907  11.961 -0.7607  0.6437 -0.8557
11062TIP3   OH254600   6.045   1.340   1.665  0.0001 -0.3939  0.4160
11062TIP3    H154601   6.044   1.399   1.590 -0.9498 -0.6923  0.1796
11062TIP3    H254602   5.955   1.342   1.697 -0.1271 -1.9980  0.1851
11063TIP3   OH254603   6.595   2.269  11.382  0.2417 -0.2658 -0.0349
11063TIP3    H154604   6.526   2.237  11.440  1.2395 -1.1836  0.6533
11063TIP3    H254605   6.595   2.208  11.308 -0.7952  0.7006 -0.8458
11064TIP3   OH254606   2.376   1.741  11.347 -0.2434  0.0507  0.0981
11064TIP3    H154607   2.402   1.722  11.437 -1.3961  1.0845  0.6691
11064TIP3    H254608   2.440   1.695  11.293  0.3864 -0.6781  1.4432
11065TIP3   OH254609   3.422   4.871  13.795 -0.7265 -0.9285  0.3187
11065TIP3    H154610   3.327   4.881  13.784 -0.3946  1.0311 -1.0302
11065TIP3    H254611   3.452   4.835  13.711  0.0484  0.9873 -0.2548
11066TIP3   OH254612   5.113   1.657  12.413  0.5548  0.8335  0.4535
11066TIP3    H154613   5.187   1.677  12.356  0.4969  1.2936  0.5385
11066TIP3    H254614   5.147   1.594  12.476  0.8915  1.0969  0.5343
11067TIP3   OH254615   4.820   4.809   0.739 -0.0558 -0.3157  0.1239
11067TIP3    H154616   4.726   4.816   0.722  0.0567 -0.0745 -0.3869
11067TIP3    H254617   4.830   4.843   0.828 -0.5123 -0.7645  0.3569
11068TIP3   OH254618   2.691   5.812  15.513 -0.1690 -0.5379 -0.4412
11068TIP3    H154619   2.608   5.792  15.471 -0.5885  2.4736 -1.1534
11068TIP3    H254620   2.667   5.863  15.591  0.8751 -1.9425  0.8309
11069TIP3   OH254621   6.688   4.863  17.140 -1.2359  0.7769 -0.1351
11069TIP3    H154622   6.701   4.927  17.070  1.9234  1.7582  1.2458
11069TIP3    H254623   6.686   4.778  17.095 -0.2017  1.4645 -1.5144
11070TIP3   OH254624   0.952   5.749   1.324  0.4961  0.2900  0.2415
11070TIP3    H154625   0.911   5.675   1.278  0.3046 -0.3641  1.4273
11070TIP3    H254626   0.881   5.812   1.336  0.5912  0.5451 -0.5168
11071TIP3   OH254627   1.934   5.397  12.524  0.7626 -0.2666  0.2523
11071TIP3    H154628   1.894   5.455  12.589  2.1739  0.3780  0.5659
11071TIP3    H254629   1.918   5.440  12.440 -0.5794 -0.8219  0.2059
11072TIP3   OH254630   4.305   5.161  16.138 -0.1393  0.4445 -0.1646
11072TIP3    H154631   4.253   5.119  16.070 -1.7031  0.5429  0.9454
11072TIP3    H254632   4.322   5.091  16.202 -0.4681  0.8351  0.3585
11073TIP3   OH254633   2.946   0.820  16.905 -0.8120  0.0198 -0.2948
11073TIP3    H154634   2.941   0.889  16.971  2.3703 -0.4888  0.5463
11073TIP3    H254635   2.899   0.856  16.829 -2.7727  1.4051  1.5255
11074TIP3   OH254636   5.103   1.563   1.625 -0.2135 -0.1355  0.3356
11074TIP3    H154637   5.086   1.631   1.561 -1.1827 -0.2485  0.4497
11074TIP3    H254638   5.050   1.488   1.595 -0.1278 -0.4179  0.8729
11075TIP3   OH254639   2.632   3.212  13.442 -0.1152 -0.8647 -0.4827
11075TIP3    H154640   2.709   3.202  13.387  1.5949 -0.4706  1.7450
11075TIP3    H254641   2.576   3.273  13.395  0.8313 -1.3230 -2.2370
11076TIP3   OH254642   1.498   2.471   2.693 -0.1080 -0.0047  0.0468
11076TIP3    H154643   1.548   2.539   2.649  0.9315 -1.2124 -0.6434
11076TIP3    H254644   1.462   2.514   2.770 -0.2479  1.5776 -0.8844
11077TIP3   OH254645   3.091   3.821  13.743 -0.3564  0.5315  0.4554
11077TIP3    H154646   3.085   3.734  13.703 -0.6771  1.4881 -1.6268
11077TIP3    H254647   3.177   3.821  13.786 -0.8325 -1.2083  1.4835
11078TIP3   OH254648   5.466   6.430  12.213 -0.0846 -0.2482  0.6295
11078TIP3    H154649   5.489   6.378  12.136 -3.1525  0.2758 -0.7297
11078TIP3    H254650   5.476   6.369  12.287  0.9030 -1.3710 -0.4052
11079TIP3   OH254651   5.677   6.485  15.928 -0.0244 -0.1378 -0.3784
11079TIP3    H154652   5.606   6.458  15.986 -0.7420 -0.3792 -1.3636
11079TIP3    H254653   5.648   6.569  15.893  2.4199  2.3237  3.0925
11080TIP3   OH254654   4.158   5.579   0.791 -0.0836 -0.3773  0.1582
11080TIP3    H154655   4.180   5.639   0.863 -0.4491 -0.6102  0.4684
11080TIP3    H254656   4.112   5.634   0.728 -0.6651 -0.3863  0.5704
11081TIP3   OH254657   6.522   5.458  13.820 -0.1286 -0.6414  0.5578
11081TIP3    H154658   6.580   5.534  13.824  0.9466 -1.4659  1.3039
11081TIP3    H254659   6.434   5.493  13.826  0.3545  0.5607  0.6461
11082TIP3   OH254660   6.079   3.842  16.581 -0.1191  0.1181 -0.4534
11082TIP3    H154661   5.985   3.852  16.594 -0.0548  0.0238  0.0852
11082TIP3    H254662   6.087   3.776  16.512 -0.4252 -1.6834  1.1887
11083TIP3   OH254663   5.281   1.107  15.179  0.7749  0.1156  0.5644
11083TIP3    H154664   5.333   1.147  15.249  2.2313 -0.2276 -0.3023
11083TIP3    H254665   5.265   1.178  15.117 -0.8953  0.5292  1.4313
11084TIP3   OH254666   5.051   3.771  11.041  0.5608  0.5352  0.5114
11084TIP3    H154667   5.079   3.862  11.056  0.1351  0.8714 -0.7135
11084TIP3    H254668   4.955   3.777  11.033  0.5626  0.0095  0.1323
11085TIP3   OH254669   2.899   3.357   2.583 -0.1873 -0.0662  0.4895
11085TIP3    H154670   2.911   3.280   2.527 -2.2003 -1.2498  1.6359
11085TIP3    H254671   2.826   3.404   2.543 -1.1925 -0.5623  1.7136
11086TIP3   OH254672   6.551   2.211   3.833 -0.6878 -0.1340 -0.4150
11086TIP3    H154673   6.490   2.173   3.770  0.6013 -1.2998 -0.9625
11086TIP3    H254674   6.613   2.141   3.852  2.3116  1.9314 -2.1949
11087TIP3   OH254675   5.822   3.899  14.292 -0.0467  0.1304 -0.0999
11087TIP3    H154676   5.834   3.993  14.307  0.1504  0.0527  0.2349
11087TIP3    H254677   5.768   3.894  14.213 -2.8761  0.5914  1.7230
11088TIP3   OH254678   1.600   1.090  15.319  0.3326  0.1909 -0.2111
11088TIP3    H154679   1.549   1.063  15.243 -0.5059  1.4873 -0.1201
11088TIP3    H254680   1.555   1.052  15.393  1.4273 -1.4846 -0.3789
11089TIP3   OH254681   1.887   1.501  13.669 -0.4431  0.3993  0.1692
11089TIP3    H154682   1.904   1.555  13.592  0.5962  0.7904  0.6665
11089TIP3    H254683   1.957   1.435  13.668 -1.5648 -0.8119 -0.3109
11090TIP3   OH254684   4.168   3.587  10.923 -0.1484  0.1662 -0.2553
11090TIP3    H154685   4.229   3.573  10.997  0.2409  0.8960 -0.4335
11090TIP3    H254686   4.226   3.605  10.849 -0.6159  1.9790 -0.1885
11091TIP3   OH254687   2.120   2.269   4.866  0.1658 -0.2522  0.3552
11091TIP3    H154688   2.076   2.346   4.901  2.0315  0.8091  0.4482
11091TIP3    H254689   2.054   2.225   4.814 -0.5355  2.1737 -0.8741
11092TIP3   OH254690   2.704   1.715  12.439 -0.0165 -0.8985  0.1471
11092TIP3    H154691   2.711   1.625  12.472 -0.7089 -1.0623 -0.1620
11092TIP3    H254692   2.643   1.710  12.366  0.5129 -0.3006 -0.3481
11093TIP3   OH254693   0.600   6.530  13.401  0.4312  0.1549  0.2901
11093TIP3    H154694   0.539   6.456  13.393 -0.5331  1.0439 -0.7277
11093TIP3    H254695   0.686   6.489  13.401 -0.1385 -1.0947  1.3272
11094TIP3   OH254696   5.383   5.202   5.771 -0.0509  0.7870  0.0306
11094TIP3    H154697   5.344   5.281   5.811  0.4466  0.4901  1.1283
11094TIP3    H254698   5.443   5.169   5.838  0.3027 -0.1048 -0.7247
11095TIP3   OH254699   0.328   4.393  11.815  0.2300  0.1644 -0.6496
11095TIP3    H154700   0.341   4.300  11.830  2.4351  0.8733  2.3593
11095TIP3    H254701   0.365   4.435  11.893 -2.2778  3.4666 -1.1386
11096TIP3   OH254702   4.421   5.582  16.637 -0.3327  0.2545 -0.0185
11096TIP3    H154703   4.452   5.673  16.633  0.4735 -0.0265 -0.3133
11096TIP3    H254704   4.473   5.542  16.707 -1.4269  0.2873  0.8384
11097TIP3   OH254705   2.262   2.558  13.879  0.6100  0.2191 -0.4119
11097TIP3    H154706   2.179   2.565  13.833  1.6628 -0.7912 -2.5646
11097TIP3    H254707   2.321   2.617  13.832  1.6591 -0.6784 -0.2469
11098TIP3   OH254708   3.851   0.907   0.074 -0.2893  0.0020 -0.4726
11098TIP3    H154709   3.946   0.916   0.081 -0.0777 -1.9013 -0.3969
11098TIP3    H254710   3.818   0.926   0.161 -0.0808  1.6949 -0.7556
11099TIP3   OH254711   5.513   1.414  15.698  0.2726  0.1513  0.4530
11099TIP3    H154712   5.461   1.342  15.663  0.8526  0.0649 -0.2331
11099TIP3    H254713   5.490   1.490  15.644  2.0098 -0.2370 -0.8707
11100TIP3   OH254714   1.447   2.196  15.369 -0.4794  0.6319 -0.1778
11100TIP3    H154715   1.425   2.131  15.303  0.1425  0.4457 -0.2045
11100TIP3    H254716   1.542   2.189  15.379 -0.7084 -0.1708  1.5990
11101TIP3   OH254717   2.634   4.331  17.015  0.1665 -0.0612  0.8320
11101TIP3    H154718   2.608   4.413  16.972  0.5524  0.1065  0.9126
11101TIP3    H254719   2.554   4.302  17.060 -0.1080  0.0114  0.3982
11102TIP3   OH254720   5.578   5.696   4.057 -0.0930  0.3532  0.3251
11102TIP3    H154721   5.567   5.789   4.035  0.8248  0.6760  1.2181
11102TIP3    H254722   5.651   5.667   4.002 -2.8973 -0.8833 -2.9315
11103TIP3   OH254723   1.626   1.121  12.412  0.1220 -0.9148 -0.7241
11103TIP3    H154724   1.619   1.140  12.505 -1.4000  0.5560 -1.1150
11103TIP3    H254725   1.563   1.050  12.397  0.8322 -1.5958 -0.5288
11104TIP3   OH254726   4.121   5.330  11.239  0.4810 -0.6611 -0.3161
11104TIP3    H154727   4.195   5.388  11.220 -0.8511  1.1287 -0.1385
11104TIP3    H254728   4.062   5.383  11.292 -1.2479 -1.8389 -1.0308
11105TIP3   OH254729   4.475   0.208   2.499  0.9973  0.0969 -0.6645
11105TIP3    H154730   4.544   0.271   2.521  1.9663 -0.5145 -1.9116
11105TIP3    H254731   4.514   0.152   2.432  0.2105 -1.9545  0.5576
11106TIP3   OH254732   3.423   1.115  10.454  0.8090 -0.2261 -0.5007
11106TIP3    H154733   3.379   1.041  10.498  0.8902 -0.1125 -0.2245
11106TIP3    H254734   3.516   1.097  10.464  0.8523  0.6838  0.9102
11107TIP3   OH254735   3.035   3.240  13.098  0.7119  1.0640  0.2338
11107TIP3    H154736   2.969   3.238  13.167  0.0379  0.0322 -0.4240
11107TIP3    H254737   3.113   3.201  13.138  0.2292  0.1729  0.3373
11108TIP3   OH254738   3.245   0.923  14.105 -0.5794 -0.8643  0.1172
11108TIP3    H154739   3.152   0.923  14.128 -0.9177 -0.3572 -1.1966
11108TIP3    H254740   3.291   0.928  14.189 -1.7596  0.1615  0.7195
11109TIP3   OH254741   6.329   6.195   0.359 -0.2788 -0.2715  0.6244
11109TIP3    H154742   6.275   6.171   0.284  0.2731 -1.4341  0.5925
11109TIP3    H254743   6.285   6.272   0.396 -0.6658  0.1915 -0.7616
11110TIP3   OH254744   3.395   0.643  15.985  0.8429 -0.2361  0.1705
11110TIP3    H154745   3.486   0.661  15.964  1.2146 -0.7243  1.2755
11110TIP3    H254746   3.394   0.635  16.081 -0.4068  0.0343  0.1908
11111TIP3   OH254747   3.569   1.897  10.750 -0.3901  0.0144 -1.0815
11111TIP3    H154748   3.572   1.820  10.693 -1.1080 -0.7969 -0.0400
11111TIP3    H254749   3.476   1.908  10.771 -0.0169 -0.3979  0.8517
11112TIP3   OH254750   0.838   2.423   0.303  0.3970 -0.3943 -0.0868
11112TIP3    H154751   0.770   2.484   0.333  1.1382  0.6308 -0.4458
11112TIP3    H254752   0.791   2.357   0.253 -0.5962 -0.9060  1.4820
11113TIP3   OH254753   6.273   6.537   2.183 -0.2966 -0.3031 -0.3431
11113TIP3    H154754   6.250   6.622   2.145  0.6077 -0.8691 -2.2118
11113TIP3    H254755   6.216   6.475   2.138 -0.6325 -0.7578  0.6917
11114TIP3   OH254756   1.263   6.517  16.955  0.2208 -0.3064 -0.3046
11114TIP3    H154757   1.281   6.532  16.863  0.8302 -0.0528 -0.1491
11114TIP3    H254758   1.169   6.531  16.965  0.0696 -0.8500 -0.9840
11115TIP3   OH254759   6.161   1.650  12.510 -0.1198  0.1779  0.4607
11115TIP3    H154760   6.201   1.569  12.542  2.7740  1.2167 -0.3854
11115TIP3    H254761   6.184   1.653  12.417 -0.9417  1.5351  0.2850
11116TIP3   OH254762   5.508   6.565   5.631 -0.0297  0.2314 -0.3914
11116TIP3    H154763   5.485   6.571   5.538  1.7873  4.1279 -0.6764
11116TIP3    H254764   5.438   6.613   5.676  1.3914  2.1627 -0.1990
11117TIP3   OH254765   0.515   1.914  10.513  0.1986  0.2933  0.2179
11117TIP3    H154766   0.501   2.008  10.502  1.2425  0.8778  3.5213
11117TIP3    H254767   0.609   1.905  10.524 -0.0904 -0.8667  1.9609
11118TIP3   OH254768   2.303   5.552  11.091 -0.4576 -0.3916  0.3758
11118TIP3    H154769   2.254   5.471  11.105  1.0041 -1.3239  0.2217
11118TIP3    H254770   2.255   5.619  11.140 -1.4812 -1.4206  0.7795
11119TIP3   OH254771   6.369   0.320   4.362 -0.2109 -0.0486 -0.2819
11119TIP3    H154772   6.444   0.378   4.364 -0.2929  0.0374  1.8871
11119TIP3    H254773   6.321   0.344   4.283  1.4021  0.6929 -1.0485
11120TIP3   OH254774   2.181   0.478  16.773 -0.2789  0.1803 -0.0395
11120TIP3    H154775   2.276   0.485  16.777 -0.2674 -0.3805  0.5452
11120TIP3    H254776   2.164   0.403  16.717 -0.3804  0.0886  0.1140
11121TIP3   OH254777   1.041   3.148  14.753  0.3486  0.1895  0.2678
11121TIP3    H154778   0.995   3.184  14.829  0.0269  1.0955 -0.3527
11121TIP3    H254779   1.001   3.062  14.740 -2.6734  1.7995 -1.5606
11122TIP3   OH254780   5.996   5.713   1.693 -0.3709  0.5466 -0.2155
11122TIP3    H154781   6.053   5.669   1.629  1.6105  0.3767  1.5787
11122TIP3    H254782   5.968   5.793   1.649  0.0589 -0.1032 -1.7049
11123TIP3   OH254783   2.404   6.312   3.114 -0.1884  0.7875  0.1152
11123TIP3    H154784   2.455   6.248   3.064 -0.6248 -0.2414  0.9660
11123TIP3    H254785   2.341   6.347   3.051  0.8585  1.2865 -0.6692
11124TIP3   OH254786   1.816   1.057   2.513 -0.0390  0.1022  0.5668
11124TIP3    H154787   1.823   1.098   2.427 -0.3380  1.4948  1.1939
11124TIP3    H254788   1.892   1.000   2.519  0.0986  0.1628 -0.5312
11125TIP3   OH254789   0.520   0.809  16.580  0.1911  0.3332 -0.7936
11125TIP3    H154790   0.475   0.892  16.568 -0.9752 -0.4915 -2.1782
11125TIP3    H254791   0.607   0.823  16.544  0.8951  1.7292  1.3098
11126TIP3   OH254792   2.499   1.328   5.221  0.1055 -0.2441 -0.0211
11126TIP3    H154793   2.563   1.257   5.213 -1.7400 -1.9916  0.4061
11126TIP3    H254794   2.504   1.355   5.312  2.3787  1.7506 -0.6629
11127TIP3   OH254795   3.811   0.918   4.193  0.1734 -0.1020 -0.2652
11127TIP3    H154796   3.830   0.849   4.257 -0.9336 -0.8593 -0.7282
11127TIP3    H254797   3.795   0.871   4.111 -0.7705  0.6804 -0.5469
11128TIP3   OH254798   0.277   6.723   2.473 -0.0338 -0.6722  0.2020
11128TIP3    H154799   0.344   6.752   2.412  0.8520  0.7920  1.8317
11128TIP3    H254800   0.316   6.647   2.517 -0.7376 -1.8346 -1.1065
11129TIP3   OH254801   1.222   4.732  11.621  0.5308  0.4737 -0.0990
11129TIP3    H154802   1.164   4.656  11.609  0.4390  0.7262 -1.3189
11129TIP3    H254803   1.307   4.703  11.588  0.8428  0.4568  0.7064
11130TIP3   OH254804   2.239   4.447   3.020 -0.2248 -0.5793 -0.3753
11130TIP3    H154805   2.209   4.513   3.082  0.5661  0.5168 -1.1579
11130TIP3    H254806   2.267   4.496   2.943 -0.9686 -1.9080 -1.5269
11131TIP3   OH254807   1.486   3.446  13.347  0.4420 -0.0550 -0.3175
11131TIP3    H154808   1.418   3.450  13.414  0.7812  0.7889 -0.0151
11131TIP3    H254809   1.471   3.363  13.302  0.2001 -0.6304  0.7976
11132TIP3   OH254810   4.534   4.193  15.387  0.5312  0.5528  0.0389
11132TIP3    H154811   4.594   4.142  15.440  1.0859 -1.4190 -2.4134
11132TIP3    H254812   4.450   4.187  15.433  1.5010  0.9050  1.9198
11133TIP3   OH254813   3.034   0.292  16.401 -0.0940  0.1055 -0.2216
11133TIP3    H154814   3.036   0.197  16.403  0.7440  0.0597 -2.0988
11133TIP3    H254815   2.995   0.314  16.316 -1.1083  1.4442  0.5542
11134TIP3   OH254816   5.064   0.684   5.027  0.2428  0.3736  0.4318
11134TIP3    H154817   5.019   0.642   4.953  0.3273  0.9439  0.0544
11134TIP3    H254818   5.072   0.776   5.001  1.2247  0.3668  0.6923
11135TIP3   OH254819   4.179   1.676  13.518  0.3360 -0.0113 -0.5847
11135TIP3    H154820   4.267   1.708  13.537  1.2820 -1.9881 -1.4246
11135TIP3    H254821   4.186   1.581  13.525 -1.5102 -0.2571 -1.5607
11136TIP3   OH254822   4.117   2.265  16.218 -0.2603  0.5323 -0.6045
11136TIP3    H154823   4.068   2.217  16.284  0.2566  1.0433  0.1584
11136TIP3    H254824   4.075   2.242  16.135 -2.3383  1.6450  0.1231
11137TIP3   OH254825   4.446   6.405   3.137  0.3968 -0.1195 -0.3273
11137TIP3    H154826   4.455   6.393   3.043 -0.4008  0.5582 -0.4889
11137TIP3    H254827   4.362   6.448   3.149  0.9260  0.6974  0.6177
11138TIP3   OH254828   6.150   6.098  14.370  0.3022 -0.0884  0.0636
11138TIP3    H154829   6.218   6.161  14.348  2.1058 -1.2739  2.0162
11138TIP3    H254830   6.143   6.102  14.465 -1.7405 -0.6413 -0.0356
11139TIP3   OH254831   3.390   0.879   4.105  0.2049 -0.0087 -0.0410
11139TIP3    H154832   3.445   0.940   4.154 -0.0803 -0.0516  0.3365
11139TIP3    H254833   3.395   0.797   4.156 -1.4628  0.4283  0.8711
11140TIP3   OH254834   6.004   5.681   5.276  0.6164 -0.8439 -0.1280
11140TIP3    H154835   5.971   5.748   5.216  2.6320 -3.6653 -4.6271
11140TIP3    H254836   5.930   5.660   5.332 -1.3208  1.9797 -1.5384
11141TIP3   OH254837   4.184   3.320  12.360  0.5166 -0.0502  0.2199
11141TIP3    H154838   4.163   3.233  12.325 -0.3861  0.8314 -1.5006
11141TIP3    H254839   4.219   3.368  12.285 -1.1447  1.7839  0.5884
11142TIP3   OH254840   2.957   4.418  12.200 -0.7165  0.6014 -0.3188
11142TIP3    H154841   2.937   4.382  12.286 -0.6845 -0.5572 -0.7884
11142TIP3    H254842   3.053   4.420  12.196 -0.7162  1.3385 -0.0531
11143TIP3   OH254843   5.445   3.144   2.064  0.1560  0.6259  0.1058
11143TIP3    H154844   5.387   3.177   2.133 -1.9008  1.5619 -1.9919
11143TIP3    H254845   5.498   3.220   2.038 -1.7938  1.3215 -1.9781
11144TIP3   OH254846   6.339   2.944   0.799 -0.1879  0.3169  0.0918
11144TIP3    H154847   6.316   2.993   0.721  2.5699  0.0886 -0.8967
11144TIP3    H254848   6.430   2.920   0.787 -0.3005 -1.4990  2.4505
11145TIP3   OH254849   3.335   3.042   2.863  0.0832 -0.2022 -0.1874
11145TIP3    H154850   3.429   3.041   2.884  0.5167  2.7469 -1.7227
11145TIP3    H254851   3.332   3.039   2.768 -1.4086 -0.5486 -0.1399
11146TIP3   OH254852   6.180   2.969  14.340 -0.2706 -0.2475  0.4127
11146TIP3    H154853   6.130   2.936  14.266 -0.1336 -1.5052  0.8803
11146TIP3    H254854   6.168   3.064  14.336  0.2048 -0.2408 -1.5601
11147TIP3   OH254855   0.212   0.210   3.257  0.4488  0.0188 -0.1490
11147TIP3    H154856   0.141   0.194   3.319  0.6738  0.4352  0.2205
11147TIP3    H254857   0.284   0.155   3.287  0.1512 -0.7119 -0.7603
11148TIP3   OH254858   5.646   1.703  16.953  0.8083  0.0242  0.0020
11148TIP3    H154859   5.642   1.628  16.893  1.1123 -0.8553  1.0764
11148TIP3    H254860   5.676   1.776  16.898 -0.1544 -0.4692 -1.2036
11149TIP3   OH254861   2.061   1.297   2.789 -0.0440  0.5446  0.4627
11149TIP3    H154862   2.041   1.389   2.807 -0.7495  0.5604 -0.3536
11149TIP3    H254863   2.112   1.268   2.865  3.5822  2.6557 -1.0134
11150TIP3   OH254864   1.306   4.895  11.888 -0.0831 -0.0109  0.0212
11150TIP3    H154865   1.391   4.932  11.863  0.6139 -1.5926 -0.0084
11150TIP3    H254866   1.282   4.839  11.814  0.1527 -1.6916  1.1966
11151TIP3   OH254867   5.691   1.889   0.397  0.2040  0.3502 -0.4607
11151TIP3    H154868   5.717   1.981   0.392 -0.4559  0.5242 -0.6910
11151TIP3    H254869   5.596   1.890   0.388  0.3242 -0.4764 -1.9095
11152TIP3   OH254870   2.806   2.203   1.425 -0.0098 -0.1952  0.1398
11152TIP3    H154871   2.747   2.227   1.496 -0.3462  0.9762 -0.5152
11152TIP3    H254872   2.830   2.112   1.443  0.6866  0.3829  2.2761
11153TIP3   OH254873   3.784   6.415  12.182  0.0962 -0.0626 -0.6750
11153TIP3    H154874   3.720   6.473  12.142 -0.2548 -0.7015 -1.0570
11153TIP3    H254875   3.782   6.437  12.275 -1.3716 -0.7153 -0.5310
11154TIP3   OH254876   0.618   2.113   3.558 -0.3281 -0.1986 -0.1538
11154TIP3    H154877   0.648   2.103   3.648  0.7108  0.3865 -0.4203
11154TIP3    H254878   0.669   2.049   3.509 -0.9064 -0.5289 -0.3323
11155TIP3   OH254879   3.398   2.108  14.768 -0.3707 -0.3962 -0.4179
11155TIP3    H154880   3.483   2.152  14.769 -0.0672 -0.9813 -0.2247
11155TIP3    H254881   3.385   2.080  14.859  0.6453 -2.9981 -1.0203
11156TIP3   OH254882   5.227   3.773   2.314  0.0935 -0.2782  0.1111
11156TIP3    H154883   5.309   3.823   2.320  0.1538 -0.1895 -1.2559
11156TIP3    H254884   5.253   3.683   2.333  0.2705 -0.0331  1.0210
11157TIP3   OH254885   2.933   5.968   1.812 -0.5770 -0.3584  0.2636
11157TIP3    H154886   2.898   5.918   1.886 -0.1934  0.0166  0.7008
11157TIP3    H254887   2.930   5.907   1.738 -1.5420 -0.5397  0.4435
11158TIP3   OH254888   4.638   0.316   3.789 -0.3413  0.2383  0.3646
11158TIP3    H154889   4.558   0.278   3.753 -0.5251  1.0775 -0.1362
11158TIP3    H254890   4.693   0.333   3.712 -0.6884  1.9310  0.4672
11159TIP3   OH254891   4.065   4.027  12.248 -0.2851 -0.5309  0.1380
11159TIP3    H154892   4.039   3.959  12.309  0.9734 -0.2651  0.9844
11159TIP3    H254893   4.059   4.108  12.299  0.4818 -0.2772 -0.1659
11160TIP3   OH254894   4.175   1.596   5.833 -0.1463  0.4633 -0.6089
11160TIP3    H154895   4.170   1.616   5.927  0.2983 -3.9413  0.4658
11160TIP3    H254896   4.268   1.606   5.812 -0.1156  0.6677 -0.3842
11161TIP3   OH254897   6.728   6.702   5.395 -0.3211  0.7705  0.0174
11161TIP3    H154898   6.672   6.668   5.464 -0.1150  2.4867  1.0590
11161TIP3    H254899   6.797   6.636   5.385 -0.8319  0.1018  0.8395
11162TIP3   OH254900   0.394   5.051   1.331  0.2817  0.0201  0.1967
11162TIP3    H154901   0.390   5.057   1.236 -1.6001 -3.1821  0.0066
11162TIP3    H254902   0.466   4.991   1.349  0.4695  0.4157  0.7942
11163TIP3   OH254903   5.952   6.231  15.720 -0.7894 -0.1198 -0.1716
11163TIP3    H154904   5.919   6.145  15.747 -0.3544  0.4544  2.3434
11163TIP3    H254905   5.994   6.216  15.636  0.5375 -2.6577  0.9142
11164TIP3   OH254906   5.366   0.044  14.346  0.2871 -0.0895  0.2223
11164TIP3    H154907   5.452   0.009  14.324  0.0000 -0.7809  0.1867
11164TIP3    H254908   5.384   0.118  14.403  0.9182 -0.0494 -0.0261
11165TIP3   OH254909   0.783   6.190   4.478  0.1709  0.0094  0.7179
11165TIP3    H154910   0.736   6.134   4.416 -0.9128  0.2129  1.3403
11165TIP3    H254911   0.833   6.128   4.532  2.2222 -0.0795 -1.2295
11166TIP3   OH254912   6.058   0.758  11.819 -0.5239 -0.7147 -0.4599
11166TIP3    H154913   6.132   0.754  11.879 -1.7465  0.3975  1.1879
11166TIP3    H254914   6.042   0.852  11.807 -1.9553 -0.9398 -0.4132
11167TIP3   OH254915   6.031   3.483   5.123  0.0449  0.0162 -0.5812
11167TIP3    H154916   6.111   3.433   5.108  2.0267  3.2830 -1.5679
11167TIP3    H254917   6.049   3.534   5.202 -1.4266  0.1477 -0.3086
11168TIP3   OH254918   5.501   6.508   0.219  0.0856 -0.2894  1.1555
11168TIP3    H154919   5.417   6.553   0.230  0.5896  0.8335  0.4367
11168TIP3    H254920   5.567   6.575   0.235  0.8491 -1.0150  1.0940
11169TIP3   OH254921   1.767   0.032   2.563  0.5133 -0.3070  0.1384
11169TIP3    H154922   1.841   0.092   2.558  1.5907 -1.7408 -2.1250
11169TIP3    H254923   1.690   0.088   2.563  1.5558  1.1321 -0.0052
11170TIP3   OH254924   5.646   5.710  12.509  0.0114  0.5523  0.4368
11170TIP3    H154925   5.646   5.723  12.604  0.9418  0.1593  0.4957
11170TIP3    H254926   5.732   5.742  12.481 -0.5104  1.2805 -0.3617
11171TIP3   OH254927   6.244   3.385  17.174 -0.0133 -0.4792  0.2336
11171TIP3    H154928   6.269   3.359  17.263 -1.2069 -1.8688  0.1769
11171TIP3    H254929   6.150   3.399  17.179  0.0388  0.2109 -0.6349
11172TIP3   OH254930   0.182   1.127  16.224  0.0824  0.3061 -0.4708
11172TIP3    H154931   0.118   1.121  16.295 -0.1521  0.0481 -0.7047
11172TIP3    H254932   0.170   1.215  16.188 -0.6318  0.0155 -0.9675
11173TIP3   OH254933   6.290   2.246  14.905  0.4407  0.1599  0.0177
11173TIP3    H154934   6.286   2.233  15.000 -0.9229  1.7133  0.1859
11173TIP3    H254935   6.383   2.260  14.887  0.5378  1.3198  1.3386
11174TIP3   OH254936   3.517   5.152  14.535 -0.3381 -0.1125  0.2462
11174TIP3    H154937   3.594   5.157  14.592  2.0200 -3.5084 -2.4633
11174TIP3    H254938   3.495   5.059  14.533 -1.9375  0.2821 -2.3538
11175TIP3   OH254939   3.083   1.964   0.989  0.4944 -0.1586 -0.1015
11175TIP3    H154940   2.995   1.955   1.026  0.5625 -2.2167 -0.3939
11175TIP3    H254941   3.141   1.961   1.064  0.2753  3.0137  0.2834
11176TIP3   OH254942   1.136   0.155   4.575  0.2348  0.1848 -0.4356
11176TIP3    H154943   1.166   0.179   4.662 -1.3975  0.3972  0.0760
11176TIP3    H254944   1.136   0.059   4.575  0.9654  0.1783 -0.4731
11177TIP3   OH254945   0.450   2.018  14.741 -0.5085 -0.3494  0.0769
11177TIP3    H154946   0.366   2.063  14.731 -0.5605 -0.8314 -1.9084
11177TIP3    H254947   0.488   2.055  14.821 -0.9276  2.6401 -1.0216
11178TIP3   OH254948   6.266   5.069  15.584  0.1787  0.6330  0.1284
11178TIP3    H154949   6.329   5.121  15.533 -0.9891  0.5272 -1.4775
11178TIP3    H254950   6.204   5.036  15.518  0.5213 -2.2727  1.1815
11179TIP3   OH254951   0.957   5.360  16.739 -0.1484 -0.1440 -0.5440
11179TIP3    H154952   1.002   5.280  16.766 -2.8083 -1.0021  1.5355
11179TIP3    H254953   0.966   5.419  16.814 -1.4611  0.0780 -0.5435
11180TIP3   OH254954   6.495   0.159   2.184 -0.2800 -0.3276  0.6711
11180TIP3    H154955   6.439   0.234   2.206 -0.0060  0.1230 -0.1389
11180TIP3    H254956   6.484   0.148   2.089  0.0920 -0.9778  0.7021
11181TIP3   OH254957   5.819   4.250  12.184 -0.0244  0.0848 -0.0100
11181TIP3    H154958   5.798   4.242  12.091  0.0216 -0.1192 -0.0019
11181TIP3    H254959   5.740   4.287  12.223  0.2670  0.9869 -0.2710
11182TIP3   OH254960   1.165   2.301  15.904 -0.2549  0.3777 -0.3229
11182TIP3    H154961   1.241   2.245  15.889 -1.1940 -1.1041  0.3554
11182TIP3    H254962   1.196   2.390  15.886  2.1534  0.0038  1.8306
11183TIP3   OH254963   2.166   6.737   5.873 -0.0505  0.0843  0.1872
11183TIP3    H154964   2.177   6.643   5.855 -0.2807  0.2216 -0.7132
11183TIP3    H254965   2.154   6.776   5.786  0.8547  1.0579  0.4976
11184TIP3   OH254966   5.627   1.863   4.831  0.6706 -0.5425 -0.4094
11184TIP3    H154967   5.665   1.783   4.796  1.6206 -0.1206 -0.3458
11184TIP3    H254968   5.679   1.883   4.909  1.4314  0.9743 -1.2850
11185TIP3   OH254969   1.919   3.864  16.230 -0.5575  0.1348 -0.2336
11185TIP3    H154970   1.837   3.888  16.187 -1.5921 -2.5047  0.1464
11185TIP3    H254971   1.969   3.818  16.163  1.6283  3.6543 -1.1266
11186TIP3   OH254972   1.193   2.088  16.500 -0.1518  0.3095 -0.3422
11186TIP3    H154973   1.119   2.113  16.445 -0.2500  2.0461  0.5333
11186TIP3    H254974   1.210   2.166  16.554  1.7124 -0.3817  0.1098
11187TIP3   OH254975   3.706   4.424  14.747 -0.0419 -0.0493  0.6674
11187TIP3    H154976   3.777   4.372  14.785  0.0655 -0.2632  0.1746
11187TIP3    H254977   3.669   4.472  14.821 -0.2427 -0.9456  1.1452
11188TIP3   OH254978   0.579   0.344  14.710 -0.1362  0.0067  0.5070
11188TIP3    H154979   0.581   0.436  14.683 -1.7800 -0.2734 -0.6684
11188TIP3    H254980   0.489   0.316  14.693  0.1418 -1.6117  1.5861
11189TIP3   OH254981   5.326   6.773  14.041 -0.0216  0.3138 -0.9156
11189TIP3    H154982   5.232   6.792  14.030 -0.4323 -0.6681  0.7790
11189TIP3    H254983   5.342   6.781  14.135  1.4461 -0.1960 -1.1082
11190TIP3   OH254984   5.660   5.241   5.137 -0.4883 -0.2845 -0.2187
11190TIP3    H154985   5.740   5.283   5.169 -1.8162  1.5174  0.8508
11190TIP3    H254986   5.628   5.190   5.212  0.0309 -1.5704 -0.8663
11191TIP3   OH254987   4.579   5.048  16.955  0.8532 -0.6386 -0.1110
11191TIP3    H154988   4.670   5.044  16.984  0.6265 -1.7486  0.4424
11191TIP3    H254989   4.541   5.121  17.004  1.2126 -0.7258  0.2973
11192TIP3   OH254990   2.552   5.726   5.727  0.4669 -0.3118 -0.3550
11192TIP3    H154991   2.528   5.665   5.797 -0.1656 -2.0439 -2.0078
11192TIP3    H254992   2.487   5.709   5.658  0.3166  2.2283 -0.8739
11193TIP3   OH254993   1.553   5.427  17.173 -0.3239 -0.7468 -0.5372
11193TIP3    H154994   1.557   5.402  17.081  0.4265  2.4956 -1.4451
11193TIP3    H254995   1.493   5.502  17.176  1.5922  0.7973  1.1718
11194TIP3   OH254996   1.594   3.878   4.477  0.1197  0.1539  0.3595
11194TIP3    H154997   1.532   3.940   4.516  0.3832  0.0775  0.8937
11194TIP3    H254998   1.636   3.927   4.407  1.0120  0.8756  1.3912
11195TIP3   OH254999   3.876   4.123  14.530 -0.7251  0.3482  0.1434
11195TIP3    H155000   3.816   4.198  14.528 -0.8104  0.2507 -1.9738
11195TIP3    H255001   3.821   4.047  14.515 -0.4048  0.0047  0.6817
11196TIP3   OH255002   4.348   2.020  17.040 -0.7568  0.1038 -0.1555
11196TIP3    H155003   4.418   2.022  16.975  0.4487 -1.6655  1.0210
11196TIP3    H255004   4.269   2.001  16.990  0.1198 -0.9813 -1.1625
11197TIP3   OH255005   6.676   1.364  13.037  0.2115 -0.0375 -0.2543
11197TIP3    H155006   6.716   1.440  12.995  0.1452 -0.9023 -1.9035
11197TIP3    H255007   6.747   1.324  13.087  0.5017  0.4832 -0.2390
11198TIP3   OH255008   3.551   6.092  12.680  0.0974 -0.3676 -0.2807
11198TIP3    H155009   3.617   6.158  12.700  1.3408 -0.8850 -2.4844
11198TIP3    H255010   3.543   6.095  12.585 -1.0690 -2.2029 -0.2540
11199TIP3   OH255011   2.635   1.557   2.408 -0.3409  0.0908 -0.2057
11199TIP3    H155012   2.706   1.500   2.437 -0.8682  0.1519  1.2071
11199TIP3    H255013   2.604   1.516   2.327  1.6782  0.3938 -1.1615
11200TIP3   OH255014   1.467   3.710  17.100  0.4952 -0.1016 -0.4009
11200TIP3    H155015   1.489   3.629  17.056 -0.9688  0.0923 -1.5231
11200TIP3    H255016   1.498   3.779  17.041 -1.1758  0.1534 -1.0336
11201TIP3   OH255017   2.179   4.869   2.389 -0.4109  0.3060  0.5813
11201TIP3    H155018   2.123   4.792   2.402 -2.4495  1.6223 -0.0805
11201TIP3    H255019   2.248   4.860   2.455  0.0786 -2.6657 -0.2675
11202TIP3   OH255020   4.617   5.866   2.793  0.3804  0.2188 -0.4916
11202TIP3    H155021   4.651   5.798   2.736 -0.8636 -0.5974 -0.2814
11202TIP3    H255022   4.608   5.824   2.878  1.7184  1.2833  0.1936
11203TIP3   OH255023   6.575   1.994  14.397 -0.6734  0.3602  0.1771
11203TIP3    H155024   6.558   1.925  14.333  2.6631  0.2685 -0.7046
11203TIP3    H255025   6.557   2.076  14.351 -2.6687  0.1828  0.5926
11204TIP3   OH255026   3.113   3.151  14.580  0.6167 -0.3330 -0.3407
11204TIP3    H155027   3.032   3.154  14.631  1.2188  0.0978  0.5901
11204TIP3    H255028   3.104   3.071  14.527 -1.5860  1.0779 -2.2151
11205TIP3   OH255029   6.288   4.528   3.183 -0.1997  0.1705 -0.6533
11205TIP3    H155030   6.238   4.470   3.126 -0.4793 -0.6334  0.3884
11205TIP3    H255031   6.371   4.542   3.137 -1.2542  1.2946 -2.2643
11206TIP3   OH255032   2.187   6.259   4.882 -0.1989 -0.2877 -0.2356
11206TIP3    H155033   2.100   6.250   4.844 -0.1951 -1.5078  0.0188
11206TIP3    H255034   2.181   6.336   4.939 -1.1124 -0.3821 -0.2095
11207TIP3   OH255035   2.062   4.996   0.091  0.0460 -0.5166  0.3369
11207TIP3    H155036   2.030   4.992   0.001 -0.0689 -2.7720  0.4421
11207TIP3    H255037   2.143   4.944   0.090  0.7771  0.5797  1.2457
11208TIP3   OH255038   4.369   2.801   3.003 -0.3822 -0.3030 -0.2758
11208TIP3    H155039   4.364   2.728   2.942  0.5430 -1.0185  0.4994
11208TIP3    H255040   4.368   2.879   2.948  0.4084 -0.9430 -1.1940
11209TIP3   OH255041   0.541   5.877  15.921 -0.0121 -0.3523  0.3449
11209TIP3    H155042   0.617   5.926  15.954 -0.0926  0.9150 -1.2462
11209TIP3    H255043   0.579   5.804  15.872  0.1769 -0.3634  0.5094
11210TIP3   OH255044   2.860   6.534  13.696  0.5373 -0.1629  0.1431
11210TIP3    H155045   2.771   6.540  13.730  0.7029  3.1573  0.1571
11210TIP3    H255046   2.849   6.511  13.604 -0.3053 -0.6669  0.3696
11211TIP3   OH255047   3.812   5.119  15.256 -0.2008 -0.2042 -0.5041
11211TIP3    H155048   3.884   5.176  15.281  0.5675  0.0208 -3.0295
11211TIP3    H255049   3.774   5.160  15.178 -1.1955 -1.8462 -0.9313
11212TIP3   OH255050   4.480   1.676  10.849  0.2485 -0.3448 -0.1991
11212TIP3    H155051   4.484   1.693  10.755 -0.4121 -2.1924 -0.5862
11212TIP3    H255052   4.498   1.582  10.857 -2.2161 -0.7272  1.2992
11213TIP3   OH255053   1.558   3.299  16.891  0.3315 -0.0050  0.0154
11213TIP3    H155054   1.521   3.227  16.839 -0.0208  0.9373 -1.0382
11213TIP3    H255055   1.539   3.378  16.841 -0.2130  0.9532  1.6917
11214TIP3   OH255056   3.814   3.613   5.773 -0.0454 -0.0120 -0.1708
11214TIP3    H155057   3.821   3.567   5.689 -1.2550  0.3174 -0.4533
11214TIP3    H255058   3.837   3.546   5.838  0.4836 -0.3839 -0.7290
11215TIP3   OH255059   5.743   0.307  11.809 -1.1026  0.2106 -0.0772
11215TIP3    H155060   5.795   0.386  11.819 -0.7916 -0.1070  0.8228
11215TIP3    H255061   5.778   0.265  11.730 -2.5014  1.8908 -1.6423
11216TIP3   OH255062   0.452   4.650   0.403  0.7635 -0.1143 -0.1063
11216TIP3    H155063   0.361   4.670   0.381  0.1508 -0.2136  2.1422
11216TIP3    H255064   0.490   4.618   0.322 -1.1405  0.1683 -1.1507
11217TIP3   OH255065   3.201   2.565   4.647  0.2897 -0.0665 -0.3604
11217TIP3    H155066   3.268   2.575   4.714  0.2093 -0.6721 -0.1882
11217TIP3    H255067   3.185   2.654   4.616 -0.1073  0.2939  0.8541
11218TIP3   OH255068   2.227   0.074  13.401 -0.8542 -0.1384 -0.1977
11218TIP3    H155069   2.233   0.009  13.332 -2.7677 -1.1564  0.5484
11218TIP3    H255070   2.245   0.157  13.358  0.2689 -1.0125 -1.4365
11219TIP3   OH255071   3.429   4.006   5.674 -0.4691  0.3834 -0.1967
11219TIP3    H155072   3.386   4.069   5.731  0.0013 -0.0365  0.6283
11219TIP3    H255073   3.398   3.920   5.703  1.8951 -0.0205  1.2853
11220TIP3   OH255074   0.316   5.068   5.242 -0.5270 -0.3629 -0.5900
11220TIP3    H155075   0.224   5.089   5.251 -0.8523 -1.8457 -0.2812
11220TIP3    H255076   0.357   5.102   5.322 -0.6121  1.2313 -1.2070
11221TIP3   OH255077   4.316   1.161   2.047 -0.0864  0.3787 -0.1476
11221TIP3    H155078   4.294   1.069   2.064  1.3610 -0.0101 -0.2819
11221TIP3    H255079   4.239   1.196   2.003  0.5811 -1.6590 -3.0962
11222TIP3   OH255080   5.154   2.597  15.081 -0.0892  0.3975  0.1428
11222TIP3    H155081   5.237   2.639  15.106 -0.2200  0.4063  0.5724
11222TIP3    H255082   5.117   2.568  15.164 -0.4425  0.2528 -0.0668
11223TIP3   OH255083   1.302   2.657   6.433 -0.8250  0.3512  0.4038
11223TIP3    H155084   1.373   2.648   6.496 -0.0399  1.2319 -0.3486
11223TIP3    H255085   1.337   2.619   6.352 -1.3132  0.5259  0.1082
11224TIP3   OH255086   4.405   0.117   1.294  0.7537  0.0390 -0.2407
11224TIP3    H155087   4.353   0.191   1.326  3.0619  1.2218  0.8514
11224TIP3    H255088   4.444   0.150   1.213  0.8316 -0.4113 -0.3829
11225TIP3   OH255089   5.768   1.207   5.683 -0.0587  0.1452 -0.0806
11225TIP3    H155090   5.780   1.302   5.679 -1.5083  0.2983 -1.1011
11225TIP3    H255091   5.808   1.182   5.766  0.7500  1.5795 -0.0055
11226TIP3   OH255092   5.423   2.370   3.510 -0.0135 -0.0947  0.8719
11226TIP3    H155093   5.503   2.335   3.548  0.5411 -1.2375 -1.2679
11226TIP3    H255094   5.443   2.462   3.493  0.8002 -0.3433  0.4759
11227TIP3   OH255095   2.276   2.683  12.112 -0.0702  0.2186  0.1222
11227TIP3    H155096   2.320   2.645  12.036  0.1050  1.2467 -0.2871
11227TIP3    H255097   2.184   2.664  12.098 -0.2559  2.0918 -1.3198
11228TIP3   OH255098   3.869   0.840   2.049  0.2494 -0.6761  0.1332
11228TIP3    H155099   3.809   0.855   2.122  0.7357 -0.4489  0.4957
11228TIP3    H255100   3.952   0.818   2.091  0.3959 -1.0707 -0.3631
11229TIP3   OH255101   2.896   3.574  12.799  0.2156 -0.1646 -0.5566
11229TIP3    H155102   2.884   3.529  12.883 -0.1612 -0.6713 -0.8836
11229TIP3    H255103   2.962   3.641  12.818 -1.2215  0.9535  0.6171
11230TIP3   OH255104   1.574   6.626   2.571  0.1929  0.7497  0.2683
11230TIP3    H155105   1.593   6.558   2.636  0.2782  0.9487  0.4503
11230TIP3    H255106   1.655   6.676   2.564 -0.1633  1.4006  0.8076
11231TIP3   OH255107   5.083   4.648  12.408  0.4712 -0.1607 -0.2776
11231TIP3    H155108   5.034   4.669  12.328  2.0798 -1.2278 -1.5827
11231TIP3    H255109   5.167   4.692  12.397 -0.0630  1.4386  1.8203
11232TIP3   OH255110   6.169   1.012  16.157 -0.2990 -0.4025  0.4982
11232TIP3    H155111   6.240   1.065  16.193  1.0769 -1.6452 -0.3200
11232TIP3    H255112   6.213   0.942  16.110 -2.0836 -1.3136  0.1313
11233TIP3   OH255113   4.826   3.708  16.513  0.4918  0.2623 -0.3252
11233TIP3    H155114   4.846   3.625  16.469  1.1933  0.4531 -0.3743
11233TIP3    H255115   4.744   3.737  16.474 -0.2929 -0.9101  0.3932
11234TIP3   OH255116   6.227   1.227   4.354 -0.1678  0.1732  0.2839
11234TIP3    H155117   6.135   1.248   4.365 -0.0946  0.0754  1.1506
11234TIP3    H255118   6.268   1.311   4.333 -0.7563 -0.1372 -2.2656
11235TIP3   OH255119   0.302   6.594   3.609  0.0930 -0.0024 -0.0841
11235TIP3    H155120   0.276   6.653   3.680  0.6626  0.0319  0.1051
11235TIP3    H255121   0.396   6.610   3.598 -0.1667  0.6466 -1.4628
11236TIP3   OH255122   2.740   5.408  14.838  0.0200 -0.2131  0.1300
11236TIP3    H155123   2.791   5.329  14.817 -0.9788 -0.5039 -1.2989
11236TIP3    H255124   2.795   5.456  14.900  0.3293 -2.3706  1.5844
11237TIP3   OH255125   2.391   2.440  14.815  0.1547  0.3106 -0.1835
11237TIP3    H155126   2.337   2.366  14.842  0.6573  0.4440  1.2761
11237TIP3    H255127   2.433   2.411  14.734  0.2133 -0.9359  0.2836
11238TIP3   OH255128   0.885   5.831  12.115 -0.0766 -0.4621 -0.0316
11238TIP3    H155129   0.967   5.878  12.099 -0.3815 -0.0292 -0.3369
11238TIP3    H255130   0.837   5.836  12.032 -1.4607  1.4130  0.8286
11239TIP3   OH255131   4.727   4.737   4.729  0.2013 -0.3374 -0.4517
11239TIP3    H155132   4.635   4.713   4.724 -0.2467  1.5385 -1.5403
11239TIP3    H255133   4.774   4.666   4.686 -0.5013 -2.4245  2.0818
11240TIP3   OH255134   1.813   1.080  15.780  0.2677 -0.2677  0.2154
11240TIP3    H155135   1.796   1.173  15.766 -4.6387 -0.7830  1.8954
11240TIP3    H255136   1.836   1.074  15.873  0.8802 -0.6924  0.0367
11241TIP3   OH255137   4.862   0.046   1.054 -0.0416  1.0176  0.3271
11241TIP3    H155138   4.851   0.139   1.033 -0.5543  0.7748 -0.5006
11241TIP3    H255139   4.773   0.010   1.047  0.3100  0.2748 -0.3149
11242TIP3   OH255140   0.625   4.521  10.678  0.2450 -0.1996  0.4158
11242TIP3    H155141   0.643   4.561  10.593 -0.5140 -0.6328  0.0464
11242TIP3    H255142   0.690   4.451  10.686  0.8491  0.3701  0.5663
11243TIP3   OH255143   2.781   0.015   0.882 -0.0310  0.4357  0.2091
11243TIP3    H155144   2.687   0.027   0.898 -0.1298  1.0653 -0.7818
11243TIP3    H255145   2.785  -0.054   0.816  0.2174  0.1712  0.5032
11244TIP3   OH255146   2.395   0.040  14.516 -0.0117 -0.2080 -0.1101
11244TIP3    H155147   2.415  -0.035  14.460 -0.7699 -0.4634 -0.0465
11244TIP3    H255148   2.479   0.061  14.559  0.2457 -0.8926 -0.2729
11245TIP3   OH255149   2.356   4.262   6.123 -0.2689 -0.1551 -0.1383
11245TIP3    H155150   2.298   4.187   6.116 -1.7532  1.1038 -1.7415
11245TIP3    H255151   2.300   4.338   6.110  1.1579  1.2761  1.6884
11246TIP3   OH255152   4.066   4.107   3.954 -0.2119 -0.5012  0.5556
11246TIP3    H155153   4.054   4.178   4.016  0.6530  0.9431 -0.8962
11246TIP3    H255154   4.004   4.039   3.983 -1.1099  0.8595  1.8897
11247TIP3   OH255155   1.244   3.880  16.350  0.3026 -0.1399  0.3034
11247TIP3    H155156   1.196   3.908  16.272  2.9242  2.2638 -0.5248
11247TIP3    H255157   1.249   3.959  16.405  1.6900 -0.8126  1.1759
11248TIP3   OH255158   2.075   3.300   0.985  0.1383 -0.0933  0.4817
11248TIP3    H155159   2.017   3.339   0.920 -0.1239 -0.6559  0.3771
11248TIP3    H255160   2.064   3.354   1.063 -0.7808 -0.4027  0.5639
11249TIP3   OH255161   0.785   5.835  16.607  0.1206  0.3626  0.2776
11249TIP3    H155162   0.877   5.815  16.624  0.3629  1.2504  0.0427
11249TIP3    H255163   0.752   5.870  16.689 -0.3277 -1.0634  0.7151
11250TIP3   OH255164   1.319   4.155   4.816  0.3344  0.1383 -0.0105
11250TIP3    H155165   1.356   4.103   4.887 -1.8635  0.0871  1.1551
11250TIP3    H255166   1.381   4.226   4.802  1.3061 -0.4453  1.2580
11251TIP3   OH255167   6.389   0.378   5.231  0.4289 -0.3223  0.0217
11251TIP3    H155168   6.384   0.461   5.280 -0.8234 -2.0150  2.8832
11251TIP3    H255169   6.307   0.375   5.182  0.8843  0.5414 -0.8098
11252TIP3   OH255170   2.295   4.611   4.548  0.5729  0.2111 -0.2119
11252TIP3    H155171   2.317   4.559   4.625 -1.0015  0.4275  0.3986
11252TIP3    H255172   2.236   4.555   4.497 -0.0969  0.8811 -0.1918
11253TIP3   OH255173   5.646   6.771   5.872 -0.2572  0.0734 -0.4141
11253TIP3    H155174   5.551   6.767   5.884 -0.3231  1.1264 -0.5221
11253TIP3    H255175   5.679   6.693   5.916 -1.2710 -0.8993 -1.3449
11254TIP3   OH255176   3.877   5.140  11.488  0.1339  0.6470 -0.6076
11254TIP3    H155177   3.838   5.225  11.512 -1.9462 -0.5598  0.4829
11254TIP3    H255178   3.825   5.111  11.413  1.0251  0.4646 -1.1511
11255TIP3   OH255179   6.472   2.540   1.556 -0.1405 -0.4011  0.4747
11255TIP3    H155180   6.453   2.545   1.463  2.4793  3.1936  0.0272
11255TIP3    H255181   6.562   2.509   1.560  0.2615  0.8627  1.7137
11256TIP3   OH255182   5.954   5.008   4.344 -0.1820  0.3391  0.1452
11256TIP3    H155183   6.047   4.989   4.342 -0.3229 -0.1744 -2.2565
11256TIP3    H255184   5.942   5.060   4.424  1.7768 -1.4532  1.6408
11257TIP3   OH255185   5.121   1.067  11.437 -0.3648 -0.0717 -0.2631
11257TIP3    H155186   5.063   1.138  11.410 -0.9153 -1.0109 -1.5487
11257TIP3    H255187   5.126   1.076  11.533 -2.1322  0.3816 -0.2055
11258TIP3   OH255188   1.418   4.193  13.998 -0.7165  0.6062 -0.2287
11258TIP3    H155189   1.342   4.137  13.987 -1.8464  2.0301  0.1646
11258TIP3    H255190   1.412   4.225  14.089 -0.9868  2.6050 -0.9208
11259TIP3   OH255191   5.249   3.290  12.556  0.5623  0.5945 -0.3976
11259TIP3    H155192   5.327   3.319  12.508  0.4414  1.0425 -0.3152
11259TIP3    H255193   5.268   3.309  12.648  0.5048  0.3687 -0.3377
11260TIP3   OH255194   0.337   6.391   6.343 -0.0156  0.2209  0.2634
11260TIP3    H155195   0.423   6.358   6.317 -0.2015  0.7083 -0.9939
11260TIP3    H255196   0.356   6.462   6.404  0.4727  0.2803  0.0421
11261TIP3   OH255197   0.511   0.671   3.240 -0.1740  0.4372 -0.4381
11261TIP3    H155198   0.566   0.721   3.300  0.0812 -0.7530  0.3193
11261TIP3    H255199   0.439   0.638   3.295 -1.4090  1.5843 -1.3161
11262TIP3   OH255200   5.046   0.104   0.335 -0.2473  0.0197  0.0782
11262TIP3    H155201   5.015   0.181   0.287  0.1614 -0.2074 -0.5519
11262TIP3    H255202   5.025   0.123   0.427 -0.0818  0.9209 -0.0622
11263TIP3   OH255203   5.941   2.780  16.044 -0.1905 -0.1639 -0.0053
11263TIP3    H155204   6.036   2.777  16.052 -0.1099  1.5587  0.0634
11263TIP3    H255205   5.915   2.852  16.103 -1.3217  0.7427 -1.5645
11264TIP3   OH255206   2.885   3.599   4.762  0.3737 -0.3199  0.4598
11264TIP3    H155207   2.796   3.569   4.744  0.3520 -0.1454  0.2663
11264TIP3    H255208   2.886   3.621   4.855  0.4911 -1.2638  0.6892
11265TIP3   OH255209   5.850   5.867  12.087  0.3154  0.4123  0.3837
11265TIP3    H155210   5.922   5.870  12.024 -1.2180  0.2088 -1.4190
11265TIP3    H255211   5.848   5.776  12.116  0.3383  0.2676 -0.0678
11266TIP3   OH255212   1.564   3.384   4.659 -0.0200  0.4303  0.0646
11266TIP3    H155213   1.574   3.470   4.700  1.3409  0.9283 -1.2603
11266TIP3    H255214   1.567   3.401   4.565  0.2770 -1.0518 -0.2207
11267TIP3   OH255215   1.400   5.098   4.928 -0.3278 -0.0544  0.3662
11267TIP3    H155216   1.347   5.159   4.877 -2.6221 -0.9059  1.6766
11267TIP3    H255217   1.423   5.148   5.007  0.1701  0.0464  0.1596
11268TIP3   OH255218   0.758   3.766   4.568  0.2578  0.3627 -0.7036
11268TIP3    H155219   0.790   3.808   4.488  1.7875  0.6269  0.0310
11268TIP3    H255220   0.797   3.817   4.639 -2.0640  0.8980  0.2462
11269TIP3   OH255221   4.199   6.122   4.436 -0.1808 -0.2357  0.9779
11269TIP3    H155222   4.268   6.060   4.459 -0.0586 -0.3543  0.3179
11269TIP3    H255223   4.244   6.205   4.425 -0.3727  0.0166  2.0521
11270TIP3   OH255224   2.099   3.849   6.538  0.2380  0.1381 -0.2733
11270TIP3    H155225   2.008   3.857   6.565  0.7093  2.9315  0.6635
11270TIP3    H255226   2.145   3.817   6.615  0.2469 -0.0194 -0.3444
11271TIP3   OH255227   4.560   6.468  14.224 -0.1500  0.2955  0.5571
11271TIP3    H155228   4.469   6.479  14.251 -0.7506 -2.3899 -0.2183
11271TIP3    H255229   4.593   6.396  14.277  0.7698 -0.3807 -0.8928
11272TIP3   OH255230   4.067   6.283   4.078 -0.6684 -0.6828  0.2479
11272TIP3    H155231   3.975   6.256   4.071 -0.5733 -0.6241 -1.4191
11272TIP3    H255232   4.113   6.226   4.016 -0.0720  1.5724 -1.4043
11273TIP3   OH255233   6.277   1.463   4.172  0.3428  0.0669  0.1530
11273TIP3    H155234   6.251   1.518   4.098  2.4017 -0.0326 -0.6738
11273TIP3    H255235   6.312   1.524   4.236  1.2578 -0.1197 -0.1607
11274TIP3   OH255236   6.122   1.393  16.064 -0.3167  0.0559  0.3853
11274TIP3    H155237   6.181   1.459  16.099  1.7035 -1.6866  0.3607
11274TIP3    H255238   6.163   1.310  16.086 -1.6532 -1.1696 -1.5809
11275TIP3   OH255239   3.744   4.355  14.480 -0.3563  0.0366  0.2022
11275TIP3    H155240   3.757   4.434  14.427  0.5220 -0.0965  0.2246
11275TIP3    H255241   3.720   4.388  14.566 -1.3751  0.2585 -0.1490
11276TIP3   OH255242   4.119   2.772   3.771  0.0185  0.3182 -0.0314
11276TIP3    H155243   4.194   2.725   3.809 -0.4687  0.1186  0.7054
11276TIP3    H255244   4.122   2.750   3.678  2.0831  1.9636 -0.4123
11277TIP3   OH255245   0.920   1.657   0.840  0.5543 -0.1537 -0.0871
11277TIP3    H155246   0.904   1.701   0.923  0.6450 -2.4662  1.1717
11277TIP3    H255247   0.832   1.640   0.805  0.5184  1.7238 -0.9963
11278TIP3   OH255248   3.455   2.752   4.165 -0.5450 -0.1542  0.5284
11278TIP3    H155249   3.395   2.696   4.117  1.9688 -2.5260  0.0044
11278TIP3    H255250   3.534   2.754   4.111  0.6627  1.0212  2.2709
11279TIP3   OH255251   4.280   1.688   1.043 -0.2633  0.6480 -0.3378
11279TIP3    H155252   4.372   1.714   1.044  0.2606 -1.1331 -0.5148
11279TIP3    H255253   4.273   1.622   1.112 -1.5227  1.1356  0.0073
11280TIP3   OH255254   0.278   4.827   5.463  0.5665 -0.3457  0.6681
11280TIP3    H155255   0.321   4.899   5.418  0.7652 -1.1815 -0.5106
11280TIP3    H255256   0.349   4.772   5.495  0.4229  0.2083  1.9566
11281TIP3   OH255257   4.169   3.602   5.021  0.2198  0.2932 -0.7895
11281TIP3    H155258   4.102   3.621   4.956  0.8411  0.2967 -1.4303
11281TIP3    H255259   4.251   3.623   4.978  0.7570 -1.4217 -0.6514
11282TIP3   OH255260   2.241   0.550  11.272  0.0842  0.3414  0.3026
11282TIP3    H155261   2.175   0.552  11.202 -1.3774 -0.3102  1.6470
11282TIP3    H255262   2.237   0.637  11.311  2.2916  1.3946 -1.6341
11283TIP3   OH255263   2.661   4.298  14.229 -0.0485  0.5983  0.5659
11283TIP3    H155264   2.710   4.311  14.310 -0.0862 -0.2210  0.7273
11283TIP3    H255265   2.703   4.222  14.188 -0.7161  0.3412  0.3533
11284TIP3   OH255266   0.157   5.353   0.467 -0.1372 -0.4402  0.1496
11284TIP3    H155267   0.095   5.283   0.487 -0.5585  0.0209  0.4768
11284TIP3    H255268   0.142   5.418   0.536  0.2068 -0.0001 -0.1881
11285TIP3   OH255269   5.757   4.436   5.721  0.1913 -0.5727 -0.3610
11285TIP3    H155270   5.839   4.434   5.770  0.0030 -1.2295 -0.0702
11285TIP3    H255271   5.715   4.352   5.739 -1.5542  0.5860  1.1961
11286TIP3   OH255272   4.665   5.748   4.469  0.0935  0.0771 -0.0551
11286TIP3    H155273   4.739   5.740   4.529  0.1726 -1.7284 -0.3766
11286TIP3    H255274   4.683   5.827   4.419  0.7917  0.7581  1.2482
11287TIP3   OH255275   0.409   2.296   0.823 -0.0257 -0.1187 -0.5407
11287TIP3    H155276   0.482   2.271   0.879 -0.0391  0.1968 -0.3831
11287TIP3    H255277   0.330   2.270   0.871 -0.0895  1.5289  0.2699
11288TIP3   OH255278   1.447   2.232  12.976  0.2437 -0.1929  0.2167
11288TIP3    H155279   1.367   2.214  13.025  0.3029 -1.3596 -0.0994
11288TIP3    H255280   1.488   2.146  12.965  0.2121  0.0560 -1.9105
11289TIP3   OH255281   4.559   4.788  14.324  0.0259  0.8040 -0.7113
11289TIP3    H155282   4.564   4.877  14.290 -2.5708  0.3112 -2.5869
11289TIP3    H255283   4.586   4.732  14.251  1.5154  0.0513  0.4097
11290TIP3   OH255284   2.668   4.765  12.153 -0.0908  1.3417 -0.1518
11290TIP3    H155285   2.688   4.779  12.245  0.2067  0.4824 -0.0879
11290TIP3    H255286   2.680   4.671  12.139 -2.6687  1.0146 -0.4415
11291TIP3   OH255287   3.645   4.053  15.657  0.1270 -0.3165 -0.4074
11291TIP3    H155288   3.695   3.978  15.686  0.3216  0.5173  1.4925
11291TIP3    H255289   3.565   4.016  15.619  0.1345 -1.4747  0.6733
11292TIP3   OH255290   2.734   6.153   0.282 -0.0968  0.3714 -0.0397
11292TIP3    H155291   2.710   6.164   0.374  0.4616  0.3634  0.1094
11292TIP3    H255292   2.689   6.074   0.254  0.2152  0.0426  0.3934
11293TIP3   OH255293   6.758   0.899   4.273 -0.4427  0.1561 -0.5001
11293TIP3    H155294   6.826   0.967   4.279 -0.0117 -0.2468 -0.7600
11293TIP3    H255295   6.701   0.928   4.202 -2.8699  2.5543  2.2885
11294TIP3   OH255296   0.385   4.169   0.029  0.1389 -0.1981 -0.3698
11294TIP3    H155297   0.419   4.081   0.043  0.0740 -0.0589  0.7016
11294TIP3    H255298   0.433   4.223   0.092 -0.9053  0.2703  0.0308
11295TIP3   OH255299   3.222   3.625  11.603  0.7701 -0.0956 -0.2031
11295TIP3    H155300   3.239   3.617  11.510  2.3076  0.5104  0.0152
11295TIP3    H255301   3.270   3.553  11.643  0.7387  0.0931  0.1836
11296TIP3   OH255302   5.228   2.137  11.002 -0.5936 -0.0899 -0.3217
11296TIP3    H155303   5.234   2.221  10.957 -1.9118 -0.3349 -0.9610
11296TIP3    H255304   5.251   2.072  10.936  0.8781 -0.2263  0.2923
11297TIP3   OH255305   0.110   6.382  15.419  0.2515  1.1725 -0.5240
11297TIP3    H155306   0.165   6.401  15.494 -0.5369  1.2543  0.0456
11297TIP3    H255307   0.063   6.463  15.401  0.2366  1.0773 -0.9351
11298TIP3   OH255308   1.286   1.747   4.222 -0.2659  0.4495 -0.2636
11298TIP3    H155309   1.233   1.754   4.301  1.2708  1.0344  0.7404
11298TIP3    H255310   1.299   1.837   4.193 -1.6906  0.1865 -1.7982
11299TIP3   OH255311   1.877   0.668   2.049 -0.5366  0.2277  0.2366
11299TIP3    H155312   1.956   0.632   2.090 -0.2837  0.3034 -0.1912
11299TIP3    H255313   1.830   0.709   2.122  0.5220  1.4522  0.2305
11300TIP3   OH255314   5.021   3.495  14.855  0.1421  0.1280  0.1407
11300TIP3    H155315   4.958   3.507  14.783  0.7170  0.4998 -0.3025
11300TIP3    H255316   5.031   3.400  14.862  1.9267  0.1201 -1.9012
11301TIP3   OH255317   3.088   1.206  16.401  0.3235  0.2657 -0.5875
11301TIP3    H155318   3.132   1.231  16.482  0.6427 -1.4327 -0.2214
11301TIP3    H255319   2.995   1.223  16.418  0.5671  1.4786 -0.4655
11302TIP3   OH255320   3.494   0.052   5.257 -0.0519  0.3664  0.1504
11302TIP3    H155321   3.423   0.032   5.318  0.5272  0.0164  0.7136
11302TIP3    H255322   3.453   0.108   5.190 -1.6116 -2.2991 -1.2367
11303TIP3   OH255323   1.117   5.497   5.031 -0.2607  0.3095  0.1922
11303TIP3    H155324   1.032   5.476   5.069 -0.3753  1.2782  0.4763
11303TIP3    H255325   1.097   5.543   4.950 -0.0845  4.3024  2.2727
11304TIP3   OH255326   0.191   2.960   0.186  0.0936  0.1941 -0.0316
11304TIP3    H155327   0.242   3.041   0.191 -0.2105  0.3437  0.6257
11304TIP3    H255328   0.187   2.929   0.277  1.5210 -1.3616 -0.4760
11305TIP3   OH255329   2.999   5.574   2.116 -0.3046 -0.4502 -0.8779
11305TIP3    H155330   3.039   5.632   2.181 -0.8519 -2.8976  1.7783
11305TIP3    H255331   3.064   5.506   2.101 -0.5112 -0.3411 -2.2858
11306TIP3   OH255332   3.258   4.126   4.801 -0.6249  0.5647  0.2409
11306TIP3    H155333   3.169   4.101   4.775  0.2634 -1.4624 -0.9142
11306TIP3    H255334   3.293   4.171   4.725  0.3252 -1.1972 -0.3878
11307TIP3   OH255335   2.422   1.271  11.183 -0.1280 -0.2726  0.3596
11307TIP3    H155336   2.400   1.289  11.091  0.6762  0.5672  0.3296
11307TIP3    H255337   2.463   1.185  11.182  0.0012 -0.2045 -0.0873
11308TIP3   OH255338   1.370   5.314  15.056  0.6385  0.1330  0.0225
11308TIP3    H155339   1.416   5.332  15.137  1.1274 -0.8439 -0.0393
11308TIP3    H255340   1.421   5.246  15.013 -2.1095 -2.6948  1.0505
11309TIP3   OH255341   3.334   2.722   6.086 -0.2103 -0.1959 -0.3477
11309TIP3    H155342   3.289   2.758   6.162  1.1236 -0.6825  0.6891
11309TIP3    H255343   3.423   2.707   6.116  0.9597  1.7338 -2.6372
11310TIP3   OH255344   4.726   5.606   2.459 -0.8089 -0.0163  0.0063
11310TIP3    H155345   4.730   5.592   2.553 -0.9144  1.4793  0.2519
11310TIP3    H255346   4.771   5.531   2.421 -1.8205 -1.2381  1.1910
11311TIP3   OH255347   4.017   2.555   1.919 -0.1204  0.0763 -0.3321
11311TIP3    H155348   4.039   2.621   1.853  0.7029  0.6352  0.4868
11311TIP3    H255349   3.922   2.547   1.913 -0.1869  1.0207 -0.7460
11312TIP3   OH255350   4.923   0.318  11.467 -0.6979  0.6812  0.3905
11312TIP3    H155351   4.848   0.361  11.426 -0.3376  0.7397 -0.1958
11312TIP3    H255352   4.985   0.389  11.484 -0.4452  0.5110  0.1682
11313TIP3   OH255353   0.629   0.777  12.303 -0.2151  0.2562 -0.5000
11313TIP3    H155354   0.565   0.706  12.299  0.7790 -0.7127  0.5917
11313TIP3    H255355   0.677   0.771  12.221 -0.7444  0.2663 -0.8164
11314TIP3   OH255356   5.080   2.126  16.228 -0.4152  0.5915 -0.1704
11314TIP3    H155357   5.038   2.043  16.250  2.1514 -1.1549 -1.6145
11314TIP3    H255358   5.061   2.140  16.135  0.8553  0.5782 -0.4424
11315TIP3   OH255359   0.721   3.748  13.278  0.1071 -0.5049  0.1583
11315TIP3    H155360   0.739   3.761  13.372  0.1373  1.1451 -0.0592
11315TIP3    H255361   0.805   3.720  13.242  0.3655 -0.1374  0.4581
11316TIP3   OH255362   0.251   1.293   3.208 -0.1369 -0.8693 -0.6075
11316TIP3    H155363   0.232   1.300   3.301 -1.5314 -1.1966 -0.8560
11316TIP3    H255364   0.339   1.255   3.204  0.6328  0.7426  0.5673
11317TIP3   OH255365   2.691   1.087  14.893  0.0732  0.2569  0.1135
11317TIP3    H155366   2.666   1.124  14.977 -2.5395  0.1791 -0.5777
11317TIP3    H255367   2.745   1.154  14.852  1.6829  0.1349  1.9860
11318TIP3   OH255368   0.137   6.162   4.571 -0.3601 -0.4373 -0.1265
11318TIP3    H155369   0.146   6.207   4.487 -0.6581  1.0366  0.6157
11318TIP3    H255370   0.047   6.179   4.598  0.6252  1.7527  1.9582
11319TIP3   OH255371   3.146   2.100   3.430  0.1842  0.1534  0.5611
11319TIP3    H155372   3.191   2.063   3.506  0.1020  0.6406  0.8507
11319TIP3    H255373   3.191   2.062   3.354 -0.2735 -0.9793  0.8498
11320TIP3   OH255374   2.006   1.450   4.741  0.1721 -0.6378  0.6588
11320TIP3    H155375   2.020   1.359   4.769  2.4150 -0.1550  1.2556
11320TIP3    H255376   2.087   1.473   4.694 -1.7617 -0.0332 -2.5389
11321TIP3   OH255377   5.582   2.578   1.590 -0.3629 -0.2737  0.1777
11321TIP3    H155378   5.676   2.585   1.603 -0.4819 -0.1891  0.9798
11321TIP3    H255379   5.555   2.666   1.564 -0.3621 -0.0910  0.8118
11322TIP3   OH255380   0.398   2.583  16.673 -0.7488 -0.2533 -0.1284
11322TIP3    H155381   0.388   2.678  16.676 -0.0937 -0.2472  2.3585
11322TIP3    H255382   0.479   2.569  16.624 -1.5171  0.3940 -1.6292
11323TIP3   OH255383   0.349   3.813  10.628  0.1317  0.4354 -0.2991
11323TIP3    H155384   0.391   3.745  10.682  0.9657  0.8441 -0.4287
11323TIP3    H255385   0.334   3.885  10.688  1.3161  0.9988 -0.6675
11324TIP3   OH255386   5.609   4.481   4.157  0.5873  0.2794  0.0712
11324TIP3    H155387   5.539   4.530   4.200  0.8763  0.2870  0.5406
11324TIP3    H255388   5.660   4.548   4.111  1.3801  0.5116  1.2703
11325TIP3   OH255389   5.870   4.881  16.171 -0.4093 -0.3258 -0.4690
11325TIP3    H155390   5.889   4.958  16.226 -1.2287 -0.2788 -0.2374
11325TIP3    H255391   5.935   4.816  16.198 -0.3189 -0.0402  0.0195
11326TIP3   OH255392   1.461   0.313   1.187 -0.6744  0.1475 -0.3302
11326TIP3    H155393   1.378   0.267   1.187  0.9749 -2.9800 -0.2708
11326TIP3    H255394   1.467   0.352   1.100 -2.1723  0.3883 -0.3317
11327TIP3   OH255395   3.761   1.516   2.464  0.4062  0.2583 -0.1055
11327TIP3    H155396   3.776   1.492   2.372 -0.7440 -1.6006  0.1644
11327TIP3    H255397   3.789   1.607   2.470 -0.4690  0.7293 -2.5464
11328TIP3   OH255398   5.369   4.262  16.031  0.2356  0.1050 -0.4998
11328TIP3    H155399   5.397   4.174  16.005 -2.1892 -0.5312 -1.1155
11328TIP3    H255400   5.413   4.321  15.969  1.1910 -0.7464 -0.6352
11329TIP3   OH255401   5.846   1.755   2.928 -0.6886  0.1853  0.2116
11329TIP3    H155402   5.867   1.845   2.952  1.9964 -0.0761 -1.0582
11329TIP3    H255403   5.820   1.713   3.011 -0.8078  1.7881  0.9941
11330TIP3   OH255404   0.041   1.136  16.461 -0.0013 -0.2161 -0.0104
11330TIP3    H155405   0.083   1.142  16.547 -2.2587 -0.0247  1.1232
11330TIP3    H255406   0.010   1.045  16.457 -2.7348  0.6397  0.7904
11331TIP3   OH255407   2.687   5.491   3.178  0.2070  0.2837  0.3097
11331TIP3    H155408   2.653   5.546   3.107 -0.6000 -0.6855 -0.0569
11331TIP3    H255409   2.624   5.503   3.250  0.3308  0.2761  0.4190
11332TIP3   OH255410   2.411   0.925  16.313  0.0015  0.5332 -0.4258
11332TIP3    H155411   2.356   0.992  16.272 -1.1666 -0.3626 -0.3365
11332TIP3    H255412   2.404   0.942  16.407 -3.1053 -1.8201 -0.1669
11333TIP3   OH255413   5.305   3.648   3.799 -0.0294  0.3480 -0.0247
11333TIP3    H155414   5.375   3.601   3.844 -0.6079 -0.8189 -0.3396
11333TIP3    H255415   5.324   3.741   3.816  2.3583  0.1099 -1.2488
11334TIP3   OH255416   1.028   5.329  14.707 -0.0926  0.2738  0.7295
11334TIP3    H155417   1.063   5.288  14.786 -0.4900 -0.0948  0.7165
11334TIP3    H255418   1.047   5.266  14.637 -0.9065  0.0012  0.7452
11335TIP3   OH255419   0.889   0.984  15.849 -0.2126 -0.5757  0.5377
11335TIP3    H155420   0.901   1.057  15.789 -1.1214 -0.3255  0.6545
11335TIP3    H255421   0.974   0.939  15.849  0.7984  1.2675  1.5048
11336TIP3   OH255422   0.033   4.434   0.781 -0.0420  0.1925  0.3325
11336TIP3    H155423   0.015   4.340   0.789 -0.3722 -0.0844 -2.8240
11336TIP3    H255424  -0.054   4.475   0.782 -0.1708  0.0508 -2.2696
11337TIP3   OH255425   5.985   4.077  15.205  0.3018  0.3792  0.1069
11337TIP3    H155426   5.973   4.150  15.267 -0.9442  1.5635 -1.4704
11337TIP3    H255427   5.927   4.008  15.238 -0.4608  1.0468  0.1846
11338TIP3   OH255428   2.525   2.547  13.515 -0.4514 -0.1905 -0.2192
11338TIP3    H155429   2.616   2.516  13.519 -0.2964  0.2385 -0.3899
11338TIP3    H255430   2.512   2.569  13.423 -0.9868 -1.0106 -0.3466
11339TIP3   OH255431   2.444   4.663  10.909  0.1151  0.5154  0.2944
11339TIP3    H155432   2.379   4.666  10.839 -0.1257  0.4505  0.5159
11339TIP3    H255433   2.393   4.673  10.990  0.0415 -2.4832  0.6600
11340TIP3   OH255434   3.537   4.643   1.184 -0.3116  0.2417 -0.5773
11340TIP3    H155435   3.442   4.638   1.172 -0.2658 -1.0485 -0.4772
11340TIP3    H255436   3.570   4.671   1.099 -0.6833 -0.5713 -0.9948
11341TIP3   OH255437   3.445   3.373   4.102  0.1960 -0.3152  0.4837
11341TIP3    H155438   3.518   3.389   4.162  0.6742  2.4161 -0.7939
11341TIP3    H255439   3.482   3.318   4.033  0.8968  0.6048  0.1303
11342TIP3   OH255440   0.536   3.766   5.380  0.2654 -0.7957  0.0500
11342TIP3    H155441   0.484   3.722   5.313 -0.7971  1.0422 -0.3659
11342TIP3    H255442   0.561   3.697   5.441 -1.9842 -1.8688 -0.2021
11343TIP3   OH255443   4.119   2.220   5.877 -0.2067 -0.8741 -0.1548
11343TIP3    H155444   4.195   2.188   5.925  0.3597 -1.1384 -1.2184
11343TIP3    H255445   4.072   2.140   5.851 -0.0581 -0.7665 -0.7671
11344TIP3   OH255446   6.331   3.914   1.764 -0.7732 -0.0745  0.1201
11344TIP3    H155447   6.414   3.906   1.810 -1.2405  0.6273  1.1049
11344TIP3    H255448   6.274   3.961   1.825 -0.9982  2.0807 -1.6865
11345TIP3   OH255449   2.771   1.550  14.801  0.0982  0.6224  0.3719
11345TIP3    H155450   2.864   1.568  14.814 -0.3604  2.5065  1.1788
11345TIP3    H255451   2.749   1.595  14.719  0.0234 -0.3290 -0.1383
11346TIP3   OH255452   2.697   4.467   0.653  0.0270 -0.4710 -0.3717
11346TIP3    H155453   2.634   4.468   0.581 -2.5999  1.7004  1.8439
11346TIP3    H255454   2.695   4.376   0.685 -2.6626 -0.2613  0.1697
11347TIP3   OH255455   2.501   0.456   1.499  0.0682 -0.2221 -0.1703
11347TIP3    H155456   2.441   0.423   1.566  0.0016 -2.1453 -1.1452
11347TIP3    H255457   2.541   0.377   1.462  3.0001  0.9932  0.2619
11348TIP3   OH255458   2.739   2.991  11.313  0.0433 -0.0594  0.0920
11348TIP3    H155459   2.767   2.946  11.393  0.7483  2.0516  1.0718
11348TIP3    H255460   2.811   3.050  11.292 -1.0805  0.9835 -0.8823
11349TIP3   OH255461   0.454   0.264  13.947 -0.2634  0.3308  0.2940
11349TIP3    H155462   0.398   0.300  13.878  0.1171 -1.8979 -1.2206
11349TIP3    H255463   0.414   0.181  13.970  1.5100 -0.5224  0.3376
11350TIP3   OH255464   3.682   4.566   3.269  0.2731 -0.1444  0.0109
11350TIP3    H155465   3.749   4.571   3.200  0.2606 -0.2516 -0.0092
11350TIP3    H255466   3.711   4.628   3.335  1.2784 -1.3831  0.7730
11351TIP3   OH255467   2.757   1.709   1.752  0.2414 -0.1620  0.5526
11351TIP3    H155468   2.720   1.672   1.833  0.4518 -0.9072  0.3023
11351TIP3    H255469   2.846   1.735   1.776  0.2480 -0.2302  0.5999
11352TIP3   OH255470   6.308   3.479   3.520  0.0342 -0.2504 -0.5191
11352TIP3    H155471   6.369   3.535   3.472 -0.5805  0.0131 -0.9958
11352TIP3    H255472   6.361   3.403   3.545  1.1481  1.0122  1.0617
11353TIP3   OH255473   4.772   4.627  14.512  0.0693  0.2354  0.2430
11353TIP3    H155474   4.709   4.697  14.496 -2.1101 -1.5906  0.7051
11353TIP3    H255475   4.798   4.597  14.425 -0.4894  0.2669  0.0667
11354TIP3   OH255476   0.846   0.970   0.333 -0.4069  0.0648  0.6076
11354TIP3    H155477   0.871   0.948   0.423  1.3110  0.0375  0.1443
11354TIP3    H255478   0.888   1.055   0.317  0.4963 -0.6084 -0.6426
11355TIP3   OH255479   1.279   2.908  11.641 -0.3510  0.3529 -0.2485
11355TIP3    H155480   1.216   2.974  11.611 -0.0871  0.3812 -0.7571
11355TIP3    H255481   1.363   2.955  11.645 -0.0358 -0.1076 -1.2602
11356TIP3   OH255482   4.921   0.848   0.487 -0.8030  0.0329 -0.3841
11356TIP3    H155483   4.985   0.902   0.533  0.1017  0.1443 -1.7331
11356TIP3    H255484   4.842   0.853   0.541  0.3225 -0.1528  1.3347
11357TIP3   OH255485   6.060   0.081  12.853  0.3426 -0.6419 -0.2358
11357TIP3    H155486   6.023   0.045  12.772  0.9704 -0.9726 -0.3831
11357TIP3    H255487   6.077   0.004  12.907  0.4742 -0.4628 -0.0251
11358TIP3   OH255488   1.496   5.510  15.988  0.3146 -0.2114 -0.0942
11358TIP3    H155489   1.435   5.513  15.914  0.9157 -2.2713 -0.7225
11358TIP3    H255490   1.576   5.550  15.954 -0.2574  1.2672  0.2975
11359TIP3   OH255491   5.813   2.666  13.634 -0.1298  0.3811  0.0867
11359TIP3    H155492   5.730   2.662  13.681 -1.0395  1.6062 -1.3934
11359TIP3    H255493   5.811   2.749  13.588  1.9539  0.4605  0.0709
11360TIP3   OH255494   1.502   4.343   2.935 -0.0577 -0.5423 -0.0546
11360TIP3    H155495   1.527   4.254   2.961  0.1879 -0.4816 -0.0809
11360TIP3    H255496   1.580   4.396   2.954 -0.4360 -0.2101  0.5929
11361TIP3   OH255497   6.689   3.839   0.086 -0.0773 -0.2302 -0.3573
11361TIP3    H155498   6.737   3.854   0.005 -0.5032  1.6870 -0.2744
11361TIP3    H255499   6.738   3.769   0.130  0.7100 -0.6081 -1.8006
11362TIP3   OH255500   4.646   3.586  14.170 -0.5616 -0.2337 -0.0421
11362TIP3    H155501   4.596   3.539  14.103 -0.0431  1.7612 -1.8612
11362TIP3    H255502   4.580   3.633  14.220 -1.0074 -2.2041  1.2678
11363TIP3   OH255503   3.404   5.535   1.627 -0.3254  0.2203 -0.2909
11363TIP3    H155504   3.382   5.605   1.566 -2.3651 -0.6874 -0.6376
11363TIP3    H255505   3.363   5.561   1.709  0.6155  0.3977  0.1296
11364TIP3   OH255506   5.217   1.584  16.548  0.3261 -0.0906  0.4596
11364TIP3    H155507   5.245   1.495  16.568 -1.5685 -1.0608 -1.0809
11364TIP3    H255508   5.216   1.588  16.452  0.9368  1.7846  0.5015
11365TIP3   OH255509   1.423   6.730  14.651 -0.0571  0.3381 -0.4313
11365TIP3    H155510   1.406   6.823  14.635  1.2309  0.6956  0.2530
11365TIP3    H255511   1.518   6.721  14.639  0.0199 -0.6105  0.8468
11366TIP3   OH255512   4.104   0.718  17.063  0.1900 -0.0491  0.0018
11366TIP3    H155513   4.065   0.673  16.989 -0.4683  3.7841 -2.1128
11366TIP3    H255514   4.035   0.722  17.129 -0.4279 -0.2812 -0.6302
11367TIP3   OH255515   1.673   1.049   5.610  0.2677 -0.0488 -0.2850
11367TIP3    H155516   1.605   1.073   5.672  1.0066  1.8135 -0.1765
11367TIP3    H255517   1.633   1.064   5.524 -0.0053 -0.5353 -0.2468
11368TIP3   OH255518   0.666   0.531  13.971  0.1370  0.2303  0.0062
11368TIP3    H155519   0.701   0.470  13.906  1.9306  2.0319 -0.7607
11368TIP3    H255520   0.595   0.577  13.925  2.1332  2.2894 -1.0840
11369TIP3   OH255521   3.331   5.180   5.317  0.2900  0.1348 -0.2042
11369TIP3    H155522   3.423   5.194   5.293  0.3603 -1.5550 -0.9634
11369TIP3    H255523   3.282   5.240   5.261  0.8225 -0.1573 -0.9946
11370TIP3   OH255524   2.125   6.299   5.965 -0.6594  0.6594  0.2758
11370TIP3    H155525   2.091   6.229   6.021 -1.8276  0.6297 -0.4447
11370TIP3    H255526   2.214   6.271   5.944 -1.0197 -0.5018  0.2081
11371TIP3   OH255527   3.494   4.834  14.597  0.8051 -0.0370 -0.2371
11371TIP3    H155528   3.505   4.787  14.680  0.9107  1.0704  0.3777
11371TIP3    H255529   3.440   4.775  14.544 -0.2057 -0.2602  1.0153
11372TIP3   OH255530   3.001   6.511  15.509  0.5603 -0.1263  0.1993
11372TIP3    H155531   2.968   6.542  15.424 -0.6353 -1.2977  0.2342
11372TIP3    H255532   2.996   6.589  15.565 -1.2304 -0.0153 -0.0654
11373TIP3   OH255533   3.464   1.022   6.142  0.4023 -0.3687 -0.6192
11373TIP3    H155534   3.514   0.941   6.149 -0.3615 -0.8600 -0.8493
11373TIP3    H255535   3.530   1.089   6.125  1.0713 -0.8894 -0.0812
11374TIP3   OH255536   2.622   3.877  14.244  0.3512 -0.8052 -0.3897
11374TIP3    H155537   2.528   3.860  14.240  0.2165 -0.0449 -0.5138
11374TIP3    H255538   2.662   3.795  14.217 -0.2353 -2.0523  2.2950
11375TIP3   OH255539   5.220   6.414  16.965 -0.1508  0.0465  0.1870
11375TIP3    H155540   5.300   6.457  16.936  0.1042 -0.5236  0.0485
11375TIP3    H255541   5.186   6.471  17.034  0.8484 -0.1546  0.8660
11376TIP3   OH255542   2.674   3.678  14.021 -0.0276 -0.6422 -0.2837
11376TIP3    H155543   2.620   3.609  14.059  1.5335 -0.9519  1.4332
11376TIP3    H255544   2.753   3.632  13.991  0.3269  0.1562 -0.5873
11377TIP3   OH255545   2.631   5.746   3.852 -0.6524  0.2714  0.3099
11377TIP3    H155546   2.629   5.793   3.768  1.0794 -0.3056 -0.0596
11377TIP3    H255547   2.699   5.681   3.842 -0.9872 -0.3482  1.9027
11378TIP3   OH255548   4.425   5.926  13.359 -0.2506  0.1790 -0.4293
11378TIP3    H155549   4.488   5.911  13.289 -1.4139 -0.5582 -1.3254
11378TIP3    H255550   4.392   6.014  13.344  1.0884  0.8486  0.4691
11379TIP3   OH255551   3.505   5.831  11.425 -0.4667 -0.2725  0.2399
11379TIP3    H155552   3.531   5.869  11.341  4.1795 -0.6642  1.3737
11379TIP3    H255553   3.488   5.739  11.406  0.6767 -0.3827 -0.2637
11380TIP3   OH255554   4.755   0.981   0.022 -0.6644 -0.2734 -0.3864
11380TIP3    H155555   4.756   0.905   0.080 -1.4115  1.5315  2.0668
11380TIP3    H255556   4.845   0.989  -0.009 -0.0335 -0.7256  1.2876
11381TIP3   OH255557   4.904   5.548  10.470 -0.1409 -0.6182  0.0556
11381TIP3    H155558   4.962   5.553  10.546  0.2389  1.9410 -0.3587
11381TIP3    H255559   4.817   5.569  10.505  0.0807  0.8481 -0.2362
11382TIP3   OH255560   2.775   3.559  12.562 -0.5267 -0.3145  0.6203
11382TIP3    H155561   2.729   3.477  12.582 -0.0571 -0.5774  0.6184
11382TIP3    H255562   2.834   3.571  12.636 -0.4199 -0.1030  0.4988
11383TIP3   OH255563   4.342   4.489  13.514  0.4372 -0.3070  0.0246
11383TIP3    H155564   4.428   4.512  13.549  0.1205 -1.2847  1.4829
11383TIP3    H255565   4.359   4.418  13.452  0.7172 -0.2331  0.0154
11384TIP3   OH255566   4.442   1.487  10.608 -0.4627  0.0036 -0.0379
11384TIP3    H155567   4.373   1.420  10.609 -0.9023  0.4713  1.3462
11384TIP3    H255568   4.501   1.461  10.678  0.8541 -0.4508 -1.2852
11385TIP3   OH255569   3.864   5.946  12.499  0.0236  0.2595 -0.2161
11385TIP3    H155570   3.946   5.920  12.457  0.3519  0.2914  0.3976
11385TIP3    H255571   3.872   5.913  12.588 -0.5647  0.4059 -0.1099
11386TIP3   OH255572   5.206   2.032  15.374  0.0971  0.3463  0.5665
11386TIP3    H155573   5.237   2.096  15.439  1.1334  0.2103  0.2083
11386TIP3    H255574   5.222   2.075  15.290 -1.3924  0.5834  0.4011
11387TIP3   OH255575   6.244   3.067  16.936 -0.4994 -0.1727 -0.4534
11387TIP3    H155576   6.223   3.119  16.859  0.5213  0.1858 -0.5050
11387TIP3    H255577   6.160   3.040  16.972 -1.0348  1.3724 -0.5235
11388TIP3   OH255578   1.929   6.628   5.565 -0.2651  0.2407 -0.1732
11388TIP3    H155579   1.987   6.704   5.570 -0.4826  0.4021 -0.0539
11388TIP3    H255580   1.850   6.662   5.522  0.1308 -0.2275 -1.2913
11389TIP3   OH255581   2.605   5.107  16.817  0.2429  0.4017 -0.1498
11389TIP3    H155582   2.592   5.080  16.726 -0.5087  0.5196 -0.0841
11389TIP3    H255583   2.520   5.144  16.843  1.1407  2.5234 -0.1430
11390TIP3   OH255584   1.857   0.433   2.517  0.0439  0.4143  0.1504
11390TIP3    H155585   1.859   0.474   2.603  0.5169  1.5050 -0.3685
11390TIP3    H255586   1.901   0.349   2.528 -1.7485 -0.3859  1.4409
11391TIP3   OH255587   4.523   4.356  12.505 -0.1952 -0.1805 -0.3418
11391TIP3    H155588   4.610   4.367  12.542 -0.3633 -0.5774  0.1903
11391TIP3    H255589   4.490   4.445  12.495  0.7709  0.0201 -1.7764
11392TIP3   OH255590   3.082   3.265   3.166  0.4618 -0.2056 -0.0235
11392TIP3    H155591   3.097   3.185   3.116  1.5164 -1.3729  2.1057
11392TIP3    H255592   3.148   3.327   3.135 -1.3024  0.3917 -2.7454
11393TIP3   OH255593   2.707   0.912  15.823  0.0767 -0.4074  0.0897
11393TIP3    H155594   2.639   0.950  15.878 -0.7338 -1.0534 -0.4524
11393TIP3    H255595   2.661   0.882  15.744  0.9602 -0.9734 -0.2277
11394TIP3   OH255596   4.912   1.829   0.643 -0.0497  0.1469  0.2494
11394TIP3    H155597   4.914   1.913   0.597 -0.0979  0.7941  1.4217
11394TIP3    H255598   4.878   1.850   0.730 -0.9283 -1.2289  0.2571
11395TIP3   OH255599   3.265   2.783   5.071 -0.2810 -0.5179  0.2938
11395TIP3    H155600   3.345   2.831   5.092 -1.6747  2.4368 -0.8794
11395TIP3    H255601   3.208   2.797   5.146 -1.1733  0.7981 -0.6117
11396TIP3   OH255602   1.827   3.748   1.192  0.2782  0.1532 -0.4164
11396TIP3    H155603   1.904   3.801   1.169  0.7170  0.0042  0.6870
11396TIP3    H255604   1.806   3.774   1.282  0.2824 -1.2975  0.0092
11397TIP3   OH255605   2.173   5.012  14.375  0.1165 -0.7153 -0.3329
11397TIP3    H155606   2.220   5.032  14.294 -0.2618 -0.6247 -0.5365
11397TIP3    H255607   2.110   4.944  14.350 -0.1991 -0.4810 -0.1833
11398TIP3   OH255608   1.220   4.056  13.661  0.2972 -0.3017 -1.0096
11398TIP3    H155609   1.284   3.997  13.700 -1.1946  0.3560  2.6465
11398TIP3    H255610   1.265   4.140  13.656 -0.0705  0.0452  1.0938
11399TIP3   OH255611   4.641   4.480  12.164  0.0140 -0.3464 -0.9009
11399TIP3    H155612   4.718   4.458  12.217  0.2143  2.1455 -0.0960
11399TIP3    H255613   4.586   4.402  12.168  2.0039 -1.7872 -0.6284
11400TIP3   OH255614   0.232   5.399  11.544  0.1450 -0.2249 -0.3471
11400TIP3    H155615   0.186   5.471  11.499  0.8709  0.1862 -0.4332
11400TIP3    H255616   0.205   5.408  11.636 -2.3293 -1.8272 -0.8684
11401TIP3   OH255617   4.275   5.049   3.128  0.2837 -0.2392  0.0525
11401TIP3    H155618   4.276   5.034   3.033  1.2739 -0.2155  0.0541
11401TIP3    H255619   4.183   5.045   3.152 -0.2665  2.6730 -1.3783
11402TIP3   OH255620   5.502   0.256  11.640  0.1210  0.4735  0.1575
11402TIP3    H155621   5.482   0.296  11.724  1.5408 -0.4983  0.9764
11402TIP3    H255622   5.525   0.330  11.583 -1.9854  1.2462  0.2437
11403TIP3   OH255623   3.158   0.639   4.556 -0.5872 -0.4528  0.4541
11403TIP3    H155624   3.095   0.566   4.558 -0.7640 -0.2922  0.8019
11403TIP3    H255625   3.103   0.717   4.553 -0.3881 -0.3730 -1.2132
11404TIP3   OH255626   3.451   0.548   2.551  0.3940  0.0613  0.5174
11404TIP3    H155627   3.392   0.519   2.481 -1.6823  0.8873  1.8657
11404TIP3    H255628   3.527   0.583   2.505 -1.4695  1.7557 -1.4137
11405TIP3   OH255629   3.480   5.530  12.957  0.2672 -0.3436  0.2441
11405TIP3    H155630   3.523   5.613  12.934  2.2887 -1.5783 -0.5403
11405TIP3    H255631   3.424   5.510  12.882  0.0074  0.1506  0.3024
11406TIP3   OH255632   0.415   0.594  12.870 -0.2848  0.3699  0.0884
11406TIP3    H155633   0.430   0.507  12.905 -0.5064 -0.1764 -1.1233
11406TIP3    H255634   0.499   0.639  12.877  0.4598 -0.7586 -1.4926
11407TIP3   OH255635   4.828   4.217  11.959  0.2680 -0.1118  0.3451
11407TIP3    H155636   4.790   4.227  11.872  0.3100  0.0141  0.3411
11407TIP3    H255637   4.755   4.188  12.014 -0.1504  1.4244  0.6174
11408TIP3   OH255638   5.558   2.602  12.042  0.3990 -0.3157  0.1084
11408TIP3    H155639   5.525   2.650  12.118  1.0981 -0.3721  0.4531
11408TIP3    H255640   5.566   2.512  12.072 -1.2194 -0.7149 -0.6380
11409TIP3   OH255641   4.681   0.027  11.402 -0.0983  0.1663 -0.2579
11409TIP3    H155642   4.669   0.039  11.496  1.0718  0.0703 -0.0939
11409TIP3    H255643   4.714  -0.062  11.393 -3.9466 -1.2588 -1.0809
11410TIP3   OH255644   2.667   3.238   1.083 -0.3733  0.1993 -0.0631
11410TIP3    H155645   2.685   3.192   1.165 -2.1622 -0.1142  0.1746
11410TIP3    H255646   2.750   3.236   1.036  0.3557 -0.6730  1.2245
11411TIP3   OH255647   2.282   4.955  12.415  0.0060  0.1595  0.1982
11411TIP3    H155648   2.235   5.030  12.377  0.3245  0.4453  0.3709
11411TIP3    H255649   2.270   4.885  12.350  0.4338  0.6045 -0.3716
11412TIP3   OH255650   2.812   0.131  16.131 -0.2579  0.2183  0.5341
11412TIP3    H155651   2.801   0.039  16.155 -0.9226  0.1384 -0.0395
11412TIP3    H255652   2.728   0.171  16.155  0.1472  0.7417  1.0787
11413TIP3   OH255653   0.777   4.854   5.324  0.3920  0.3261  0.0704
11413TIP3    H155654   0.749   4.910   5.251 -0.7110  0.4460  0.5760
11413TIP3    H255655   0.783   4.914   5.399  0.8910  0.0841  0.2215
11414TIP3   OH255656   0.211   0.784  12.892 -0.1830  0.2223 -0.0069
11414TIP3    H155657   0.175   0.814  12.809  0.0475  1.0038  0.1739
11414TIP3    H255658   0.269   0.711  12.868  0.3325  0.8191 -0.5949
11415TIP3   OH255659   2.869   4.276   2.780  0.9219 -0.0876 -0.0951
11415TIP3    H155660   2.866   4.316   2.867  0.0663 -1.8081  0.6905
11415TIP3    H255661   2.849   4.347   2.720 -1.2933  0.5285  1.3209
11416TIP3   OH255662   1.722   2.621  12.158  0.0294  0.4477 -0.0077
11416TIP3    H155663   1.642   2.673  12.159 -0.6649 -0.6176  1.3482
11416TIP3    H255664   1.722   2.574  12.241  1.6667 -0.1756 -0.3260
11417TIP3   OH255665   0.090   5.708   1.383  0.5189  0.2455  0.0466
11417TIP3    H155666   0.135   5.687   1.301  0.2870 -0.6946  0.1595
11417TIP3    H255667   0.148   5.675   1.452 -0.5837 -1.4787  0.1783
11418TIP3   OH255668   4.985   4.099   0.698  0.2996  0.0034  0.3832
11418TIP3    H155669   4.951   4.180   0.738 -1.3078 -0.9638  1.0137
11418TIP3    H255670   4.995   4.039   0.772  0.3296 -0.7698 -0.2526
11419TIP3   OH255671   4.145   1.105  14.925 -0.1497  0.0835 -0.3356
11419TIP3    H155672   4.171   1.124  14.835 -1.3700 -0.6623 -0.8605
11419TIP3    H255673   4.153   1.188  14.971  0.7434  0.4065 -1.0730
11420TIP3   OH255674   0.668   3.596  11.054 -0.2608 -0.2048 -0.3655
11420TIP3    H155675   0.675   3.516  11.106  2.3336 -1.2437 -2.2123
11420TIP3    H255676   0.691   3.569  10.965 -0.4630  2.3923 -1.2576
11421TIP3   OH255677   1.217   2.524   1.852 -0.4976 -0.6311  0.0035
11421TIP3    H155678   1.219   2.445   1.906 -2.1083  0.0232  1.0770
11421TIP3    H255679   1.287   2.512   1.788  0.1516 -2.3135  1.0049
11422TIP3   OH255680   4.151   3.135  10.983 -0.2894 -0.0538 -0.4156
11422TIP3    H155681   4.079   3.161  11.040  0.5875  1.4004  0.0546
11422TIP3    H255682   4.205   3.077  11.036  0.3806  1.0833  0.1572
11423TIP3   OH255683   3.359   3.566  15.471 -0.0469 -0.3426  0.1483
11423TIP3    H155684   3.329   3.506  15.403 -0.9413  1.2182 -0.8852
11423TIP3    H255685   3.321   3.532  15.552  0.3454 -1.7503 -0.2488
11424TIP3   OH255686   3.928   3.017  11.535 -0.5380  0.0573  0.1418
11424TIP3    H155687   3.944   3.095  11.589  2.7872 -1.3902  1.3955
11424TIP3    H255688   3.886   2.955  11.594  1.6790 -0.9691  0.6840
11425TIP3   OH255689   0.593   3.384  12.906  0.0230  0.2281  0.2933
11425TIP3    H155690   0.643   3.350  12.832  0.5328 -1.4408  1.3634
11425TIP3    H255691   0.506   3.347  12.894 -0.0146  0.3141  0.3007
11426TIP3   OH255692   0.166   6.221   1.869  0.3695 -0.1615  0.0365
11426TIP3    H155693   0.255   6.196   1.896 -0.1170 -2.4332 -0.3229
11426TIP3    H255694   0.177   6.257   1.781  0.6436 -3.0426 -1.1632
11427TIP3   OH255695   3.960   1.146  17.098  0.0808 -0.3471  0.3940
11427TIP3    H155696   3.936   1.079  17.163  1.2051 -0.2554  0.9085
11427TIP3    H255697   4.047   1.121  17.069  0.0931  0.3283 -0.1529
11428TIP3   OH255698   6.455   5.588   3.132  0.0454  0.0688  0.2377
11428TIP3    H155699   6.370   5.631   3.147  0.6732  1.3743  0.1704
11428TIP3    H255700   6.488   5.629   3.052  0.9734 -0.0355  0.5589
11429TIP3   OH255701   0.582   1.770   2.291 -0.0697  0.5003 -0.5389
11429TIP3    H155702   0.634   1.712   2.236 -0.7953 -0.0234 -0.6715
11429TIP3    H255703   0.625   1.856   2.282  1.6556 -0.2171  0.5152
11430TIP3   OH255704   2.721   3.356  14.088  0.1549 -0.4335  1.0690
11430TIP3    H155705   2.656   3.417  14.122  1.2363 -0.3553  3.0480
11430TIP3    H255706   2.796   3.412  14.067  0.5680 -0.8762  1.3723
11431TIP3   OH255707   3.545   0.176   6.285 -0.2016  0.3594 -0.1268
11431TIP3    H155708   3.507   0.263   6.268 -1.6356 -0.0622  0.8069
11431TIP3    H255709   3.475   0.115   6.262 -0.2929 -0.4195  2.1359
11432TIP3   OH255710   4.077   1.473   1.229  0.2749 -0.1987  0.9328
11432TIP3    H155711   3.998   1.420   1.240 -0.8329  1.0511 -0.8006
11432TIP3    H255712   4.055   1.558   1.266  1.3654 -0.3234  1.8852
11433TIP3   OH255713   3.068   5.120   1.469 -0.5996 -0.1329  0.3173
11433TIP3    H155714   2.990   5.129   1.522 -1.1194  1.1119 -0.6201
11433TIP3    H255715   3.133   5.176   1.511 -1.0222  0.8805 -0.3638
11434TIP3   OH255716   5.820   1.813   4.494 -0.1486 -0.5145 -0.0959
11434TIP3    H155717   5.797   1.764   4.572 -1.4039  0.2818  0.0403
11434TIP3    H255718   5.755   1.786   4.428  1.0246 -1.3457 -0.9373
11435TIP3   OH255719   5.507   3.850   2.346  0.2843 -0.4305 -0.4196
11435TIP3    H155720   5.493   3.890   2.260  1.1947 -0.8211 -0.7535
11435TIP3    H255721   5.560   3.773   2.328  0.6805 -0.3807  0.5265
11436TIP3   OH255722   5.039   1.194  14.089 -0.2577  0.6581  0.4547
11436TIP3    H155723   5.059   1.172  13.998 -3.2262 -0.4691 -0.0008
11436TIP3    H255724   5.007   1.284  14.085 -0.6962  0.4983  0.3226
11437TIP3   OH255725   5.763   1.286   3.763 -0.1462 -0.6641  0.7417
11437TIP3    H155726   5.712   1.251   3.691  0.7932 -1.3373  0.3934
11437TIP3    H255727   5.777   1.212   3.822  0.8658 -0.6140  0.5723
11438TIP3   OH255728   5.231   3.940  16.651 -0.5780 -0.1079  1.0390
11438TIP3    H155729   5.182   3.877  16.598 -0.8481  0.5929  0.4429
11438TIP3    H255730   5.179   4.020  16.646  0.1366  0.3652  1.2121
11439TIP3   OH255731   3.011   1.524   2.437 -0.2623  0.0934 -0.4890
11439TIP3    H155732   2.942   1.474   2.481  1.6273 -0.8050  1.5869
11439TIP3    H255733   3.001   1.502   2.344 -2.1185 -0.8002 -0.1180
11440TIP3   OH255734   2.700   4.796  16.530 -0.1897 -0.4878  0.0643
11440TIP3    H155735   2.655   4.880  16.534 -1.9458 -1.0945 -4.2699
11440TIP3    H255736   2.786   4.813  16.567 -0.1610  3.4885 -1.6147
11441TIP3   OH255737   4.279   6.320  15.147  0.2568 -0.3520  0.1161
11441TIP3    H155738   4.331   6.370  15.209 -1.5317  0.6420  0.8342
11441TIP3    H255739   4.288   6.367  15.064 -3.4748  2.7451  1.3332
11442TIP3   OH255740   4.884   5.041  15.503  0.2822  0.1639  0.1884
11442TIP3    H155741   4.833   4.963  15.481  1.0688 -0.1235 -0.6229
11442TIP3    H255742   4.975   5.014  15.493  0.5262  1.8376 -2.3761
11443TIP3   OH255743   5.862   6.096   2.186  0.3548  0.2253  0.3947
11443TIP3    H155744   5.861   6.018   2.241 -0.6610  0.1564  0.2791
11443TIP3    H255745   5.789   6.149   2.217  0.2292  0.5290 -0.4003
11444TIP3   OH255746   0.032   2.947  17.132 -0.6503  0.1676  0.8010
11444TIP3    H155747   0.015   3.017  17.194 -1.9147  1.7388 -1.2516
11444TIP3    H255748  -0.050   2.898  17.126 -0.7034  0.3376  0.0011
11445TIP3   OH255749   3.109   0.000  16.394  0.3681 -0.3878  0.1502
11445TIP3    H155750   3.071  -0.038  16.473 -0.2039  0.5798  0.3513
11445TIP3    H255751   3.200   0.019  16.418  0.3395 -0.5774  0.4115
11446TIP3   OH255752   0.201   6.462  17.133  0.3358  0.1473  0.1048
11446TIP3    H155753   0.179   6.474  17.041 -2.0838  0.3683  0.6909
11446TIP3    H255754   0.157   6.380  17.157 -1.1894  1.4114  1.7090
11447TIP3   OH255755   3.203   2.822  15.721  0.0485 -0.0259  0.5185
11447TIP3    H155756   3.241   2.735  15.731 -0.0948 -0.1903 -0.3059
11447TIP3    H255757   3.196   2.856  15.810 -0.6733 -1.1848  0.9032
11448TIP3   OH255758   3.385   2.005   4.331  0.8147  0.6579  0.2622
11448TIP3    H155759   3.342   1.927   4.368 -0.2998  2.0917  2.0521
11448TIP3    H255760   3.476   1.996   4.359  0.8459 -0.3458 -0.1161
11449TIP3   OH255761   3.924   0.674  11.407 -0.2379  0.3382  0.4884
11449TIP3    H155762   3.872   0.753  11.395  0.2991  0.6905  0.4829
11449TIP3    H255763   3.934   0.638  11.319 -0.5425  0.2287  0.4995
11450TIP3   OH255764   3.087   0.596   5.806 -0.5689  0.7059  0.3898
11450TIP3    H155765   3.126   0.659   5.867  1.0966  0.8789 -0.8274
11450TIP3    H255766   3.120   0.511   5.836 -0.4620  0.7027  0.2616
11451TIP3   OH255767   2.817   1.172  14.484  0.1279 -0.2411 -0.7734
11451TIP3    H155768   2.813   1.201  14.575  0.9085 -1.0131 -0.4843
11451TIP3    H255769   2.752   1.102  14.478 -0.8464  0.6821 -1.1457
11452TIP3   OH255770   3.199   0.480  15.279  0.0443  0.1919  0.2288
11452TIP3    H155771   3.290   0.505  15.260  0.0836  0.4881  0.7823
11452TIP3    H255772   3.177   0.415  15.213 -0.4333  2.5355 -1.9939
11453TIP3   OH255773   3.140   6.543  10.968 -0.6085  0.0770 -0.0395
11453TIP3    H155774   3.123   6.637  10.968 -0.9967  0.0087 -1.4027
11453TIP3    H255775   3.056   6.503  10.945 -0.0598 -0.5249 -1.0322
11454TIP3   OH255776   2.691   2.686  15.912 -0.4002 -0.2028  0.1601
11454TIP3    H155777   2.765   2.745  15.903 -0.0804 -0.4917  0.9314
11454TIP3    H255778   2.719   2.605  15.869  0.4589 -0.9714  2.1453
11455TIP3   OH255779   5.518   2.596  14.612  0.7866  0.1394 -0.0480
11455TIP3    H155780   5.540   2.516  14.565  0.7192 -0.8391  1.5262
11455TIP3    H255781   5.462   2.645  14.552  0.8213 -0.9952 -1.0246
11456TIP3   OH255782   3.039   0.237  11.457  0.9553  0.5176 -0.1475
11456TIP3    H155783   3.106   0.199  11.400  0.5734  0.6645 -0.6952
11456TIP3    H255784   3.020   0.168  11.521  0.9277  0.1298 -0.5776
11457TIP3   OH255785   6.085   5.807  14.063 -0.3739 -0.0367 -0.0621
11457TIP3    H155786   6.154   5.790  14.128 -0.1209 -0.2504 -0.3812
11457TIP3    H255787   6.017   5.854  14.112 -0.7835 -1.3622  0.6941
11458TIP3   OH255788   3.572   5.560  12.146  0.2067  0.5359 -0.6456
11458TIP3    H155789   3.667   5.554  12.149  0.2337  1.2027 -0.1202
11458TIP3    H255790   3.548   5.527  12.059  0.8922  0.1029 -0.6724
11459TIP3   OH255791   6.409   0.084   4.880  0.2703  0.2606  0.8089
11459TIP3    H155792   6.450   0.153   4.931  1.2564 -0.2944  0.7671
11459TIP3    H255793   6.459   0.005   4.900  0.1676 -0.1222 -0.3790
11460TIP3   OH255794   0.941   0.473  14.213  0.1662 -0.6111  0.1548
11460TIP3    H155795   0.917   0.402  14.153  1.0268  0.1647 -1.1318
11460TIP3    H255796   0.994   0.430  14.281 -0.8093 -1.4933  0.3652
11461TIP3   OH255797   2.519   3.731  13.623  0.0630  0.4369 -0.2449
11461TIP3    H155798   2.503   3.814  13.668  1.6546  1.8947 -2.2619
11461TIP3    H255799   2.443   3.719  13.566  0.5906  1.3582 -1.1549
11462TIP3   OH255800   1.118   3.354   4.039  0.6888 -0.6154  0.5379
11462TIP3    H155801   1.117   3.296   3.963 -0.7204 -0.7995  0.6806
11462TIP3    H255802   1.167   3.431   4.011 -0.6188 -0.2732 -0.8795
11463TIP3   OH255803   5.198   6.294  11.152  0.2673 -0.2220 -0.2989
11463TIP3    H155804   5.150   6.364  11.106  2.3238 -0.3288 -2.7508
11463TIP3    H255805   5.181   6.216  11.100  1.4201 -0.6641 -0.0211
11464TIP3   OH255806   2.885   3.190  13.328 -0.4073 -0.1298 -0.1038
11464TIP3    H155807   2.920   3.101  13.337  0.8872 -0.0868 -3.8681
11464TIP3    H255808   2.935   3.242  13.390  0.3722 -1.6445  0.5590
11465TIP3   OH255809   4.403   2.775  16.621  0.6182  0.1801  0.1365
11465TIP3    H155810   4.332   2.784  16.559 -0.2369 -0.6628  0.9848
11465TIP3    H255811   4.475   2.825  16.582 -0.7979  2.0432 -0.1371
11466TIP3   OH255812   2.997   5.731  15.854 -0.2099 -0.2547  0.2447
11466TIP3    H155813   3.006   5.671  15.928 -1.0852 -1.6681 -0.7733
11466TIP3    H255814   3.082   5.774  15.848  0.6963 -1.9536  0.5238
11467TIP3   OH255815   6.716   6.445  14.720  0.1095  0.2267 -0.9377
11467TIP3    H155816   6.690   6.534  14.697 -1.4655 -0.1107 -0.5090
11467TIP3    H255817   6.772   6.417  14.647 -1.5488  0.6234 -2.4057
11468TIP3   OH255818   1.688   0.897   2.821  0.6815  0.4749  0.5557
11468TIP3    H155819   1.770   0.945   2.831 -1.0451  3.7333 -0.3895
11468TIP3    H255820   1.682   0.878   2.728 -0.1673  1.2025  0.4620
11469TIP3   OH255821   5.916   2.843  15.033 -0.4547  0.6249 -0.1866
11469TIP3    H155822   6.003   2.867  15.001 -0.2227 -1.6652 -1.3464
11469TIP3    H255823   5.860   2.846  14.955 -1.0034  0.1758  0.1849
11470TIP3   OH255824   2.146   4.658   3.180 -0.1294 -0.5221 -0.1316
11470TIP3    H155825   2.146   4.749   3.150 -0.1004 -0.9604 -1.4791
11470TIP3    H255826   2.226   4.649   3.231 -0.4475  0.3782  0.5401
11471TIP3   OH255827   1.606   6.400   1.105 -0.2482  0.0644  0.0931
11471TIP3    H155828   1.591   6.469   1.169 -0.2254 -0.0762  0.2516
11471TIP3    H255829   1.524   6.394   1.056 -0.9348 -1.1047  1.3440
11472TIP3   OH255830   2.606   1.578  15.006  0.1314 -0.2053 -0.4117
11472TIP3    H155831   2.654   1.574  14.923 -2.4346  1.6258 -2.0389
11472TIP3    H255832   2.661   1.632  15.062  0.6177  0.8194 -1.8366
11473TIP3   OH255833   2.756   4.728   0.659  0.3738  0.1576 -0.2301
11473TIP3    H155834   2.748   4.639   0.694  2.5196 -0.0821 -0.3106
11473TIP3    H255835   2.792   4.716   0.571  1.8389  1.1630  0.2223
11474TIP3   OH255836   1.426   5.741  13.792  0.1201 -0.8426  0.4272
11474TIP3    H155837   1.376   5.723  13.712  1.4748  0.2226 -0.6826
11474TIP3    H255838   1.382   5.816  13.832  0.8941  0.1779 -0.6194
11475TIP3   OH255839   4.706   6.466   3.642 -0.4266 -0.1308  0.5836
11475TIP3    H155840   4.648   6.454   3.716 -0.0587 -0.4316  0.8250
11475TIP3    H255841   4.666   6.416   3.571 -0.2753 -0.6339  0.8496
11476TIP3   OH255842   4.902   6.459   5.254  0.1757 -0.0803 -0.2739
11476TIP3    H155843   4.980   6.466   5.199  0.8562 -0.6658  0.5996
11476TIP3    H255844   4.875   6.367   5.246 -0.7563  0.2535 -1.0164
11477TIP3   OH255845   2.315   6.627  17.210 -0.5995 -0.9965 -0.1677
11477TIP3    H155846   2.387   6.594  17.264  0.8891  1.3283 -0.6877
11477TIP3    H255847   2.342   6.611  17.120 -1.6495 -1.9435 -0.3264
11478TIP3   OH255848   2.826   0.819   3.828  0.5588 -0.0389  0.0147
11478TIP3    H155849   2.889   0.879   3.869  0.5065  0.1291 -0.1469
11478TIP3    H255850   2.826   0.845   3.736 -0.6298  0.7330  0.2326
11479TIP3   OH255851   2.370   6.541  16.902  0.3330 -0.7411 -0.1381
11479TIP3    H155852   2.356   6.454  16.940 -0.4398 -0.1239  1.0191
11479TIP3    H255853   2.297   6.552  16.840  0.6699 -1.0822 -0.5965
11480TIP3   OH255854   1.771   5.641  16.352  0.1929  0.2797 -0.1249
11480TIP3    H155855   1.726   5.725  16.350  0.7536  0.5904 -3.9160
11480TIP3    H255856   1.840   5.650  16.286  1.3762 -2.5548  0.6762
11481TIP3   OH255857   4.324   4.659   4.494  0.1840 -0.0114 -0.3582
11481TIP3    H155858   4.328   4.574   4.451 -0.8961 -0.2119 -0.0820
11481TIP3    H255859   4.251   4.651   4.555  0.1818  1.0645 -0.2191
11482TIP3   OH255860   2.583   4.591   6.320 -0.0801 -0.2060 -0.4038
11482TIP3    H155861   2.644   4.663   6.339  0.2620 -0.7419  0.5738
11482TIP3    H255862   2.602   4.567   6.229 -1.4803  2.1748 -1.3669
11483TIP3   OH255863   5.056   5.685   2.648  0.0702 -0.3067 -0.6060
11483TIP3    H155864   5.129   5.656   2.593 -0.2239 -0.1200 -1.0944
11483TIP3    H255865   5.056   5.780   2.640  2.2287  0.0317  2.5098
11484TIP3   OH255866   3.695   3.250  13.510  0.1516 -0.3432  0.6483
11484TIP3    H155867   3.716   3.315  13.578  0.9705  0.5048 -0.4037
11484TIP3    H255868   3.775   3.243  13.458 -0.5500 -0.8300 -0.3807
11485TIP3   OH255869   3.962   5.221  14.502 -0.3080  0.1126 -0.2065
11485TIP3    H155870   4.051   5.253  14.516 -0.2443 -0.7073  1.4134
11485TIP3    H255871   3.918   5.237  14.585 -1.1856 -1.0299 -0.4411
11486TIP3   OH255872   0.477   2.374   4.590  0.0935  0.1068  0.2738
11486TIP3    H155873   0.475   2.296   4.645  0.8263  1.0733  1.7125
11486TIP3    H255874   0.408   2.360   4.525 -1.0111 -0.9149  1.6399
11487TIP3   OH255875   4.718   0.891  13.113  0.3643 -0.4821  0.3758
11487TIP3    H155876   4.683   0.977  13.088  1.8082  0.8017  2.5306
11487TIP3    H255877   4.664   0.828  13.066 -1.3607  1.5893 -0.5066
11488TIP3   OH255878   0.222   0.684   4.524  0.8183  0.0672  0.1128
11488TIP3    H155879   0.186   0.698   4.611  3.2955  0.6341  1.0911
11488TIP3    H255880   0.302   0.736   4.522  0.8782 -0.0183 -2.4705
11489TIP3   OH255881   1.826   1.589  14.737  0.0599  0.1528 -0.0751
11489TIP3    H155882   1.850   1.668  14.787 -0.8535  0.8097 -0.6630
11489TIP3    H255883   1.898   1.577  14.676  1.3281 -0.8205  1.5797
11490TIP3   OH255884   5.820   0.460   2.262 -0.2187 -0.0690  0.1669
11490TIP3    H155885   5.808   0.547   2.225 -4.4233 -0.8813 -0.6375
11490TIP3    H255886   5.821   0.402   2.186  0.5701 -0.8834  0.7981
11491TIP3   OH255887   5.714   6.126  11.943 -0.3668  0.4332  0.0683
11491TIP3    H155888   5.784   6.070  11.978 -0.1861 -0.0738 -1.1008
11491TIP3    H255889   5.679   6.077  11.869 -2.1121  0.5852  0.7843
11492TIP3   OH255890   4.762   3.227  12.086 -0.1391  0.4182 -0.1183
11492TIP3    H155891   4.778   3.319  12.066 -0.3477  0.8847  1.7129
11492TIP3    H255892   4.751   3.225  12.181 -0.9222 -1.3905 -0.2254
11493TIP3   OH255893   4.998   6.680  10.415  0.2155 -0.2857 -0.8491
11493TIP3    H155894   4.969   6.598  10.456  0.9593  0.8282  1.9946
11493TIP3    H255895   4.918   6.729  10.400 -0.0293 -0.5104 -0.3015
11494TIP3   OH255896   3.320   2.084  12.194 -0.0659 -0.6208  0.5379
11494TIP3    H155897   3.401   2.135  12.204 -0.3449  0.0072 -0.3504
11494TIP3    H255898   3.280   2.085  12.281  0.7046 -0.6358  0.8955
11495TIP3   OH255899   0.828   4.244  14.786  0.3030  0.3036 -0.7548
11495TIP3    H155900   0.762   4.311  14.770 -1.8502 -1.0630  1.9593
11495TIP3    H255901   0.839   4.200  14.702 -1.6599  1.0852 -1.4469
11496TIP3   OH255902   1.515   3.536  12.342 -0.2663  0.2092  0.0626
11496TIP3    H155903   1.440   3.517  12.286 -2.1390 -0.2285  2.6492
11496TIP3    H255904   1.543   3.451  12.375  0.8230  0.4644 -0.1626
11497TIP3   OH255905   1.235   4.010  15.519  0.5703 -0.1329  0.4503
11497TIP3    H155906   1.303   3.990  15.455 -0.0950  3.0242 -1.3411
11497TIP3    H255907   1.273   4.076  15.576 -0.1517 -0.1693  0.9902
11498TIP3   OH255908   0.963   6.373   3.983  0.5005  0.2015  0.4462
11498TIP3    H155909   0.990   6.370   4.075  0.2137  1.1856  0.5754
11498TIP3    H255910   0.916   6.457   3.975 -1.3400 -0.8430 -0.0809
11499TIP3   OH255911   2.872   3.828   5.615  0.4482  0.3346  0.5592
11499TIP3    H155912   2.822   3.761   5.571  0.8552  0.2608  0.2033
11499TIP3    H255913   2.810   3.869   5.676 -0.1036  0.4203 -0.0567
11500TIP3   OH255914   6.560   0.504   4.413 -0.3470 -0.0450  0.0266
11500TIP3    H155915   6.595   0.518   4.501 -0.5319 -1.1696  0.2815
11500TIP3    H255916   6.617   0.557   4.357  0.4671 -0.2006  0.6909
11501TIP3   OH255917   5.707   4.066   2.451  0.1398  0.2690 -0.3905
11501TIP3    H155918   5.798   4.067   2.421  1.3112  0.8789  3.0079
11501TIP3    H255919   5.689   3.975   2.473  1.2766  0.7098  2.6325
11502TIP3   OH255920   1.440   0.849   1.570 -0.5169 -0.1017 -0.1251
11502TIP3    H155921   1.456   0.941   1.590 -0.4723 -1.0075  4.4120
11502TIP3    H255922   1.345   0.842   1.561 -0.5281  0.3730 -0.3498
11503TIP3   OH255923   2.926   1.180  10.709 -0.4159  0.8186 -0.0348
11503TIP3    H155924   2.942   1.180  10.803  2.7680  0.9804 -0.5156
11503TIP3    H255925   2.871   1.257  10.693  1.6699  2.6254  1.3110
11504TIP3   OH255926   4.921   5.237   0.816  0.1742 -0.3533  0.2495
11504TIP3    H155927   4.931   5.183   0.738 -1.7506 -0.0799 -0.2181
11504TIP3    H255928   4.830   5.268   0.812  0.5540  1.0082  1.7286
11505TIP3   OH255929   5.285   6.273  15.369  0.0610 -0.4392 -0.3045
11505TIP3    H155930   5.338   6.194  15.368  0.6644 -0.0344 -2.4693
11505TIP3    H255931   5.202   6.248  15.328  0.1099 -0.0677 -0.6419
11506TIP3   OH255932   3.567   5.614   5.556 -0.2921  0.4613  0.3516
11506TIP3    H155933   3.490   5.608   5.499  0.7036 -0.4180 -0.9267
11506TIP3    H255934   3.568   5.531   5.603  1.9142 -1.1022 -2.3248
11507TIP3   OH255935   3.156   1.302  16.655  0.0248 -0.3030 -0.1455
11507TIP3    H155936   3.205   1.243  16.711 -0.5191 -1.1812 -0.5862
11507TIP3    H255937   3.105   1.356  16.715  1.2643  0.3989  0.2982
11508TIP3   OH255938   2.598   4.550  13.227  0.0107  0.1202 -0.1967
11508TIP3    H155939   2.638   4.586  13.148  1.5270 -2.0724 -0.4572
11508TIP3    H255940   2.507   4.534  13.204  0.1707  0.5600 -1.1313
11509TIP3   OH255941   0.889   5.243   4.795  0.0923  0.3981  0.0775
11509TIP3    H155942   0.796   5.221   4.787  0.5841 -1.3041 -1.3544
11509TIP3    H255943   0.935   5.167   4.759  2.0394  1.2922  0.5876
11510TIP3   OH255944   5.159   0.427  14.347  0.4861  0.0184 -0.7579
11510TIP3    H155945   5.111   0.459  14.423  0.7740 -1.0206 -0.1280
11510TIP3    H255946   5.141   0.492  14.278  0.8882  1.3928  0.4154
11511TIP3   OH255947   0.797   6.249   2.664 -0.7353 -0.8724  0.0591
11511TIP3    H155948   0.874   6.192   2.666 -1.5143 -1.9979 -1.0517
11511TIP3    H255949   0.730   6.200   2.712 -0.8290 -0.0031  0.8166
11512TIP3   OH255950   1.351   2.525   5.426  0.1121  0.0773 -0.2551
11512TIP3    H155951   1.439   2.556   5.404 -0.6034  2.1404 -0.3282
11512TIP3    H255952   1.346   2.536   5.521  0.3313 -1.1147 -0.1059
11513TIP3   OH255953   0.521   3.221  17.133  0.3878  0.7945 -0.7499
11513TIP3    H155954   0.434   3.186  17.155  1.1828 -0.6439  0.2410
11513TIP3    H255955   0.543   3.278  17.206  0.7861  0.1858 -0.3877
11514TIP3   OH255956   6.380   2.102   3.668  0.0564  0.1169 -0.1590
11514TIP3    H155957   6.309   2.159   3.638  0.7813  0.8212 -0.5404
11514TIP3    H255958   6.336   2.019   3.688 -1.1834  1.1582  1.5386
11515TIP3   OH255959   2.158   3.730  15.607 -0.1040 -0.1996  0.1417
11515TIP3    H155960   2.225   3.661  15.608  0.8920  0.6853 -2.1565
11515TIP3    H255961   2.082   3.690  15.566 -0.1558 -0.4626  0.4881
11516TIP3   OH255962   3.931   6.021   1.741 -0.0926  0.3145  0.0188
11516TIP3    H155963   3.913   6.094   1.800 -2.2868  0.0156 -0.2626
11516TIP3    H255964   3.951   6.062   1.657  0.2055  0.6288  0.2409
11517TIP3   OH255965   2.896   4.114  13.004 -0.8160  0.1440  0.0493
11517TIP3    H155966   2.981   4.134  12.965 -0.2436  0.2019  1.3015
11517TIP3    H255967   2.917   4.066  13.084 -2.0258 -1.3526 -0.5152
11518TIP3   OH255968   4.983   2.026  14.107 -0.1508  0.2027  0.0407
11518TIP3    H155969   5.005   1.997  14.195 -0.3100  0.0124  0.0190
11518TIP3    H255970   4.914   2.090  14.120  1.0238  1.4543  0.1707
11519TIP3   OH255971   2.743   2.394   4.875 -0.4517  0.2702  0.3044
11519TIP3    H155972   2.765   2.487   4.865 -0.3476  0.2207  0.0580
11519TIP3    H255973   2.648   2.391   4.872 -0.4117  0.0166 -3.1329
11520TIP3   OH255974   5.561   6.354   3.594 -0.6249 -0.0263 -0.2877
11520TIP3    H155975   5.602   6.439   3.577 -1.0377  0.1269 -0.4987
11520TIP3    H255976   5.471   6.375   3.618  0.1594 -0.1571  2.9714
11521TIP3   OH255977   2.383   2.681   6.128 -0.0311 -0.0185  0.3888
11521TIP3    H155978   2.384   2.588   6.148 -0.3907 -0.1548 -0.1999
11521TIP3    H255979   2.475   2.708   6.135 -0.0000 -0.2976  1.0826
11522TIP3   OH255980   2.989   3.663  15.014  0.0263 -0.3235  0.3172
11522TIP3    H155981   2.992   3.756  15.039 -1.1663 -0.2956  0.3857
11522TIP3    H255982   3.025   3.662  14.925  0.1685  0.1817  0.3626
11523TIP3   OH255983   0.904   0.475   1.915 -0.0918 -0.3493 -0.4206
11523TIP3    H155984   0.817   0.490   1.952  0.8564  2.1320  0.8875
11523TIP3    H255985   0.920   0.381   1.927 -1.7813 -0.4565  1.0852
11524TIP3   OH255986   1.897   5.143  12.095 -0.2890  0.2536 -0.1161
11524TIP3    H155987   1.925   5.155  12.005  1.1833 -0.6846  0.1801
11524TIP3    H255988   1.978   5.118  12.141 -1.5072 -1.8812  0.9231
11525TIP3   OH255989   6.600   4.082   2.166  0.3679  0.1429  0.0132
11525TIP3    H155990   6.605   4.164   2.117 -0.1431 -0.1342 -0.4926
11525TIP3    H255991   6.572   4.017   2.103 -0.0406 -0.2653  0.6057
11526TIP3   OH255992   5.352   1.651   1.852  0.1662 -0.4545  0.4154
11526TIP3    H155993   5.438   1.638   1.893  0.6160  0.6233 -0.1684
11526TIP3    H255994   5.361   1.732   1.802 -0.7479 -1.1349 -0.8735
11527TIP3   OH255995   4.898   2.232  15.712  0.1591 -0.2190 -0.1213
11527TIP3    H155996   4.952   2.297  15.757  0.0099 -0.8091  0.9476
11527TIP3    H255997   4.903   2.256  15.620  0.3187  1.1479  0.2236
11528TIP3   OH255998   0.520   4.550  15.880  0.8408 -0.7307 -0.7149
11528TIP3    H155999   0.494   4.461  15.854  2.5364 -0.9267 -1.7828
11528TIP3    H256000   0.572   4.538  15.959  1.7492 -0.7547 -1.3185
11529TIP3   OH256001   3.353   3.737  13.411  0.0585  0.4612 -0.0037
11529TIP3    H156002   3.411   3.667  13.441  0.0795  0.2091 -0.6233
11529TIP3    H256003   3.401   3.818  13.429 -0.2813  0.3529  1.4028
11530TIP3   OH256004   6.540   3.683   6.958  0.5081 -0.3556  0.1779
11530TIP3    H156005   6.601   3.688   6.885  0.1168 -0.4361 -0.1557
11530TIP3    H256006   6.506   3.771   6.968 -2.3381 -1.1118 -2.2318
11531TIP3   OH256007   3.423   5.112  14.081  0.1790 -0.4378 -0.2396
11531TIP3    H156008   3.439   5.170  14.156 -1.5648  0.5416 -0.5904
11531TIP3    H256009   3.492   5.136  14.018 -2.5289  3.8706 -1.8272
11532TIP3   OH256010   0.268   1.500  10.585 -0.2268  0.2517  0.4405
11532TIP3    H156011   0.203   1.454  10.532  0.7556 -0.9199  0.2197
11532TIP3    H256012   0.296   1.436  10.650  1.1409  0.5426  0.1505
11533TIP3   OH256013   2.983   2.235   3.933 -0.3936 -0.2375  0.0021
11533TIP3    H156014   3.014   2.280   4.012 -0.3538 -0.2258 -0.0196
11533TIP3    H256015   3.052   2.171   3.914  0.2760  0.7034 -0.8167
11534TIP3   OH256016   3.386   0.702   2.130 -0.2543 -0.0834  0.0160
11534TIP3    H156017   3.477   0.693   2.101 -0.2521  0.6031 -0.2025
11534TIP3    H256018   3.341   0.740   2.055 -0.6791 -0.2120  0.2031
11535TIP3   OH256019   3.118   1.277  15.095 -0.0263 -0.2814  0.2390
11535TIP3    H156020   3.143   1.252  15.184  0.8706  1.0604  0.3783
11535TIP3    H256021   3.200   1.299  15.052 -0.7703  2.7708  0.2497
11536TIP3   OH256022   4.435   3.186   0.578 -0.3822  0.0377 -0.7649
11536TIP3    H156023   4.405   3.129   0.649 -0.8685  0.0995 -0.9199
11536TIP3    H256024   4.454   3.126   0.506 -0.6353  0.0480 -0.8397
11537TIP3   OH256025   5.111   4.399  16.068  0.0916 -0.1134  0.6417
11537TIP3    H156026   5.064   4.317  16.052 -1.2812  0.2220  2.7713
11537TIP3    H256027   5.193   4.373  16.109 -0.3904 -0.4123  1.4135
11538TIP3   OH256028   0.767   4.358   0.703  0.4935 -0.5246  0.6230
11538TIP3    H156029   0.823   4.433   0.722  1.4770 -0.9630 -0.5039
11538TIP3    H256030   0.773   4.304   0.781  0.9302 -0.1392  0.8633
11539TIP3   OH256031   4.796   5.201  11.535 -0.0144  0.3780 -0.0610
11539TIP3    H156032   4.846   5.228  11.612 -0.9945 -0.3167  0.8330
11539TIP3    H256033   4.767   5.112  11.555 -0.1045  0.1075 -1.3260
11540TIP3   OH256034   5.270   4.220   2.846  0.3748 -0.2615 -0.2940
11540TIP3    H156035   5.352   4.242   2.803 -0.6232 -0.1872 -2.2319
11540TIP3    H256036   5.245   4.299   2.893  1.5049 -0.3556  0.4783
11541TIP3   OH256037   6.112   0.849   2.906  0.6505  0.1279 -0.1584
11541TIP3    H156038   6.030   0.861   2.954  1.1599 -0.3052  0.8410
11541TIP3    H256039   6.134   0.936   2.873  0.4600  0.4891  0.6637
11542TIP3   OH256040   2.255   2.162   2.174 -0.2522  0.0877  0.2967
11542TIP3    H156041   2.291   2.230   2.231 -1.1551  1.7922 -1.1027
11542TIP3    H256042   2.329   2.133   2.121  0.1264 -0.0165  0.8747
11543TIP3   OH256043   6.773   4.040  12.956  0.7905 -0.0503  0.6176
11543TIP3    H156044   6.764   4.133  12.976 -1.5868 -0.4138  1.2986
11543TIP3    H256045   6.782   4.037  12.860  0.0807  0.8372  0.5158
11544TIP3   OH256046   5.208   3.268  13.503  0.6333 -0.0234 -0.0407
11544TIP3    H156047   5.241   3.348  13.544  0.5355  1.0842 -2.0413
11544TIP3    H256048   5.170   3.298  13.420 -0.8073 -1.9431 -0.1136
11545TIP3   OH256049   5.951   3.557   3.108 -0.8651  0.2493 -0.1972
11545TIP3    H156050   6.010   3.542   3.034 -0.0770 -0.8764  0.6310
11545TIP3    H256051   5.916   3.470   3.128 -0.2119  0.3609  1.4577
11546TIP3   OH256052   0.929   2.188   1.606  0.1295  0.3045  0.3630
11546TIP3    H156053   0.995   2.140   1.556  0.1665 -0.3178  0.9949
11546TIP3    H256054   0.968   2.274   1.623 -0.1280  0.7417 -1.1916
11547TIP3   OH256055   2.780   1.664  16.627  0.2111  0.0129 -0.5548
11547TIP3    H156056   2.801   1.652  16.535  0.1088 -1.8317 -0.3582
11547TIP3    H256057   2.684   1.654  16.631  0.4130 -2.0106  0.0170
11548TIP3   OH256058   3.637   5.893  16.883  0.5578 -0.2399 -0.0607
11548TIP3    H156059   3.608   5.907  16.973  1.5603 -1.8384  0.5408
11548TIP3    H256060   3.718   5.943  16.876 -0.4399  1.3130 -0.6309
11549TIP3   OH256061   2.733   6.683   6.369 -0.5092  0.7499 -0.3777
11549TIP3    H156062   2.652   6.704   6.322 -0.8784  0.9922  0.3700
11549TIP3    H256063   2.748   6.759   6.425 -0.0063  0.5040 -0.1785
11550TIP3   OH256064   1.858   2.136   5.835  0.0088 -0.0895  0.2718
11550TIP3    H156065   1.945   2.163   5.864 -0.6022  1.7494  0.4403
11550TIP3    H256066   1.875   2.067   5.770  1.5390 -0.5478  1.1349
11551TIP3   OH256067   0.960   4.718  16.822 -0.1333  0.3252  0.6881
11551TIP3    H156068   0.968   4.623  16.824 -2.3443  0.1423  1.9058
11551TIP3    H256069   0.975   4.746  16.912  0.3550  1.1363  0.3658
11552TIP3   OH256070   2.038   2.139   3.044 -0.5561  0.0598 -0.1195
11552TIP3    H156071   2.006   2.072   2.983 -1.5276 -2.5457  3.0743
11552TIP3    H256072   2.078   2.089   3.116  0.9643  3.0126  1.1725
11553TIP3   OH256073   4.227   2.053   1.124 -0.9280  0.3201 -0.1567
11553TIP3    H156074   4.219   2.149   1.119 -0.8681  0.4574  1.8461
11553TIP3    H256075   4.180   2.021   1.047 -1.6603  1.9309 -0.4078
11554TIP3   OH256076   4.510   4.799   1.414 -0.1795 -0.5320 -0.0316
11554TIP3    H156077   4.429   4.767   1.373 -0.6662 -0.4725  0.8685
11554TIP3    H256078   4.516   4.891   1.388 -0.9149 -0.2757  0.6824
11555TIP3   OH256079   2.523   5.186   1.545  0.0850  0.0864 -0.3283
11555TIP3    H156080   2.564   5.265   1.509  2.0553 -0.6174  0.3044
11555TIP3    H256081   2.479   5.217   1.624  0.8177  0.5665 -0.0973
11556TIP3   OH256082   2.396   6.570   2.753  0.1906  0.2436  0.0928
11556TIP3    H156083   2.404   6.476   2.739 -0.8395  0.3138 -1.1211
11556TIP3    H256084   2.453   6.610   2.687 -2.1597  0.5092 -1.8931
11557TIP3   OH256085   5.374   0.373   3.491  0.2576 -0.1953  0.4160
11557TIP3    H156086   5.293   0.419   3.471  1.1329  0.3470 -2.0189
11557TIP3    H256087   5.437   0.403   3.425  1.6036 -2.8243  0.4076
11558TIP3   OH256088   2.034   6.382  15.549  0.0233 -0.4704  0.1958
11558TIP3    H156089   2.129   6.390  15.555  0.2513 -3.0272  0.6149
11558TIP3    H256090   2.001   6.465  15.583  2.0953  0.2393  0.5574
11559TIP3   OH256091   2.446   5.505   5.913 -0.2933 -0.2252 -0.0702
11559TIP3    H156092   2.387   5.454   5.968 -0.5255  3.3611  3.1691
11559TIP3    H256093   2.391   5.537   5.842 -1.3450 -0.2503  0.7138
11560TIP3   OH256094   6.075   2.535   5.373  0.1620 -0.3142 -0.2247
11560TIP3    H156095   6.027   2.618   5.374  2.0436  0.8540 -1.5511
11560TIP3    H256096   6.055   2.495   5.458 -3.0831  0.1047 -0.7274
11561TIP3   OH256097   5.535   2.120  14.461 -0.1098 -0.0426 -0.2270
11561TIP3    H156098   5.603   2.104  14.394 -0.0599 -0.1640 -0.1461
11561TIP3    H256099   5.544   2.047  14.521  0.8683  0.8757  0.7654
11562TIP3   OH256100   5.579   2.097   5.346 -0.3338  0.3194  0.4789
11562TIP3    H156101   5.542   2.092   5.258 -1.4622 -0.8902  0.9977
11562TIP3    H256102   5.646   2.028   5.348  0.5939  1.2115  0.1564
11563TIP3   OH256103   4.392   6.213  12.660 -0.1396 -0.2965  0.4553
11563TIP3    H156104   4.394   6.118  12.648  0.4672 -0.1332 -0.7319
11563TIP3    H256105   4.474   6.244  12.622  0.5898  0.5117  2.6064
11564TIP3   OH256106   0.350   3.728  11.084 -0.2450 -0.0433 -0.1732
11564TIP3    H156107   0.358   3.639  11.050 -1.2113  0.2563 -1.1856
11564TIP3    H256108   0.270   3.763  11.044  0.0821  1.2581  0.2727
11565TIP3   OH256109   3.830   4.828   1.482  0.6883  0.1473 -0.2942
11565TIP3    H156110   3.747   4.825   1.434  0.5231  0.0702 -0.0089
11565TIP3    H256111   3.826   4.753   1.541  0.4160  0.8417  0.5924
11566TIP3   OH256112   5.573   3.471   5.934  0.6317 -0.4273  0.2172
11566TIP3    H156113   5.529   3.387   5.951 -0.0997  0.1109  0.9886
11566TIP3    H256114   5.514   3.537   5.970  1.1032  0.4426 -0.5843
11567TIP3   OH256115   6.462   4.616   4.357 -0.0481  0.0743 -0.0415
11567TIP3    H156116   6.461   4.689   4.296  0.7212  0.4968  0.4322
11567TIP3    H256117   6.411   4.646   4.432  0.0667  0.0386  0.0526
11568TIP3   OH256118   3.027   5.756   1.236 -0.4190  0.3257 -0.0575
11568TIP3    H156119   3.000   5.844   1.262  1.6441  1.2452 -0.9499
11568TIP3    H256120   3.077   5.769   1.155  1.1707 -1.4999  0.6037
11569TIP3   OH256121   1.662   5.484  11.330 -0.0650  0.3850  0.3620
11569TIP3    H156122   1.706   5.497  11.245 -0.3083  1.2082  0.3567
11569TIP3    H256123   1.732   5.455  11.389 -0.0394 -0.9355 -0.3021
11570TIP3   OH256124   0.731   3.369   0.948  0.1785  0.2914 -0.4642
11570TIP3    H156125   0.726   3.358   0.853 -1.0942 -0.8426 -0.2886
11570TIP3    H256126   0.639   3.377   0.976  0.3220 -2.2972  0.9749
11571TIP3   OH256127   4.712   5.846   1.606  0.4154 -0.2736  0.0044
11571TIP3    H156128   4.693   5.860   1.699 -0.8579  2.5068 -0.6165
11571TIP3    H256129   4.630   5.812   1.570  0.1460  0.8794 -0.5110
11572TIP3   OH256130   6.358   0.507  14.461 -0.0335  0.3721  0.6243
11572TIP3    H156131   6.264   0.522  14.468 -0.5576 -1.8492 -1.1838
11572TIP3    H256132   6.386   0.561  14.387 -0.5732 -1.8264 -1.1951
11573TIP3   OH256133   4.237   3.099   1.105 -0.0986  0.5168  0.4013
11573TIP3    H156134   4.152   3.055   1.111 -1.4536  2.5315 -2.6747
11573TIP3    H256135   4.227   3.178   1.157  0.0132  0.5335  0.3971
11574TIP3   OH256136   1.748   6.622  13.524 -0.1009  0.1721  0.3603
11574TIP3    H156137   1.726   6.705  13.567 -2.0433  0.2127 -0.6675
11574TIP3    H256138   1.820   6.644  13.465 -1.8477  1.5474 -1.2956
11575TIP3   OH256139   5.218   2.716   3.728 -0.5614 -0.0323 -0.0111
11575TIP3    H156140   5.161   2.662   3.672 -0.2003 -3.2786  2.5354
11575TIP3    H256141   5.305   2.678   3.718 -0.2260  0.2625  1.5909
11576TIP3   OH256142   0.656   4.388  12.059 -0.1792  0.0350  0.3141
11576TIP3    H156143   0.574   4.372  12.105  0.0604  0.0432  0.7545
11576TIP3    H256144   0.686   4.301  12.033 -1.8474  0.2687 -2.5533
11577TIP3   OH256145   4.587   4.415   5.326  0.2981  0.0858 -0.2787
11577TIP3    H156146   4.584   4.365   5.408  1.9888  0.3068 -0.0668
11577TIP3    H256147   4.676   4.450   5.323  0.0719  0.5357 -1.9506
11578TIP3   OH256148   0.886   2.647  15.466 -0.1765 -0.1754  0.5103
11578TIP3    H156149   0.797   2.670  15.441 -0.3481 -0.1751  1.1217
11578TIP3    H256150   0.876   2.598  15.547  0.1594 -2.4853 -0.7965
11579TIP3   OH256151   2.249   0.399  11.912 -1.0641 -0.4784 -0.0712
11579TIP3    H156152   2.155   0.401  11.932 -0.8122 -0.1533  1.0783
11579TIP3    H256153   2.289   0.356  11.987 -0.1645  0.3226 -0.0913
11580TIP3   OH256154   4.532   1.772   1.060 -0.5559 -0.4551 -0.0608
11580TIP3    H156155   4.535   1.867   1.074  0.2968 -0.5368  0.4048
11580TIP3    H256156   4.616   1.752   1.018 -0.4735 -1.0815  0.4009
11581TIP3   OH256157   5.695   5.616  15.965  0.1571 -0.0261 -0.0384
11581TIP3    H156158   5.612   5.663  15.968 -0.6417 -1.4212  0.5110
11581TIP3    H256159   5.762   5.684  15.966 -0.9830  1.1247 -0.7508
11582TIP3   OH256160   1.222   2.701   2.651  0.0476  0.2642 -0.5212
11582TIP3    H156161   1.315   2.720   2.640  0.4658 -0.7692  1.0956
11582TIP3    H256162   1.203   2.727   2.741 -1.1649  0.1553 -0.7409
11583TIP3   OH256163   2.927   3.754  12.278  0.2906 -0.3433  0.4040
11583TIP3    H156164   2.932   3.667  12.237  1.3986  0.6608 -1.6614
11583TIP3    H256165   2.838   3.759  12.313 -0.0605 -1.9628 -0.2089
11584TIP3   OH256166   3.557   5.362  16.119 -0.2410 -0.0908 -0.1009
11584TIP3    H156167   3.600   5.328  16.197  2.1077 -0.9888 -1.7652
11584TIP3    H256168   3.575   5.456  16.121 -0.5932 -0.0311  0.6507
11585TIP3   OH256169   0.788   3.714   1.057 -0.2986 -0.2660  0.5368
11585TIP3    H156170   0.693   3.724   1.064 -0.1538  2.3313 -0.4129
11585TIP3    H256171   0.805   3.708   0.963  0.4137 -1.4100  0.7392
11586TIP3   OH256172   3.986   2.145   3.981  0.2998 -0.1738  0.2788
11586TIP3    H156173   3.999   2.059   3.942 -0.8867 -1.0243  1.6790
11586TIP3    H256174   3.893   2.164   3.968  0.7472  1.3244 -0.8425
11587TIP3   OH256175   5.939   0.672  17.109  0.6300 -0.3519  0.4610
11587TIP3    H156176   5.949   0.585  17.072 -1.4128  0.6581 -2.6587
11587TIP3    H256177   6.014   0.721  17.074 -0.1654  0.0420 -0.7513
11588TIP3   OH256178   5.128   3.268  16.354  0.2875 -0.0880 -0.2436
11588TIP3    H156179   5.123   3.192  16.297 -0.1541 -0.6875  0.5767
11588TIP3    H256180   5.052   3.260  16.412 -0.1433  1.3487 -0.5978
11589TIP3   OH256181   1.251   4.759   1.830 -0.7167  0.4370 -0.0737
11589TIP3    H156182   1.269   4.693   1.762 -1.0778  2.1919 -1.9226
11589TIP3    H256183   1.337   4.784   1.863 -0.3411  1.6849 -1.9610
11590TIP3   OH256184   4.326   4.782   1.217 -0.2919  0.2267  0.2498
11590TIP3    H156185   4.290   4.746   1.136  1.1798 -0.2883 -0.1829
11590TIP3    H256186   4.301   4.717   1.284 -2.1110  0.9979  0.3533
11591TIP3   OH256187   5.545   2.088  13.524  0.2317 -0.0641  0.2747
11591TIP3    H156188   5.603   2.126  13.458  1.1705  0.1622  1.1961
11591TIP3    H256189   5.575   2.128  13.607  1.1495 -2.6455  1.2465
11592TIP3   OH256190   3.267   5.587   0.310  0.5932  0.6417 -0.1528
11592TIP3    H156191   3.248   5.527   0.237 -0.7480  0.4228  0.3527
11592TIP3    H256192   3.323   5.537   0.368 -0.7628 -0.2530  0.4103
11593TIP3   OH256193   5.074   2.010   4.490  0.1904  0.3197  0.0797
11593TIP3    H156194   5.000   2.061   4.456  1.1131  2.2726  0.9005
11593TIP3    H256195   5.033   1.941   4.542 -1.0994  0.2823 -0.9414
11594TIP3   OH256196   2.103   2.883  15.945 -0.6421  0.1855 -0.2714
11594TIP3    H156197   2.033   2.829  15.981  0.1191 -0.8471 -0.3324
11594TIP3    H256198   2.168   2.888  16.015  0.6171 -1.4203 -1.2935
11595TIP3   OH256199   6.669   3.467   1.639 -0.0062  0.0689 -0.3031
11595TIP3    H156200   6.729   3.394   1.654 -0.2647  0.0428  0.6347
11595TIP3    H256201   6.700   3.537   1.697  1.4795  1.4562 -2.6808
11596TIP3   OH256202   5.798   0.223   5.221  0.3835 -0.3520  0.3167
11596TIP3    H156203   5.775   0.309   5.257 -0.6735 -1.1887  1.6914
11596TIP3    H256204   5.893   0.216   5.234  0.1991 -0.1415  1.8595
11597TIP3   OH256205   1.407   5.927  14.523 -1.0069  0.0622 -0.3503
11597TIP3    H156206   1.348   5.915  14.598  1.2724  0.1909  1.5035
11597TIP3    H256207   1.466   5.997  14.550  0.9842 -1.1274 -1.5680
11598TIP3   OH256208   1.241   3.434  12.438  0.4380  0.1512 -0.0521
11598TIP3    H156209   1.214   3.345  12.462 -2.4722  1.2617  1.0086
11598TIP3    H256210   1.218   3.441  12.345 -0.5194  0.1992  0.1814
11599TIP3   OH256211   2.121   1.357  13.619 -0.7349  0.0327 -0.2935
11599TIP3    H156212   2.096   1.349  13.526  0.0286 -0.6480 -0.4502
11599TIP3    H256213   2.209   1.318  13.623 -0.9585 -0.3641  0.8053
11600TIP3   OH256214   2.254   1.566   1.870 -0.1919 -0.0342  0.1992
11600TIP3    H156215   2.193   1.514   1.922 -0.1645  0.6201  0.8802
11600TIP3    H256216   2.326   1.588   1.930  0.5123 -0.4430 -0.4815
11601TIP3   OH256217   0.194   4.427   5.071 -0.0474  0.0606  0.0402
11601TIP3    H156218   0.276   4.435   5.023  0.4521  0.7046  0.9873
11601TIP3    H256219   0.139   4.498   5.038 -0.4057 -0.6536 -0.9280
11602TIP3   OH256220   0.640   5.086   2.833 -0.1423 -0.5993  0.0559
11602TIP3    H156221   0.693   5.006   2.830 -1.8403 -1.7797  0.9534
11602TIP3    H256222   0.577   5.076   2.762  0.5584  0.6087 -0.7393
11603TIP3   OH256223   0.410   4.793  14.651  0.0307 -0.1593  0.6409
11603TIP3    H156224   0.352   4.725  14.685 -1.8200 -0.0403 -2.1570
11603TIP3    H256225   0.367   4.875  14.675  0.3042 -0.0256  0.6748
11604TIP3   OH256226   4.025   1.673  16.967 -0.4418 -0.0632  0.4821
11604TIP3    H156227   3.976   1.627  16.899  0.7338 -1.1084  0.3223
11604TIP3    H256228   3.998   1.632  17.049  0.4745 -0.9239  0.3571
11605TIP3   OH256229   0.915   4.462   4.727 -0.2811 -0.1885  0.0796
11605TIP3    H156230   0.820   4.455   4.717 -0.4170 -0.6279  1.6243
11605TIP3    H256231   0.929   4.543   4.776  0.1703  0.0741 -0.4746
11606TIP3   OH256232   4.708   0.101   3.119 -0.0822  0.1577 -0.3261
11606TIP3    H156233   4.787   0.155   3.130  0.9863 -1.5959  0.8392
11606TIP3    H256234   4.736   0.032   3.059 -0.3431 -1.1974  1.0900
11607TIP3   OH256235   0.351   1.009  13.504 -0.1563  0.2219  0.4832
11607TIP3    H156236   0.424   0.953  13.530  0.8252  1.9746  1.5711
11607TIP3    H256237   0.384   1.056  13.427 -0.2090  0.8471  0.8401
11608TIP3   OH256238   4.440   4.341   5.838 -0.2505  0.3564 -0.0455
11608TIP3    H156239   4.437   4.363   5.745 -0.7303  0.9095  0.0990
11608TIP3    H256240   4.372   4.396   5.878 -0.8224 -0.7007  0.4614
11609TIP3   OH256241   5.779   5.673  11.635  0.9471 -0.2426 -0.0559
11609TIP3    H156242   5.725   5.636  11.704 -1.3846  1.2679 -1.0165
11609TIP3    H256243   5.761   5.767  11.638  0.2728 -0.2309 -3.1338
11610TIP3   OH256244   5.764   5.942  15.281  0.0211  0.0035  0.4030
11610TIP3    H156245   5.848   5.899  15.295  0.0385 -0.5040 -1.2015
11610TIP3    H256246   5.787   6.034  15.266  0.3976 -0.2980 -1.0024
11611TIP3   OH256247   4.258   1.694   2.232 -0.2511 -1.0471  0.2553
11611TIP3    H156248   4.257   1.609   2.187  1.5345  0.0965 -2.0709
11611TIP3    H256249   4.264   1.672   2.325 -1.6300 -3.4745 -0.1860
11612TIP3   OH256250   2.371   3.053   0.292 -0.0971  0.0201 -0.0528
11612TIP3    H156251   2.429   2.993   0.245 -1.5757 -2.2197  0.8767
11612TIP3    H256252   2.283   3.020   0.274 -0.9288  1.8321  0.6114
11613TIP3   OH256253   0.114   2.139  13.087  0.1698  0.5277  0.1638
11613TIP3    H156254   0.172   2.069  13.117 -1.6541 -0.5847  1.2243
11613TIP3    H256255   0.129   2.211  13.148  0.0193  0.0340  0.7870
11614TIP3   OH256256   1.459   4.158  15.349 -0.3122  0.2243 -0.1487
11614TIP3    H156257   1.533   4.188  15.298  0.2598 -0.8426  0.0337
11614TIP3    H256258   1.462   4.062  15.342 -1.1947  0.1360  0.5182
11615TIP3   OH256259   3.988   4.571  15.385 -0.6716  0.5773  0.9850
11615TIP3    H156260   3.960   4.510  15.317 -1.2090  1.1717  0.6750
11615TIP3    H256261   3.922   4.560  15.455 -0.1030 -0.0571  1.4299
11616TIP3   OH256262   1.060   6.751   4.218 -0.2306 -0.0563 -0.1473
11616TIP3    H156263   1.096   6.746   4.307  0.8587 -0.6374 -0.6049
11616TIP3    H256264   1.089   6.836   4.185 -0.8466  0.2640  0.1478
11617TIP3   OH256265   4.775   0.758  13.896 -0.1107  0.0172  0.0795
11617TIP3    H156266   4.835   0.800  13.835 -0.1457  0.9829  0.7000
11617TIP3    H256267   4.748   0.677  13.852  0.9815 -0.0021 -0.5567
11618TIP3   OH256268   0.833   3.136   3.653 -1.1608  0.0965  0.0914
11618TIP3    H156269   0.761   3.131   3.715 -1.9839 -0.6504 -0.9096
11618TIP3    H256270   0.822   3.059   3.597 -0.0365  0.3863 -0.5444
11619TIP3   OH256271   4.884   6.630  11.661 -0.1479 -1.1663 -0.5306
11619TIP3    H156272   4.923   6.712  11.631 -0.7560  0.2145  2.2444
11619TIP3    H256273   4.827   6.602  11.589 -0.9756  1.5740 -0.9765
11620TIP3   OH256274   5.370   4.363  15.413  0.6291 -0.2908  0.0103
11620TIP3    H156275   5.339   4.414  15.487 -1.4762  0.4509 -1.3491
11620TIP3    H256276   5.310   4.289  15.407  0.3923 -0.0033 -1.3203
11621TIP3   OH256277   2.372   1.362   4.291 -0.3733 -0.0324  0.1177
11621TIP3    H156278   2.304   1.370   4.223 -1.1579 -2.1841  0.5914
11621TIP3    H256279   2.356   1.276   4.329  3.3450 -1.0769 -0.4997
11622TIP3   OH256280   0.058   0.645   5.072 -0.1197  0.2075 -0.1621
11622TIP3    H156281  -0.014   0.582   5.068 -0.6426  0.8564 -1.1601
11622TIP3    H256282   0.023   0.720   5.118  0.2502  0.1100  0.2858
11623TIP3   OH256283   3.026   1.720   5.038  0.2955  0.6269 -0.3542
11623TIP3    H156284   2.947   1.747   4.990  1.0966 -0.1998 -2.2059
11623TIP3    H256285   3.078   1.799   5.045 -0.6070  1.1445  0.7344
11624TIP3   OH256286   2.128   5.996  13.219  0.3656  0.0615 -0.1488
11624TIP3    H156287   2.120   5.902  13.201 -1.0514  0.2920 -0.7603
11624TIP3    H256288   2.222   6.009  13.235  0.6424 -1.3774 -0.5166
11625TIP3   OH256289   4.446   0.155  11.268  0.0795  0.2622  0.2575
11625TIP3    H156290   4.402   0.169  11.352 -2.0146 -1.3334 -0.5270
11625TIP3    H256291   4.524   0.103  11.290  0.3931  1.1779  1.3829
11626TIP3   OH256292   3.434   3.148   5.295  0.2359 -0.1236  0.2362
11626TIP3    H156293   3.432   3.239   5.268  1.9461 -0.3428 -0.6968
11626TIP3    H256294   3.456   3.151   5.388 -2.3514  0.4945  0.8638
11627TIP3   OH256295   0.693   3.092  15.219  0.5552  0.3327  0.2918
11627TIP3    H156296   0.685   3.035  15.295 -1.1860  1.8064  1.2541
11627TIP3    H256297   0.746   3.166  15.249  0.7262  0.4217 -0.2213
11628TIP3   OH256298   1.072   4.180   2.125 -0.4590 -0.0363  0.0810
11628TIP3    H156299   0.990   4.219   2.097 -0.2783  0.0284 -0.3706
11628TIP3    H256300   1.067   4.178   2.220 -0.0455  2.0377  0.1618
11629TIP3   OH256301   2.708   1.517  14.420 -0.2805  0.0571 -0.3874
11629TIP3    H156302   2.775   1.471  14.370  0.7987  0.4262  0.6928
11629TIP3    H256303   2.625   1.481  14.388  0.4364 -0.6279 -1.5129
11630TIP3   OH256304   1.594   4.731  14.756 -0.6182  0.0434 -0.3518
11630TIP3    H156305   1.559   4.700  14.840 -0.2185 -1.1991 -0.6354
11630TIP3    H256306   1.521   4.777  14.715 -0.6228  1.2432  0.9597
11631TIP3   OH256307   1.853   2.932   2.856  0.1230  0.5782 -0.0454
11631TIP3    H156308   1.852   2.933   2.761 -0.0281  0.7321 -0.0434
11631TIP3    H256309   1.835   3.023   2.881 -1.8812  0.1617  0.1372
11632TIP3   OH256310   0.934   1.128   3.682  0.3913  0.0425  0.6866
11632TIP3    H156311   0.930   1.174   3.765  0.9965 -0.5031  1.0238
11632TIP3    H256312   0.996   1.056   3.697 -0.6464 -0.9709  0.2276
11633TIP3   OH256313   0.632   3.704  12.015 -0.4884 -0.2842 -0.2785
11633TIP3    H156314   0.585   3.628  11.981 -2.1111  0.4741  0.1699
11633TIP3    H256315   0.713   3.669  12.051 -0.6105 -1.6132 -1.2669
11634TIP3   OH256316   1.440   1.444  13.651 -0.3985  0.6350  0.6405
11634TIP3    H156317   1.455   1.478  13.739  1.1100  0.8742  0.2998
11634TIP3    H256318   1.480   1.509  13.593 -2.2084  0.9684 -0.2882
11635TIP3   OH256319   1.915   5.134  13.352 -0.0754  0.2958  0.2073
11635TIP3    H156320   1.932   5.117  13.259 -0.5206  1.4390 -0.0921
11635TIP3    H256321   1.832   5.090  13.369  0.1979 -0.2409  0.1607
11636TIP3   OH256322   2.554   0.611   1.743 -0.1236 -0.3301  0.5040
11636TIP3    H156323   2.606   0.532   1.757  2.8431  1.3787 -0.4382
11636TIP3    H256324   2.589   0.675   1.804 -0.3321  1.2045 -0.9369
11637TIP3   OH256325   2.126   0.877  16.966 -0.0888  0.2478 -0.2486
11637TIP3    H156326   2.040   0.884  16.926  0.4983 -0.8481 -1.7154
11637TIP3    H256327   2.109   0.850  17.056 -1.3739  2.0355  0.0739
11638TIP3   OH256328   4.998   6.062   2.335  0.4370 -0.0170  0.3462
11638TIP3    H156329   4.947   6.082   2.414 -1.0893 -0.8242 -0.4105
11638TIP3    H256330   4.977   6.133   2.275  0.1437 -0.4082 -0.0081
11639TIP3   OH256331   4.131   6.103   4.740 -0.1941  0.3334  0.8909
11639TIP3    H156332   4.150   6.107   4.647 -0.4894  0.8078  0.8482
11639TIP3    H256333   4.079   6.182   4.757  1.7158  1.4225  1.8885
11640TIP3   OH256334   3.982   0.733  13.425  0.6431  0.3305 -0.1640
11640TIP3    H156335   4.064   0.782  13.421  1.1962 -0.5419  0.4122
11640TIP3    H256336   3.953   0.728  13.334  0.0147  2.6582 -0.1091
11641TIP3   OH256337   3.102   0.364   6.075  0.1371  0.9800 -0.0436
11641TIP3    H156338   3.079   0.277   6.106  1.5054 -0.0827 -1.9677
11641TIP3    H256339   3.164   0.397   6.140  0.8273 -0.1181 -0.1307
11642TIP3   OH256340   2.653   2.139   4.132  0.0993  0.5603  0.8342
11642TIP3    H156341   2.733   2.119   4.180  1.4707  0.5111 -1.3898
11642TIP3    H256342   2.683   2.176   4.049 -2.2054  1.1791  0.2240
11643TIP3   OH256343   2.801   2.577   5.973 -0.0966  0.1251  0.0533
11643TIP3    H156344   2.869   2.639   5.996  1.6888 -1.8519  0.2409
11643TIP3    H256345   2.727   2.631   5.944  2.1966  2.2495 -2.0213
11644TIP3   OH256346   2.523   6.510   4.479 -0.4440  0.4027  0.1346
11644TIP3    H156347   2.613   6.502   4.446 -0.4692 -0.1547  0.1858
11644TIP3    H256348   2.473   6.448   4.425 -0.6586  0.1720  0.5968
11645TIP3   OH256349   5.787   3.749   6.122 -0.6979  0.6805 -0.1176
11645TIP3    H156350   5.866   3.773   6.170 -1.8022  1.6554  1.2483
11645TIP3    H256351   5.770   3.825   6.066 -2.0442  1.5181  1.4020
11646TIP3   OH256352   3.397   3.746  10.703 -0.5004 -1.0148 -0.1395
11646TIP3    H156353   3.453   3.824  10.695 -1.1565 -0.4524  0.6120
11646TIP3    H256354   3.446   3.687  10.760 -0.4193 -0.7560  0.0621
11647TIP3   OH256355   2.093   5.455   0.208  0.2523  0.0431  0.1980
11647TIP3    H156356   2.145   5.513   0.263  1.7774 -1.7345  0.6782
11647TIP3    H256357   2.115   5.482   0.118 -0.2698  1.2372  0.4190
11648TIP3   OH256358   5.430   2.067  12.405  0.1771 -0.1718 -0.2224
11648TIP3    H156359   5.458   2.158  12.415  1.4196 -0.7767  2.2380
11648TIP3    H256360   5.500   2.026  12.354  0.1747 -0.0131 -0.3550
11649TIP3   OH256361   0.239   4.796  15.421 -0.2995 -0.8514  0.9023
11649TIP3    H156362   0.221   4.864  15.486  4.0367  1.8553 -0.4616
11649TIP3    H256363   0.216   4.836  15.337  1.3642 -1.3661  0.1694
11650TIP3   OH256364   5.142   0.892   2.197 -0.0292 -0.1558  0.3610
11650TIP3    H156365   5.177   0.939   2.122 -0.0610 -1.7139 -0.6558
11650TIP3    H256366   5.153   0.800   2.174 -0.4117 -0.6446  2.0962
11651TIP3   OH256367   1.577   0.324   6.446  0.2247 -0.3272  0.1240
11651TIP3    H156368   1.483   0.305   6.442  0.4772 -1.2753 -1.4291
11651TIP3    H256369   1.618   0.256   6.394  1.8135 -0.0147  0.9249
11652TIP3   OH256370   2.982   2.657  16.724 -0.3852  0.4488  0.3993
11652TIP3    H156371   3.054   2.705  16.686 -0.2530  0.4769  0.6801
11652TIP3    H256372   2.953   2.597  16.655  0.6314 -0.3452  0.6550
11653TIP3   OH256373   4.352   2.135   2.371  0.2139  0.3091 -0.6382
11653TIP3    H156374   4.353   2.089   2.455 -0.1023  1.2820 -0.0986
11653TIP3    H256375   4.379   2.068   2.307 -0.1049 -0.5884  0.1505
11654TIP3   OH256376   4.514   0.625   4.793 -0.1473 -0.1341 -0.2146
11654TIP3    H156377   4.473   0.554   4.842 -0.7400  0.3438 -0.0211
11654TIP3    H256378   4.565   0.580   4.725  0.3029 -0.7829  0.5345
11655TIP3   OH256379   2.980   1.201   6.401 -0.2824 -0.0468  0.5121
11655TIP3    H156380   3.059   1.246   6.432 -0.2803 -0.1846  0.7047
11655TIP3    H256381   2.998   1.108   6.413  1.2224 -0.3578 -3.4054
11656TIP3   OH256382   0.406   1.348  14.048 -0.4803  0.1989 -0.1495
11656TIP3    H156383   0.435   1.417  14.107  0.4460  0.7911 -1.2644
11656TIP3    H256384   0.457   1.362  13.968 -0.4612 -1.6245 -0.4824
11657TIP3   OH256385   2.843   2.821  14.418  0.3209 -0.1926  0.3752
11657TIP3    H156386   2.857   2.869  14.336  0.2348  0.8179  0.9413
11657TIP3    H256387   2.770   2.866  14.460  0.8132 -0.2868  1.3281
11658TIP3   OH256388   2.936   1.125  16.953  0.0318  0.6127 -0.2870
11658TIP3    H156389   2.898   1.156  17.035 -0.2171  0.4762 -0.3500
11658TIP3    H256390   2.873   1.152  16.886 -0.6451 -0.8213 -0.2477
11659TIP3   OH256391   3.060   1.948   2.494  0.6873  0.2684  0.0903
11659TIP3    H156392   3.035   1.869   2.543 -0.1311 -0.3046 -1.2128
11659TIP3    H256393   2.992   2.012   2.515 -0.4767 -0.4489 -1.4136
11660TIP3   OH256394   6.411   4.772  13.686  0.2468  0.6755 -0.0778
11660TIP3    H156395   6.341   4.834  13.670  0.3318  1.0802  1.0784
11660TIP3    H256396   6.372   4.686  13.668 -0.3517  0.9480 -0.0723
11661TIP3   OH256397   3.452   1.302  13.944  0.0693  0.1285 -0.1910
11661TIP3    H156398   3.539   1.265  13.958 -0.2048 -0.6894 -0.6843
11661TIP3    H256399   3.444   1.311  13.849 -0.0107  1.1217 -0.1042
11662TIP3   OH256400   3.361   2.533  12.976 -0.2180 -0.2759 -0.0334
11662TIP3    H156401   3.374   2.527  13.071 -2.3589 -0.0141  0.2937
11662TIP3    H256402   3.267   2.549  12.965  0.5660  3.3900 -2.0726
11663TIP3   OH256403   4.943   1.380  16.002  0.5907  0.1564 -0.1945
11663TIP3    H156404   4.856   1.362  16.036  1.1201 -1.4809  0.3460
11663TIP3    H256405   4.999   1.385  16.080  1.3050 -0.7278 -0.6431
11664TIP3   OH256406   3.505   3.528  10.848  0.7929 -0.0127 -0.2377
11664TIP3    H156407   3.528   3.447  10.802  0.5474 -0.7828  0.9733
11664TIP3    H256408   3.426   3.506  10.897  0.9896  0.8197  0.4700
11665TIP3   OH256409   0.806   4.233  15.079 -0.4811  0.1217  0.8153
11665TIP3    H156410   0.713   4.254  15.072 -0.1177  1.8094  0.9233
11665TIP3    H256411   0.829   4.197  14.993 -1.0459  0.4514  0.5266
11666TIP3   OH256412   2.153   6.248  11.715 -0.5837  0.0068  0.0737
11666TIP3    H156413   2.198   6.164  11.726 -0.8308  0.0913  1.7705
11666TIP3    H256414   2.060   6.228  11.725 -0.5310  0.7527  2.1745
11667TIP3   OH256415   6.000   6.593   0.912  0.6355  0.4136 -0.0992
11667TIP3    H156416   6.005   6.688   0.913 -0.9689  0.5198 -0.5931
11667TIP3    H256417   5.973   6.569   1.000  0.9083  0.4184 -0.0134
11668TIP3   OH256418   5.553   6.482  10.552  0.0384 -0.1855 -0.2291
11668TIP3    H156419   5.512   6.567  10.534  0.8247  0.0098 -1.1874
11668TIP3    H256420   5.645   6.504  10.572 -0.5491 -0.4841  3.1256
11669TIP3   OH256421   4.653   4.750  12.188  0.5914  0.0732 -0.2577
11669TIP3    H156422   4.645   4.655  12.182  1.0803 -0.0908  1.5048
11669TIP3    H256423   4.563   4.782  12.182  0.2218 -0.6345  1.3273
11670TIP3   OH256424   5.084   4.127   5.489  0.0938  0.0996  0.0567
11670TIP3    H156425   4.998   4.084   5.489  0.3484 -0.5383 -2.9039
11670TIP3    H256426   5.072   4.205   5.543 -1.9644 -0.7166  0.8253
11671TIP3   OH256427   5.512   5.118   5.995 -0.0812  0.2225 -0.0985
11671TIP3    H156428   5.540   5.038   6.039 -2.7941  0.1754  1.6433
11671TIP3    H256429   5.549   5.189   6.047 -1.0566  0.1286  0.7379
11672TIP3   OH256430   3.392   2.274  16.190  0.9196 -0.7746  0.0381
11672TIP3    H156431   3.380   2.311  16.103  0.7341  0.1849  0.4655
11672TIP3    H256432   3.325   2.316  16.244  1.6124 -0.6856  0.8423
11673TIP3   OH256433   4.119   6.500   2.833 -0.0501 -0.0263 -0.5142
11673TIP3    H156434   4.189   6.453   2.788 -0.8324 -0.5291 -1.2291
11673TIP3    H256435   4.109   6.582   2.784  0.6358  0.4460  0.1265
11674TIP3   OH256436   1.812   3.857  11.949  0.7845  0.1902  0.1448
11674TIP3    H156437   1.888   3.815  11.990 -0.3609 -3.7598 -1.6169
11674TIP3    H256438   1.750   3.869  12.020  1.0786 -1.2299  0.6508
11675TIP3   OH256439   0.272   5.830   2.283 -0.0166 -0.1425  0.1025
11675TIP3    H156440   0.296   5.762   2.347 -0.2282  0.4157  0.7905
11675TIP3    H256441   0.196   5.874   2.323 -1.0816 -0.7517 -1.2299
11676TIP3   OH256442   5.966   3.674   0.364 -0.3110  0.0410 -0.0768
11676TIP3    H156443   6.028   3.629   0.422 -0.5265 -0.0266  0.0995
11676TIP3    H256444   5.883   3.628   0.377 -0.2936 -0.1514 -0.6452
11677TIP3   OH256445   5.980   6.367  13.339 -0.3810  0.2444 -0.2050
11677TIP3    H156446   5.944   6.301  13.398 -0.7475  1.7935  1.3377
11677TIP3    H256447   6.060   6.397  13.382 -0.5035  1.1807 -0.6193
11678TIP3   OH256448   2.814   6.581   2.140  0.3828  0.2255  0.1349
11678TIP3    H156449   2.834   6.659   2.192 -0.1601  1.5483 -1.5909
11678TIP3    H256450   2.899   6.539   2.127  1.0952  1.9387 -1.0601
11679TIP3   OH256451   3.243   1.539  14.872  0.1725  0.0965  0.4497
11679TIP3    H156452   3.317   1.518  14.815  0.4231 -0.5281  0.9907
11679TIP3    H256453   3.276   1.521  14.960 -0.8882 -0.9661  0.6441
11680TIP3   OH256454   4.193   3.200   5.577  0.0738 -0.1063 -0.0384
11680TIP3    H156455   4.283   3.188   5.606 -0.1996 -3.4801 -0.4218
11680TIP3    H256456   4.139   3.170   5.651 -0.6894 -0.4232 -0.7130
11681TIP3   OH256457   0.347   4.715  11.032 -0.6253  0.3567  0.6292
11681TIP3    H156458   0.428   4.678  10.997 -0.5944  1.8411 -0.9193
11681TIP3    H256459   0.343   4.683  11.122  1.1821 -0.5112  0.4218
11682TIP3   OH256460   2.203   1.236   3.015 -0.1344  0.2895  0.4262
11682TIP3    H156461   2.283   1.218   2.966  1.4241  2.0357  2.2910
11682TIP3    H256462   2.190   1.159   3.070 -0.7011 -0.7270 -1.0895
11683TIP3   OH256463   3.424   5.235   2.829  0.3805 -0.5321 -0.5719
11683TIP3    H156464   3.409   5.217   2.922  0.2286 -0.4249 -0.5741
11683TIP3    H256465   3.512   5.272   2.825  1.0370 -2.0743 -0.6787
11684TIP3   OH256466   0.965   0.662  16.304  0.2177 -0.5611 -0.2056
11684TIP3    H156467   0.979   0.582  16.253  3.2640 -1.7433  2.3113
11684TIP3    H256468   1.042   0.668  16.360 -1.3028  2.6535  1.6618
11685TIP3   OH256469   4.970   4.339   3.150  0.0718 -0.4498  0.1830
11685TIP3    H156470   4.975   4.323   3.244 -0.2109  0.4797  0.3609
11685TIP3    H256471   4.883   4.376   3.136  0.1308 -0.5324 -0.4307
11686TIP3   OH256472   0.858   1.556  14.139  0.2196 -0.2951 -0.1868
11686TIP3    H156473   0.843   1.501  14.062  2.4171  0.3215 -1.0798
11686TIP3    H256474   0.928   1.512  14.186  1.8008  1.5704 -0.7503
11687TIP3   OH256475   2.715   1.127   4.065 -0.2406 -0.0748 -0.6106
11687TIP3    H156476   2.735   1.220   4.069 -0.9092  0.0923 -1.1767
11687TIP3    H256477   2.658   1.117   3.989 -0.0335 -0.9716 -0.6608
11688TIP3   OH256478   0.630   6.040  14.409  0.2682 -0.1298  0.8387
11688TIP3    H156479   0.618   5.945  14.420 -1.4179 -0.3427 -2.3456
11688TIP3    H256480   0.725   6.051  14.403  0.4148 -1.9230 -0.8731
11689TIP3   OH256481   3.456   3.154   0.681  0.8747 -0.1032 -0.5790
11689TIP3    H156482   3.506   3.235   0.688  0.4948 -0.0497  1.9783
11689TIP3    H256483   3.438   3.129   0.772 -2.5152 -0.8925 -1.4050
11690TIP3   OH256484   1.942   6.447   5.306 -0.3737  0.4618 -0.1166
11690TIP3    H156485   1.850   6.434   5.285  0.1140 -2.8840 -0.3777
11690TIP3    H256486   1.946   6.442   5.401 -0.4573  0.7385 -0.0968
11691TIP3   OH256487   2.995   1.539   3.494 -0.3643 -0.1969 -0.6739
11691TIP3    H156488   3.088   1.526   3.517 -0.3534 -3.0308 -2.0059
11691TIP3    H256489   2.948   1.518   3.574  0.0703 -0.9306 -0.6023
11692TIP3   OH256490   0.898   1.091   2.198 -0.2730  0.0383 -0.3595
11692TIP3    H156491   0.912   1.054   2.285 -0.9241  1.9216  0.5617
11692TIP3    H256492   0.851   1.022   2.151  0.0264 -0.9758  0.7830
11693TIP3   OH256493   5.680   3.462  11.684  0.3848  0.1598  0.4486
11693TIP3    H156494   5.732   3.487  11.609  0.2087  0.6318  0.4800
11693TIP3    H256495   5.741   3.418  11.743  0.7693  0.7880  0.5251
11694TIP3   OH256496   1.133   1.766   1.287 -0.0012 -0.1806  0.3739
11694TIP3    H156497   1.114   1.697   1.224 -0.2150  1.0680 -0.9682
11694TIP3    H256498   1.047   1.803   1.309  0.0431 -0.8285  1.6595
11695TIP3   OH256499   4.262   3.805  11.780  0.2304 -0.3807  0.1949
11695TIP3    H156500   4.219   3.783  11.697  1.3916  0.1319 -0.5689
11695TIP3    H256501   4.256   3.901  11.785  1.8294 -0.2371 -0.2545
11696TIP3   OH256502   1.252   1.375   4.251  0.3071  0.6345 -0.0924
11696TIP3    H156503   1.253   1.302   4.188  1.9958  2.5271 -2.3671
11696TIP3    H256504   1.334   1.366   4.299  1.2055  1.8205 -1.3685
11697TIP3   OH256505   3.745   2.590  12.292  0.1462  0.1073 -0.1423
11697TIP3    H156506   3.776   2.548  12.211  1.1571 -0.4584  0.5286
11697TIP3    H256507   3.732   2.682  12.268  1.9413  0.2615 -0.5433
11698TIP3   OH256508   2.147   3.581   1.177 -0.3432  0.1760 -0.6935
11698TIP3    H156509   2.112   3.659   1.220 -0.4118 -0.1832 -0.1026
11698TIP3    H256510   2.210   3.545   1.238 -0.5534 -0.4220 -0.8215
11699TIP3   OH256511   5.685   4.962   2.592  0.3597  0.0018  0.3683
11699TIP3    H156512   5.679   4.951   2.497 -3.0132  0.1942  0.4967
11699TIP3    H256513   5.652   4.880   2.628  0.0933  0.5294  1.3556
11700TIP3   OH256514   4.613   5.787  12.616  0.1722 -0.3339  0.6525
11700TIP3    H156515   4.636   5.773  12.524 -0.1622  1.6854  0.2521
11700TIP3    H256516   4.528   5.830  12.614  0.6952  0.7989  1.8796
11701TIP3   OH256517   3.997   1.544  11.604  1.0552 -0.1389 -0.2188
11701TIP3    H156518   3.953   1.506  11.528 -1.4942  1.6336  0.3335
11701TIP3    H256519   4.026   1.468  11.655 -0.4190 -1.3475 -1.1500
11702TIP3   OH256520   4.859   5.865   5.836  0.4228  0.4982 -0.1966
11702TIP3    H156521   4.936   5.812   5.815  0.4980 -0.3795  2.1860
11702TIP3    H256522   4.891   5.955   5.836  1.2356  0.2156 -0.1627
11703TIP3   OH256523   2.964   3.152   6.562 -0.1869 -0.1371  0.0504
11703TIP3    H156524   2.872   3.179   6.568 -0.4525 -1.0470  0.2103
11703TIP3    H256525   2.990   3.137   6.653  0.9299  2.7211  0.2404
11704TIP3   OH256526   6.394   6.240   3.070 -0.0528 -0.3215  0.2499
11704TIP3    H156527   6.416   6.236   3.163 -1.4170 -1.6733  0.5361
11704TIP3    H256528   6.456   6.303   3.033  0.4118  0.3232  2.0912
11705TIP3   OH256529   1.586   5.169   4.439 -0.3141  0.2714 -0.1892
11705TIP3    H156530   1.551   5.109   4.374 -0.6796  0.2646  0.0102
11705TIP3    H256531   1.642   5.229   4.390  2.6178 -2.1767  0.0317
11706TIP3   OH256532   0.309   3.806  12.203  0.4805  0.0885 -0.4531
11706TIP3    H156533   0.399   3.825  12.230  0.7916 -1.3883 -0.4291
11706TIP3    H256534   0.257   3.824  12.282  0.9014 -0.2281 -0.0981
11707TIP3   OH256535   0.267   2.563  14.127  0.2596 -0.1982 -0.1600
11707TIP3    H156536   0.334   2.557  14.060 -0.7681  0.8377 -1.3106
11707TIP3    H256537   0.217   2.481  14.120  0.7124 -0.4818 -0.0501
11708TIP3   OH256538   6.511   0.699   3.195  0.0527  0.4225  0.1943
11708TIP3    H156539   6.476   0.781   3.158 -2.3370  0.5099  2.4963
11708TIP3    H256540   6.498   0.708   3.289  3.5156 -0.9448  0.8805
11709TIP3   OH256541   5.923   2.522  12.717 -0.3903  0.4876  0.3407
11709TIP3    H156542   5.885   2.572  12.645  1.1224 -0.7910 -1.4076
11709TIP3    H256543   5.886   2.562  12.796 -0.7205  3.0810 -1.0540
11710TIP3   OH256544   1.455   0.517  12.971  0.0563 -0.0158 -0.3202
11710TIP3    H156545   1.430   0.583  12.906 -2.6546 -0.0099  0.6273
11710TIP3    H256546   1.459   0.435  12.922  0.7954  0.4227 -1.0052
11711TIP3   OH256547   6.024   6.569   5.681  0.5114  0.1737  0.4609
11711TIP3    H156548   5.929   6.572   5.674  0.5985  0.7674 -0.5079
11711TIP3    H256549   6.041   6.558   5.775 -0.5279 -0.9857  0.5225
11712TIP3   OH256550   3.219   1.171  13.954 -0.0085  0.0463  0.2850
11712TIP3    H156551   3.226   1.090  14.003 -1.7301  0.5406  1.3965
11712TIP3    H256552   3.306   1.211  13.960  0.8885 -1.7532 -0.3844
11713TIP3   OH256553   2.556   0.590   0.362 -0.3660 -0.0029  0.2141
11713TIP3    H156554   2.470   0.634   0.363  0.4288  1.6296 -0.8184
11713TIP3    H256555   2.587   0.602   0.272 -0.0607 -2.6170 -0.0541
11714TIP3   OH256556   0.110   2.228   0.939  0.2985  0.2426  0.0433
11714TIP3    H156557   0.102   2.134   0.925  0.0844  0.1597  0.6894
11714TIP3    H256558   0.106   2.238   1.034 -0.1471  0.9510 -0.0483
11715TIP3   OH256559   5.784   6.400   1.096  0.3824 -0.7489 -0.4355
11715TIP3    H156560   5.756   6.448   1.018  2.0808 -1.1584 -1.3296
11715TIP3    H256561   5.706   6.395   1.151 -0.4052  1.0258 -1.3565
11716TIP3   OH256562   2.137   3.131   3.729  0.7366  0.2080 -0.0872
11716TIP3    H156563   2.046   3.102   3.721  0.8663  0.2512 -1.8405
11716TIP3    H256564   2.172   3.079   3.802 -0.8999  0.7663  1.1351
11717TIP3   OH256565   5.046   3.301  11.262  0.3097 -0.2249 -0.3068
11717TIP3    H156566   4.977   3.352  11.219  1.5601 -0.0339 -2.1124
11717TIP3    H256567   5.041   3.215  11.222  0.3225 -0.5680  0.4327
11718TIP3   OH256568   1.578   3.408   0.781 -0.2631  0.4099 -0.9174
11718TIP3    H156569   1.488   3.389   0.805  0.3437  0.3177  1.3930
11718TIP3    H256570   1.572   3.489   0.729 -1.7138  0.0439 -1.3500
11719TIP3   OH256571   6.605   3.886   1.715  0.5258  0.2548  0.6774
11719TIP3    H156572   6.631   3.959   1.660  1.6992 -1.2414 -0.8005
11719TIP3    H256573   6.543   3.836   1.662  0.0058 -0.0191  1.5363
11720TIP3   OH256574   3.538   4.930  13.440 -0.2227  0.0051 -0.3047
11720TIP3    H156575   3.506   4.855  13.488  0.6273  0.4096  0.9039
11720TIP3    H256576   3.465   4.993  13.442  0.6999  1.0677  2.7460
11721TIP3   OH256577   1.635   1.674  15.414  0.4468 -0.0642  0.2751
11721TIP3    H156578   1.631   1.723  15.331 -0.5115 -0.3004  0.1769
11721TIP3    H256579   1.587   1.593  15.396  0.2486 -0.1229  1.0653
11722TIP3   OH256580   2.858   0.409   3.335  0.4232 -0.4700  1.0926
11722TIP3    H156581   2.776   0.385   3.380  0.0658 -2.6492 -0.5988
11722TIP3    H256582   2.850   0.368   3.249  1.7451  2.3626 -0.4294
11723TIP3   OH256583   0.539   4.910   0.304 -0.3220  0.1390 -0.4038
11723TIP3    H156584   0.473   4.969   0.341 -1.1040 -0.2594 -1.1379
11723TIP3    H256585   0.517   4.905   0.211 -0.7733 -1.9447 -0.2092
11724TIP3   OH256586   3.610   0.572   5.275 -0.4825 -0.8654  0.1207
11724TIP3    H156587   3.669   0.552   5.202  1.2250  0.7952  1.0277
11724TIP3    H256588   3.552   0.496   5.280  0.0665 -1.4733 -2.2814
11725TIP3   OH256589   3.640   0.603  12.147 -0.0512 -0.2301  0.1198
11725TIP3    H156590   3.570   0.606  12.212  0.7863 -1.7181  1.1256
11725TIP3    H256591   3.598   0.629  12.065 -1.3731  0.6003  1.0387
11726TIP3   OH256592   0.758   4.151  10.811  0.0784  0.4998  0.3159
11726TIP3    H156593   0.770   4.115  10.723 -1.5086  2.6187 -0.8245
11726TIP3    H256594   0.822   4.106  10.865  1.0025 -0.9226 -1.9184
11727TIP3   OH256595   5.631   0.716   4.398  0.1056  0.0339  0.7364
11727TIP3    H156596   5.566   0.712   4.329  2.2317  0.5722 -1.3780
11727TIP3    H256597   5.620   0.635   4.447 -0.6949 -0.9046 -0.9642
11728TIP3   OH256598   2.463   1.413   2.214 -0.0240 -0.3938  0.3002
11728TIP3    H156599   2.390   1.357   2.240  0.8015 -2.1991 -1.1643
11728TIP3    H256600   2.421   1.485   2.167 -0.8450 -1.8727 -1.2965
11729TIP3   OH256601   5.954   3.929   1.730 -0.0015  0.5179  0.0962
11729TIP3    H156602   5.898   3.852   1.718 -0.8741  0.9526  1.2875
11729TIP3    H256603   6.030   3.913   1.674 -0.4976 -0.8918 -0.1836
11730TIP3   OH256604   2.349   6.093  10.612  0.4914 -0.3556 -0.8348
11730TIP3    H156605   2.287   6.163  10.592 -0.7487 -1.6832 -1.7264
11730TIP3    H256606   2.410   6.131  10.675 -1.3666  0.8912  0.2252
11731TIP3   OH256607   5.652   3.258   4.171 -0.5245 -0.6464  0.1703
11731TIP3    H156608   5.699   3.201   4.110 -1.6225  0.4391 -1.7308
11731TIP3    H256609   5.567   3.272   4.131 -0.7815  1.2119  1.2918
11732TIP3   OH256610   6.774   1.051  15.475  0.4800 -0.5377  0.3648
11732TIP3    H156611   6.721   1.123  15.441 -0.5499 -0.2459  2.4898
11732TIP3    H256612   6.856   1.056  15.426  0.8322  2.7682  1.1931
11733TIP3   OH256613   1.045   4.985   1.431 -0.1620  0.4083  0.5130
11733TIP3    H156614   1.111   5.032   1.481  0.1528 -0.0218  0.5065
11733TIP3    H256615   1.047   5.025   1.344 -0.5000  0.9536  0.7546
11734TIP3   OH256616   3.317   1.846  14.116 -0.5707 -0.1336  0.1157
11734TIP3    H156617   3.379   1.826  14.046 -0.6517 -0.0322  0.0166
11734TIP3    H256618   3.232   1.851  14.074 -0.5663  0.3297  0.1513
11735TIP3   OH256619   6.266   2.006   5.735  0.1996  0.2034 -0.0883
11735TIP3    H156620   6.181   2.034   5.769  0.2151 -1.1497  1.1327
11735TIP3    H256621   6.247   1.924   5.690  0.9914 -0.5078  0.8808
11736TIP3   OH256622   6.046   1.308  14.274  0.3894 -0.5670  0.9002
11736TIP3    H156623   6.024   1.231  14.325  0.4406 -1.8340 -0.9252
11736TIP3    H256624   6.136   1.293  14.245  0.3601  0.1176  0.4311
11737TIP3   OH256625   5.098   5.001   5.353  0.0139  0.0529 -0.4055
11737TIP3    H156626   5.123   4.925   5.406  0.2353  0.4643  0.0899
11737TIP3    H256627   5.125   4.979   5.264  0.0400 -0.4664 -0.2669
11738TIP3   OH256628   2.815   5.875   2.413 -0.4094  0.6099  0.0694
11738TIP3    H156629   2.804   5.802   2.352 -2.9436  2.2629 -1.5945
11738TIP3    H256630   2.879   5.932   2.371 -0.8588  0.9098 -0.2103
11739TIP3   OH256631   0.971   0.212  12.631 -0.4667  0.2685 -0.3028
11739TIP3    H156632   0.973   0.292  12.684 -2.2093 -0.2664  0.6018
11739TIP3    H256633   0.964   0.141  12.695  1.9794 -0.6959 -1.0549
11740TIP3   OH256634   4.642   2.264  13.696  0.0997  0.0366  0.4423
11740TIP3    H156635   4.615   2.190  13.750  0.1701  0.6151  1.2742
11740TIP3    H256636   4.599   2.340  13.735 -0.1713  0.4074 -0.5580
11741TIP3   OH256637   3.160   5.946  16.312  0.0367 -0.0621 -0.0539
11741TIP3    H156638   3.226   5.878  16.303 -0.6305 -0.9155  1.3348
11741TIP3    H256639   3.210   6.028  16.323  0.9061 -0.9065  2.7034
11742TIP3   OH256640   6.088   1.170  16.509  0.1585  0.3044 -0.0509
11742TIP3    H156641   6.073   1.259  16.539  0.4691  0.8060 -1.3846
11742TIP3    H256642   6.183   1.157  16.519  0.0980  0.0772  0.2472
11743TIP3   OH256643   6.386   5.832  13.797 -0.0753 -0.3305 -0.1384
11743TIP3    H156644   6.316   5.888  13.832  0.7961  0.6711  0.0310
11743TIP3    H256645   6.397   5.861  13.707 -0.3125 -0.9290 -0.3636
11744TIP3   OH256646   4.765   2.380  12.442 -0.3231 -0.1676 -0.5632
11744TIP3    H156647   4.804   2.302  12.481  0.1403 -0.1921 -1.0619
11744TIP3    H256648   4.724   2.349  12.361 -1.4168 -0.1468 -0.0173
11745TIP3   OH256649   3.617   0.222  14.481  0.1632  0.2119  0.8784
11745TIP3    H156650   3.664   0.268  14.412 -0.0768  1.2440  1.3912
11745TIP3    H256651   3.686   0.182  14.534  0.3355 -0.7984 -0.0960
11746TIP3   OH256652   0.532   2.446  13.556  0.0371 -0.2078  0.5035
11746TIP3    H156653   0.548   2.352  13.561 -0.9016 -0.2928  2.5012
11746TIP3    H256654   0.507   2.471  13.645 -1.3118  1.6311 -0.3521
11747TIP3   OH256655   3.545   4.917  12.923  0.4559  0.2870  0.3354
11747TIP3    H156656   3.468   4.920  12.866 -0.1675  1.0162  1.2092
11747TIP3    H256657   3.604   4.854  12.881 -0.5037 -0.0716 -0.4765
11748TIP3   OH256658   3.031   1.050   5.269 -0.7712  0.1712 -0.1544
11748TIP3    H156659   3.116   1.059   5.314 -1.6741  1.5640  1.3535
11748TIP3    H256660   3.042   1.099   5.188 -0.0498  0.1405 -0.0835
11749TIP3   OH256661   1.382   2.217   0.819 -0.0402  0.2510 -0.1141
11749TIP3    H156662   1.422   2.185   0.739 -0.2993 -0.1533 -0.0844
11749TIP3    H256663   1.436   2.179   0.889  0.3658  0.8453 -0.1004
11750TIP3   OH256664   6.737   2.482   1.543  0.2051 -0.3767  0.2576
11750TIP3    H156665   6.783   2.412   1.588  0.1802  0.9319  2.3859
11750TIP3    H256666   6.806   2.533   1.501  0.1105 -2.5022 -2.5622
11751TIP3   OH256667   2.369   4.992  13.852  0.2592 -1.2552 -0.2635
11751TIP3    H156668   2.316   4.923  13.812 -1.5907 -0.1658  0.2476
11751TIP3    H256669   2.333   5.073  13.817  2.7647 -0.5345 -1.2840
11752TIP3   OH256670   0.844   3.773  11.494  0.4243  0.3211 -0.6240
11752TIP3    H156671   0.755   3.737  11.488 -0.1150  1.3849  0.7247
11752TIP3    H256672   0.831   3.868  11.502  1.5264  0.2711  2.5309
11753TIP3   OH256673   4.549   1.605  16.671 -0.0075 -0.1592  0.2452
11753TIP3    H156674   4.493   1.536  16.638 -0.0129  0.7763 -1.7387
11753TIP3    H256675   4.626   1.559  16.705 -0.1246 -1.1441 -0.8180
11754TIP3   OH256676   5.771   2.810  14.803 -0.8647  0.3524 -0.0605
11754TIP3    H156677   5.760   2.716  14.816 -1.3422  0.5200  0.7412
11754TIP3    H256678   5.683   2.843  14.789 -0.6781  0.6594 -0.5474
11755TIP3   OH256679   4.213   2.973   2.532 -0.3988  0.0966 -0.3488
11755TIP3    H156680   4.271   3.025   2.587 -1.2133 -0.1589  0.7800
11755TIP3    H256681   4.261   2.962   2.449 -0.2266  2.5951 -0.6065
11756TIP3   OH256682   0.597   3.799  10.826  0.1511  0.0653  0.1618
11756TIP3    H156683   0.653   3.721  10.817  1.0700  0.5230  1.7566
11756TIP3    H256684   0.614   3.849  10.746  0.7308 -0.6153 -0.1508
11757TIP3   OH256685   1.834   5.204   2.210 -0.2833  0.3487 -0.2314
11757TIP3    H156686   1.918   5.162   2.195  0.4906  0.9804  2.1616
11757TIP3    H256687   1.796   5.157   2.284 -0.7126  1.9448  0.5778
11758TIP3   OH256688   1.168   5.260  11.832  0.0002  0.1084  0.0151
11758TIP3    H156689   1.212   5.202  11.770  0.5091  2.1132 -1.5598
11758TIP3    H256690   1.078   5.228  11.836  0.3464 -0.9496 -0.6027
11759TIP3   OH256691   3.025   5.500   5.055 -0.4111  0.2505 -0.0166
11759TIP3    H156692   3.048   5.480   4.964 -1.9678 -1.1344 -0.1184
11759TIP3    H256693   2.946   5.552   5.049 -0.1510  0.7120  0.5350
11760TIP3   OH256694   1.503   3.391  10.377  0.1176 -0.0762  0.1266
11760TIP3    H156695   1.498   3.302  10.342  1.2781  0.6297 -1.9082
11760TIP3    H256696   1.556   3.382  10.456  0.2160 -1.1949 -0.0561
11761TIP3   OH256697   2.686   6.094  15.673  0.2962  0.8926 -0.1498
11761TIP3    H156698   2.592   6.083  15.690  0.4803  1.9890  1.6542
11761TIP3    H256699   2.701   6.188  15.680  1.9707  0.4979  2.0186
11762TIP3   OH256700   1.476   3.893  15.050 -0.1154 -0.2209 -0.1178
11762TIP3    H156701   1.409   3.856  15.108  1.1744  0.4171  1.8423
11762TIP3    H256702   1.438   3.887  14.963 -1.1017 -3.5370  0.4665
11763TIP3   OH256703   2.534   6.657   2.545 -0.0198 -0.3575  0.0710
11763TIP3    H156704   2.584   6.730   2.580  0.9372 -0.3224 -1.3215
11763TIP3    H256705   2.593   6.582   2.552 -0.4532 -0.6906  0.1493
11764TIP3   OH256706   6.501   2.283  10.961 -0.2496  0.2611  0.2000
11764TIP3    H156707   6.453   2.227  11.022 -0.0938 -2.2070 -1.8807
11764TIP3    H256708   6.446   2.360  10.951 -1.7572 -0.6855  1.0476
11765TIP3   OH256709   5.464   1.751  11.869  1.0120 -0.3117  0.1752
11765TIP3    H156710   5.376   1.723  11.892  0.3014  1.9975  0.3990
11765TIP3    H256711   5.486   1.700  11.791 -1.1774  0.2775 -0.8663
11766TIP3   OH256712   6.182   4.690   5.755  0.1916 -0.1025 -0.8516
11766TIP3    H156713   6.208   4.599   5.742  0.2924 -0.0673 -0.8959
11766TIP3    H256714   6.264   4.739   5.762  0.1544 -0.2623  0.9960
11767TIP3   OH256715   3.650   5.974   1.308 -0.0595 -0.3446 -0.0778
11767TIP3    H156716   3.562   6.013   1.313  0.8304  1.9505 -1.1054
11767TIP3    H256717   3.660   5.926   1.390 -1.7313  0.5744  0.7034
11768TIP3   OH256718   1.447   0.854   2.910  0.2917  0.3608 -0.3604
11768TIP3    H156719   1.394   0.861   2.830 -1.4135  2.3829  0.8963
11768TIP3    H256720   1.532   0.889   2.885 -0.2148  0.9299 -1.3298
11769TIP3   OH256721   1.572   3.681   3.893 -0.6506  0.1467  0.1180
11769TIP3    H156722   1.500   3.687   3.956  0.0448  2.0089  0.7577
11769TIP3    H256723   1.573   3.766   3.849 -0.2308 -0.6421 -1.4449
11770TIP3   OH256724   4.146   5.002  10.551 -0.3878  0.0041 -0.2480
11770TIP3    H156725   4.100   5.085  10.565  0.6019  0.7601 -1.3848
11770TIP3    H256726   4.089   4.936  10.591 -0.6093  1.3572  1.7107
11771TIP3   OH256727   1.023   5.318  16.300 -0.3978 -0.0978 -0.4776
11771TIP3    H156728   1.038   5.238  16.349 -1.1435  0.8745  1.3717
11771TIP3    H256729   0.997   5.382  16.366 -0.3943  1.5071 -2.0109
11772TIP3   OH256730   2.890   4.170  12.106  0.2734  0.5788  0.2642
11772TIP3    H156731   2.883   4.232  12.178  0.3805 -0.4631  1.1918
11772TIP3    H256732   2.980   4.136  12.112  0.3618  0.6707 -0.5095
11773TIP3   OH256733   5.595   3.991   2.815 -1.0809  0.2973 -0.0587
11773TIP3    H156734   5.617   4.047   2.889  0.6726  0.9540 -1.0459
11773TIP3    H256735   5.658   3.919   2.820 -2.4554 -0.9009  0.4287
11774TIP3   OH256736   4.040   2.749  16.983 -0.1577  0.4321  0.2216
11774TIP3    H156737   4.058   2.827  17.036  0.0155 -0.7926  2.0321
11774TIP3    H256738   4.116   2.693  16.996 -0.3607 -0.1151 -0.9169
11775TIP3   OH256739   1.739   6.668  12.876 -0.5261 -0.1698  0.3993
11775TIP3    H156740   1.667   6.729  12.889 -1.1185 -0.6885 -0.3446
11775TIP3    H256741   1.702   6.599  12.819  0.5192 -0.4933  0.0907
11776TIP3   OH256742   3.200   4.531   4.849 -0.2640  0.0182  0.4545
11776TIP3    H156743   3.155   4.500   4.927  0.6441 -0.4181  0.8226
11776TIP3    H256744   3.292   4.508   4.864 -0.3809 -2.0455 -1.6872
11777TIP3   OH256745   5.768   3.417  14.990 -0.1634  0.1870  0.3653
11777TIP3    H156746   5.811   3.336  14.963 -1.0787 -0.0037 -0.5228
11777TIP3    H256747   5.764   3.470  14.910  1.0347  1.4016  1.0765
11778TIP3   OH256748   3.703   4.504   2.101  0.2265 -0.2940 -0.0298
11778TIP3    H156749   3.665   4.471   2.019  0.2467 -0.3857 -0.0021
11778TIP3    H256750   3.679   4.439   2.167 -1.1488  0.5814  0.3467
11779TIP3   OH256751   3.596   3.212   0.205  0.3402  0.3385 -0.2462
11779TIP3    H156752   3.655   3.161   0.260 -0.8109 -0.0939  0.6298
11779TIP3    H256753   3.623   3.303   0.216 -0.0946  0.2843  1.3169
11780TIP3   OH256754   5.645   4.308   2.571 -0.5041  0.2486 -0.1113
11780TIP3    H156755   5.601   4.369   2.512 -0.1200 -0.4945 -1.1840
11780TIP3    H256756   5.632   4.222   2.531  2.1635  0.0472 -0.6446
11781TIP3   OH256757   1.699   0.806  10.899 -0.3564 -0.2374 -0.5876
11781TIP3    H156758   1.719   0.898  10.915  1.5706 -1.1288  2.6960
11781TIP3    H256759   1.754   0.782  10.825  0.6662  0.7650 -0.1748
11782TIP3   OH256760   4.874   3.013  14.489 -0.2960  0.3307 -0.0275
11782TIP3    H156761   4.939   3.079  14.515 -0.2826  0.0693  0.6275
11782TIP3    H256762   4.789   3.054  14.509 -0.2732 -0.0351  0.8515
11783TIP3   OH256763   6.234   1.517  13.046  0.5464  0.0823  0.2149
11783TIP3    H156764   6.310   1.545  12.994 -0.9703  2.2714 -0.9263
11783TIP3    H256765   6.220   1.589  13.108  0.2673 -0.9630  1.3791
11784TIP3   OH256766   0.690   0.341  16.689  0.1658  0.1864 -0.0020
11784TIP3    H156767   0.739   0.306  16.615 -1.6686  1.6276 -1.9722
11784TIP3    H256768   0.707   0.436  16.687  1.0306  0.1178  2.1714
11785TIP3   OH256769   3.192   1.771   1.291 -0.2191  0.4544  0.2663
11785TIP3    H156770   3.152   1.707   1.232 -0.2209 -1.3008  2.1276
11785TIP3    H256771   3.118   1.824   1.322 -0.4456  0.2868  0.0171
11786TIP3   OH256772   1.523   5.418  14.190  0.2150 -0.0458  0.6201
11786TIP3    H156773   1.450   5.477  14.174  0.0876 -0.6602 -1.1704
11786TIP3    H256774   1.491   5.360  14.260 -0.5958  0.3861  0.6211
11787TIP3   OH256775   0.804   1.297  14.022 -0.0749  0.4541 -0.4030
11787TIP3    H156776   0.769   1.270  14.107 -1.5966  0.3343 -1.0522
11787TIP3    H256777   0.769   1.233  13.960  2.1689 -0.2922 -0.9446
11788TIP3   OH256778   6.095   2.313  15.687 -0.3055  0.4800  0.2619
11788TIP3    H156779   6.123   2.331  15.597 -0.8762 -0.9624 -0.2217
11788TIP3    H256780   6.042   2.233  15.680  3.1267 -2.1523  2.4319
11789TIP3   OH256781   6.121   4.923  13.144 -0.2225 -0.0883  0.3847
11789TIP3    H156782   6.108   5.016  13.123  0.9347 -0.1967 -0.9405
11789TIP3    H256783   6.081   4.912  13.230  0.5842  1.8963  1.0616
11790TIP3   OH256784   4.736   0.033  15.987 -0.4218  0.0417  0.6963
11790TIP3    H156785   4.692   0.047  16.071 -0.9341  0.3070  0.3841
11790TIP3    H256786   4.819   0.079  15.995 -0.0878 -0.6579  1.3760
11791TIP3   OH256787   1.111   3.489  16.534  0.2879  0.3853  0.1812
11791TIP3    H156788   1.156   3.481  16.618  1.5905  1.4043 -0.3889
11791TIP3    H256789   1.137   3.411  16.485  0.4116  0.3328  0.3302
11792TIP3   OH256790   5.545   1.950   2.970  0.5443 -0.0643 -0.1289
11792TIP3    H156791   5.638   1.932   2.962  0.3783 -0.3148 -1.6219
11792TIP3    H256792   5.540   2.022   3.034  1.7317 -0.1484  0.0688
11793TIP3   OH256793   0.225   1.270   0.729  0.2415 -0.1549 -0.0861
11793TIP3    H156794   0.294   1.210   0.757 -1.3399 -1.8042  0.3333
11793TIP3    H256795   0.145   1.234   0.767 -1.0788  0.9236 -1.7807
11794TIP3   OH256796   1.961   0.556   3.220  0.0877  0.1846 -0.8237
11794TIP3    H156797   2.023   0.492   3.254 -0.8628 -1.5681 -2.3164
11794TIP3    H256798   1.876   0.526   3.249 -0.3988  0.6015 -1.8026
11795TIP3   OH256799   2.787   2.645  16.293 -0.3563 -0.3647 -0.2237
11795TIP3    H156800   2.873   2.682  16.275 -1.0415  0.1510 -2.6332
11795TIP3    H256801   2.765   2.597  16.213 -1.5420 -1.9863  1.0527
11796TIP3   OH256802   4.027   3.674   4.564 -0.4030 -0.6230  0.4948
11796TIP3    H156803   3.976   3.594   4.578 -0.4400 -0.6046  0.4664
11796TIP3    H256804   4.116   3.650   4.588 -0.5105 -0.5145  1.0116
11797TIP3   OH256805   4.345   5.943   5.383 -0.4128 -0.0015  0.6691
11797TIP3    H156806   4.276   5.885   5.417 -0.9857 -0.6015 -1.4588
11797TIP3    H256807   4.310   6.031   5.397 -0.7226 -0.2318  1.4211
11798TIP3   OH256808   5.902   2.938  16.265  0.5225 -0.1256  0.7705
11798TIP3    H156809   5.938   3.023  16.291 -0.4234  0.4407  0.2437
11798TIP3    H256810   5.841   2.915  16.335  0.6113 -0.2772  0.8008
11799TIP3   OH256811   0.842   5.819  16.102  0.4115  0.4617 -0.0133
11799TIP3    H156812   0.863   5.857  16.017 -3.5101 -0.5453 -1.5257
11799TIP3    H256813   0.790   5.886  16.146  0.1183 -0.0832  0.4783
11800TIP3   OH256814   6.176   6.632   3.467 -0.0727  0.2469  0.6336
11800TIP3    H156815   6.110   6.606   3.403  0.0345  1.6245 -0.0543
11800TIP3    H256816   6.259   6.608   3.427 -0.1209 -1.1799  1.3545
11801TIP3   OH256817   6.083   1.003  14.971 -0.0347 -0.1199  0.0585
11801TIP3    H156818   6.029   1.075  14.937 -2.0870 -1.4954  0.2962
11801TIP3    H256819   6.020   0.945  15.014  1.6550 -1.7997  0.3058
11802TIP3   OH256820   0.920   1.892  11.457 -0.4919 -0.5732  0.0363
11802TIP3    H156821   0.981   1.961  11.429 -1.0055 -0.3603 -0.5855
11802TIP3    H256822   0.856   1.887  11.385  0.5460 -2.9310 -0.7671
11803TIP3   OH256823   2.827   5.843  12.055  0.3962 -0.0258  0.1565
11803TIP3    H156824   2.797   5.899  11.983 -1.9536  0.0141  1.1385
11803TIP3    H256825   2.747   5.804  12.090  1.7759 -2.1118  1.0642
11804TIP3   OH256826   2.020   4.056  11.463  0.5428 -0.5915  0.4702
11804TIP3    H156827   1.950   3.992  11.469 -2.3144  2.3165 -0.7815
11804TIP3    H256828   1.992   4.128  11.519  1.5984  1.4410 -1.5407
11805TIP3   OH256829   2.540   5.980  10.404 -0.1791  0.3849 -0.0946
11805TIP3    H156830   2.615   5.975  10.463 -0.8270  0.7255  0.7789
11805TIP3    H256831   2.466   5.998  10.462 -1.2298 -1.7469 -0.7172
11806TIP3   OH256832   4.143   0.841  16.016  0.3441 -0.9518 -0.2653
11806TIP3    H156833   4.123   0.803  15.930  1.2999  1.5599 -1.6489
11806TIP3    H256834   4.182   0.769  16.065  1.7942 -1.8702 -2.6708
11807TIP3   OH256835   3.690   2.132   2.319 -0.0782 -0.5828 -0.2262
11807TIP3    H156836   3.765   2.169   2.272  0.8985 -1.0210  0.9746
11807TIP3    H256837   3.706   2.153   2.411 -1.4960 -0.5825  0.0449
11808TIP3   OH256838   5.384   1.203   4.638  0.4749  0.0289  0.0558
11808TIP3    H156839   5.406   1.209   4.731 -0.2304 -0.6361  0.2746
11808TIP3    H256840   5.459   1.158   4.599 -0.2647 -1.8476  0.7248
11809TIP3   OH256841   3.375   4.617  14.426 -0.1153 -0.3154  0.2233
11809TIP3    H156842   3.405   4.614  14.335 -1.3555  0.5114 -0.2312
11809TIP3    H256843   3.285   4.650  14.421 -1.6162 -4.0204  1.4419
11810TIP3   OH256844   0.312   1.298   0.051  0.3143 -0.0479  0.4339
11810TIP3    H156845   0.405   1.314   0.035  0.7070 -2.1379  0.5059
11810TIP3    H256846   0.306   1.204   0.069 -1.8810 -0.0450 -0.0899
11811TIP3   OH256847   2.398   5.523  17.007 -0.0057 -0.1116  0.1508
11811TIP3    H156848   2.355   5.450  16.964 -2.3229  1.2471  0.0807
11811TIP3    H256849   2.333   5.594  17.006  1.2562  1.1532  2.4420
11812TIP3   OH256850   1.668   2.309  16.344 -0.4375  0.0538 -0.4929
11812TIP3    H156851   1.751   2.270  16.316 -0.4923 -0.6343  0.2750
11812TIP3    H256852   1.684   2.337  16.434 -0.9463  0.1882 -0.4449
11813TIP3   OH256853   3.256   2.769  13.669  0.0801 -0.6469  1.3813
11813TIP3    H156854   3.232   2.694  13.614 -0.3168 -0.1394  0.8681
11813TIP3    H256855   3.185   2.832  13.657  1.9376  1.1285 -0.6518
11814TIP3   OH256856   4.742   1.781  11.139 -0.6098  0.3208  0.0629
11814TIP3    H156857   4.705   1.732  11.066 -0.8863 -1.6843  1.5009
11814TIP3    H256858   4.836   1.760  11.137 -0.8952 -1.2217  1.3358
11815TIP3   OH256859   0.863   5.024  14.979  0.1978  0.2101  0.1760
11815TIP3    H156860   0.869   4.989  15.068  0.4391 -0.8441 -0.2473
11815TIP3    H256861   0.940   5.082  14.971  1.1836 -1.0848  0.0634
11816TIP3   OH256862   5.717   1.508   3.635 -0.2484 -0.0949  0.5904
11816TIP3    H156863   5.642   1.563   3.657 -0.8521 -0.3771 -0.6594
11816TIP3    H256864   5.722   1.445   3.707 -2.7657 -1.6077 -0.4699
11817TIP3   OH256865   2.495   3.697   1.001 -0.1846  0.2879 -0.1459
11817TIP3    H156866   2.471   3.756   1.072  0.2018  0.6188 -0.2889
11817TIP3    H256867   2.502   3.611   1.042 -1.4885  0.2021 -0.0790
11818TIP3   OH256868   0.508   3.131   4.379  0.3732  0.0712  0.7133
11818TIP3    H156869   0.535   3.212   4.335  0.9509 -1.2134 -1.3235
11818TIP3    H256870   0.532   3.145   4.471  2.7040  1.2641 -0.0341
11819TIP3   OH256871   4.344   5.543  14.695 -0.1869  0.0343  0.8517
11819TIP3    H156872   4.390   5.602  14.636 -2.6974  1.4537  0.2359
11819TIP3    H256873   4.279   5.599  14.738 -2.1985 -2.1496  0.7247
11820TIP3   OH256874   4.715   3.518  12.069  0.1715 -0.0675  0.0696
11820TIP3    H156875   4.722   3.603  12.113 -0.6001 -0.7114  1.4639
11820TIP3    H256876   4.621   3.501  12.065  0.3485 -1.1300  0.3476
11821TIP3   OH256877   1.164   4.141  14.734  0.1736 -0.0973 -0.2632
11821TIP3    H156878   1.112   4.195  14.794 -0.6828  1.0349 -1.9925
11821TIP3    H256879   1.106   4.069  14.710  1.4715 -2.1216  2.4025
11822TIP3   OH256880   6.233   3.730  14.126 -0.0340  0.0177  0.1348
11822TIP3    H156881   6.164   3.751  14.189  0.8919  3.2793  0.1956
11822TIP3    H256882   6.294   3.676  14.174 -0.3539  0.7949  1.4450
11823TIP3   OH256883   4.806   4.307  15.857  0.0545 -0.0530 -0.3709
11823TIP3    H156884   4.824   4.326  15.765  1.9472  0.4476  0.0754
11823TIP3    H256885   4.720   4.345  15.873  0.5734  1.6407 -1.4288
11824TIP3   OH256886   2.250   5.376   1.376 -0.0933 -0.4603 -0.1765
11824TIP3    H156887   2.265   5.394   1.469  1.6709 -0.1459 -0.4899
11824TIP3    H256888   2.290   5.291   1.361 -0.3712 -0.5093 -0.6473
11825TIP3   OH256889   1.485   4.496   1.501  0.0336  0.3572  0.4698
11825TIP3    H156890   1.427   4.501   1.577 -0.4643 -0.9826  0.1812
11825TIP3    H256891   1.560   4.444   1.530 -0.8075 -1.3602 -0.3483
11826TIP3   OH256892   5.870   0.963  12.197  0.0536  0.1324 -0.1799
11826TIP3    H156893   5.892   0.919  12.279 -1.2664 -0.5352 -0.1661
11826TIP3    H256894   5.774   0.968  12.198  0.0831  1.0177 -1.2204
11827TIP3   OH256895   2.018   5.577  12.315  0.3002  0.7624 -0.3029
11827TIP3    H156896   2.054   5.664  12.300 -0.9471  1.2388 -0.5350
11827TIP3    H256897   1.990   5.547  12.228  1.9536 -0.4237 -0.4436
11828TIP3   OH256898   3.395   4.617   0.253  0.2544 -0.0883  0.6068
11828TIP3    H156899   3.490   4.620   0.241  0.4599 -2.2930  1.4729
11828TIP3    H256900   3.382   4.603   0.347 -0.8484 -1.9876  0.2054
11829TIP3   OH256901   6.684   6.488  12.068  0.5250 -0.4539 -0.0465
11829TIP3    H156902   6.671   6.506  11.975  2.6337  2.3608  0.1453
11829TIP3    H256903   6.600   6.510  12.109  0.1296 -0.0609 -1.0739
11830TIP3   OH256904   1.004   5.806   5.167  0.6432  0.0286 -0.2558
11830TIP3    H156905   1.043   5.842   5.086 -0.4763 -0.0461 -0.8348
11830TIP3    H256906   1.066   5.738   5.194  1.5575  0.7492 -0.4761
11831TIP3   OH256907   3.827   6.043  11.084 -0.4276 -0.0859 -0.8849
11831TIP3    H156908   3.798   6.031  10.993 -1.2274 -0.7473 -0.5565
11831TIP3    H256909   3.795   6.130  11.108 -2.3019 -0.8559 -0.4870
11832TIP3   OH256910   2.999   0.223  14.448  0.4231 -0.1140  0.2029
11832TIP3    H156911   3.082   0.176  14.440  0.1048 -0.8763  1.2896
11832TIP3    H256912   2.937   0.156  14.478 -0.4983  0.5297 -0.2820
11833TIP3   OH256913   3.851   5.575  12.086 -0.3849  0.1466  0.0853
11833TIP3    H156914   3.835   5.498  12.031 -0.7485 -0.1938  0.6507
11833TIP3    H256915   3.860   5.647  12.024  1.3880 -0.5698 -0.5345
11834TIP3   OH256916   2.068   0.530   3.929  0.0730  0.4953 -0.3972
11834TIP3    H156917   2.144   0.541   3.986  2.3275 -0.4389 -3.1506
11834TIP3    H256918   2.015   0.464   3.974  1.0041  0.9276  1.4011
11835TIP3   OH256919   0.300   3.422   0.768 -0.4334  0.0124 -0.2282
11835TIP3    H156920   0.294   3.515   0.791 -0.6508 -0.2614  0.8664
11835TIP3    H256921   0.313   3.422   0.673 -0.2130  1.1653 -0.2139
11836TIP3   OH256922   3.761   2.672  14.732 -0.5149 -0.0995 -0.7212
11836TIP3    H156923   3.791   2.602  14.791  0.1238  1.3499  0.7268
11836TIP3    H256924   3.685   2.635  14.688  0.1515 -1.9086 -0.3896
11837TIP3   OH256925   4.460   0.554   3.641  0.0386  0.8706  0.3537
11837TIP3    H156926   4.370   0.527   3.623  0.3250  0.8741 -1.0666
11837TIP3    H256927   4.498   0.571   3.556  1.7287 -0.1866  0.8823
11838TIP3   OH256928   4.044   1.020   4.921  0.9948 -0.5935 -0.3261
11838TIP3    H156929   4.061   0.930   4.948  0.0839 -1.0939 -1.3742
11838TIP3    H256930   4.127   1.065   4.935  0.9412 -1.1384  2.0082
11839TIP3   OH256931   0.666   4.478  14.780  0.7302 -0.1672  0.1330
11839TIP3    H156932   0.597   4.457  14.843  0.7950 -1.2164 -0.1343
11839TIP3    H256933   0.640   4.561  14.742  0.1653 -0.0339  0.8153
11840TIP3   OH256934   2.483   4.524   1.978  0.4267  0.7704  0.3379
11840TIP3    H156935   2.520   4.602   2.021  0.5310  0.1907  1.2985
11840TIP3    H256936   2.468   4.462   2.049 -2.3567  0.9488 -0.0219
11841TIP3   OH256937   0.250   6.773   5.213 -0.0563 -0.3290 -0.2112
11841TIP3    H156938   0.155   6.771   5.198 -0.2048  3.4144 -0.3054
11841TIP3    H256939   0.266   6.700   5.273 -3.0352 -0.9193 -0.0319
11842TIP3   OH256940   5.209   0.213  13.869  0.1915  0.5690  0.6362
11842TIP3    H156941   5.190   0.293  13.819  0.7638  1.2554  1.5092
11842TIP3    H256942   5.230   0.244  13.957  0.2703 -0.5584  1.0213
11843TIP3   OH256943   1.936   0.507   0.006 -0.7234 -0.0200 -0.3532
11843TIP3    H156944   1.920   0.520  -0.087 -1.0453 -1.2748 -0.4848
11843TIP3    H256945   1.868   0.445   0.034 -0.2532 -0.1314  0.5769
11844TIP3   OH256946   4.694   0.420  14.775 -1.0101  0.0104 -0.7327
11844TIP3    H156947   4.643   0.406  14.696  0.0794 -0.3741 -1.3682
11844TIP3    H256948   4.785   0.416  14.747 -0.6177  0.8518  0.3651
11845TIP3   OH256949   1.468   5.949  16.054  0.1251  0.3008 -0.0024
11845TIP3    H156950   1.501   6.005  16.124  0.0679 -0.9510  1.0438
11845TIP3    H256951   1.450   5.865  16.097 -2.1040  0.2180 -1.0320
11846TIP3   OH256952   0.332   1.258  10.813  0.1831  0.2639  0.3155
11846TIP3    H156953   0.292   1.256  10.726 -0.4234  1.3628  0.5590
11846TIP3    H256954   0.363   1.169  10.827 -2.1497 -0.6367  0.0900
11847TIP3   OH256955   1.436   5.951   4.949 -0.1818  0.3484  0.1305
11847TIP3    H156956   1.417   6.043   4.928 -1.7171 -0.0196 -0.1713
11847TIP3    H256957   1.370   5.901   4.900  2.1268 -1.0743 -1.5833
11848TIP3   OH256958   2.336   5.161  12.975  0.2026 -0.2683  0.3643
11848TIP3    H156959   2.397   5.158  13.049  0.5364 -0.7740  0.0773
11848TIP3    H256960   2.384   5.120  12.903  0.3666  1.3895 -0.4909
11849TIP3   OH256961   5.300   2.023   1.320  0.2434 -0.6871  0.0168
11849TIP3    H156962   5.210   2.046   1.345 -0.4234 -0.7073 -2.2264
11849TIP3    H256963   5.332   2.100   1.275  0.9095 -1.1480 -0.2964
11850TIP3   OH256964   2.174   5.746  16.937  0.0458 -0.1375 -0.2341
11850TIP3    H156965   2.160   5.722  16.845 -2.1400 -0.3805  0.1234
11850TIP3    H256966   2.085   5.752  16.973  0.8827  0.0394  1.8338
11851TIP3   OH256967   1.031   5.303  10.811 -0.2109 -0.5147  0.5873
11851TIP3    H156968   1.064   5.272  10.727 -0.1852  0.7385  0.1251
11851TIP3    H256969   0.943   5.264  10.818 -1.3365  1.5812 -1.3141
11852TIP3   OH256970   1.260   6.422   5.700 -0.4220  0.0410 -0.0430
11852TIP3    H156971   1.234   6.333   5.676 -1.5038  0.4779 -0.4994
11852TIP3    H256972   1.354   6.425   5.681 -0.3847 -1.0014 -0.0331
11853TIP3   OH256973   0.819   2.832  15.169 -0.3656  0.0928  0.4463
11853TIP3    H156974   0.783   2.918  15.190  0.5652  0.5305  0.2892
11853TIP3    H256975   0.745   2.782  15.136 -1.1026  0.5331  1.4306
11854TIP3   OH256976   1.504   6.735   4.246 -0.2324 -0.3069 -0.0579
11854TIP3    H156977   1.577   6.780   4.204  0.5786  0.1509  1.8071
11854TIP3    H256978   1.532   6.722   4.336 -1.9240 -1.3204  0.3438
11855TIP3   OH256979   1.157   0.875   5.800  0.1187  0.2707 -0.8275
11855TIP3    H156980   1.184   0.964   5.780 -1.6883  1.2250  0.8325
11855TIP3    H256981   1.065   0.883   5.826  0.5994 -1.7446  1.6624
11856TIP3   OH256982   0.104   2.492  12.120 -0.5763 -0.3135  0.2503
11856TIP3    H156983   0.012   2.476  12.097  0.2914 -1.1379 -2.9036
11856TIP3    H256984   0.119   2.584  12.098 -1.0570  0.3198  2.4132
11857TIP3   OH256985   0.500   3.127  11.967  0.1158 -0.2668  0.0509
11857TIP3    H156986   0.555   3.132  11.888  1.5119 -1.4783  0.9304
11857TIP3    H256987   0.447   3.206  11.963  1.2406  0.4597 -1.3354
11858TIP3   OH256988   1.988   1.371   3.127 -0.7153 -0.1853  0.4050
11858TIP3    H156989   2.058   1.332   3.076 -0.5331 -1.1826  1.3827
11858TIP3    H256990   2.028   1.389   3.212 -1.6007 -0.6609  0.9333
11859TIP3   OH256991   4.046   3.417   2.398  0.3999 -0.4764  0.6908
11859TIP3    H156992   3.994   3.453   2.325  1.2560 -1.6602 -0.5224
11859TIP3    H256993   3.981   3.397   2.465 -0.3662  0.9709  0.4070
11860TIP3   OH256994   3.082   2.871  17.202  0.2181 -0.0160 -0.7311
11860TIP3    H156995   3.103   2.963  17.221 -1.4981 -0.1868  2.2102
11860TIP3    H256996   2.997   2.875  17.157 -0.6028 -0.2151  0.7644
11861TIP3   OH256997   5.927   5.947   1.563 -0.3739  0.4760  0.5897
11861TIP3    H156998   5.926   6.035   1.601  0.3615  0.2854  1.0625
11861TIP3    H256999   5.934   5.961   1.469 -0.9451  0.9346  0.6178
11862TIP3   OH257000   1.003   0.378  16.465 -0.3272 -0.9025  0.1409
11862TIP3    H157001   1.073   0.442  16.480  0.2026 -1.1340 -1.2965
11862TIP3    H257002   0.929   0.431  16.434  0.4984 -1.0981 -2.2398
11863TIP3   OH257003   0.950   5.007   4.233  0.5408 -0.1078 -0.3807
11863TIP3    H157004   1.035   5.001   4.276  0.2372 -0.7007  0.1486
11863TIP3    H257005   0.965   5.064   4.158  1.2157  0.4647  0.1764
11864TIP3   OH257006   4.559   5.284  16.075 -0.4433 -0.8448  0.1934
11864TIP3    H157007   4.574   5.332  16.156 -1.4790  1.3272 -0.8463
11864TIP3    H257008   4.471   5.246  16.086 -1.2199  0.7072 -0.4744
11865TIP3   OH257009   4.925   2.683  11.319  0.0823  0.2336  0.3751
11865TIP3    H157010   4.956   2.612  11.262  2.1727  0.8904  0.6774
11865TIP3    H257011   4.883   2.745  11.259 -0.7650 -0.7102 -0.0205
11866TIP3   OH257012   3.224   1.400  15.617  0.3822 -0.6618 -0.4301
11866TIP3    H157013   3.210   1.315  15.659  1.7513 -1.4674 -1.5489
11866TIP3    H257014   3.136   1.430  15.594 -0.2499 -0.9696  1.5008
11867TIP3   OH257015   5.008   4.076   1.272 -0.4398  0.1058 -0.3510
11867TIP3    H157016   5.058   4.001   1.241  0.5550  0.8788 -0.6452
11867TIP3    H257017   4.979   4.052   1.360  1.8257  0.2881  0.4685
11868TIP3   OH257018   3.236   3.063   3.914 -0.3397  0.0432 -0.2427
11868TIP3    H157019   3.258   3.071   3.822  3.0435 -1.3819  0.3690
11868TIP3    H257020   3.285   2.986   3.944 -0.6351  1.0201  2.9314
11869TIP3   OH257021   4.158   1.472  11.996 -0.0336  0.3359  0.3356
11869TIP3    H157022   4.176   1.415  11.921 -0.0155  0.3519  0.3278
11869TIP3    H257023   4.240   1.520  12.010  0.1274 -0.0493  0.7024
11870TIP3   OH257024   2.718   6.767   3.917 -0.0408  0.3088 -0.3976
11870TIP3    H157025   2.742   6.860   3.918  0.5862  0.1503  1.7015
11870TIP3    H257026   2.797   6.723   3.885 -0.4319  0.4956 -1.6689
11871TIP3   OH257027   5.392   1.734  12.810  0.1176 -0.0377  0.1771
11871TIP3    H157028   5.428   1.810  12.855  0.7521 -0.2430  0.0171
11871TIP3    H257029   5.394   1.758  12.717 -1.3770  0.4673  0.2516
11872TIP3   OH257030   6.138   5.933  13.531  0.7364  0.6439 -0.0737
11872TIP3    H157031   6.224   5.898  13.510 -0.3699 -2.1384 -0.2954
11872TIP3    H257032   6.112   5.887  13.611 -0.5691  1.3523 -0.0659
11873TIP3   OH257033   6.547   5.044  11.429  0.6059 -0.5064 -0.0436
11873TIP3    H157034   6.453   5.058  11.438  0.7917  0.4302  0.4587
11873TIP3    H257035   6.556   4.995  11.347 -0.1781  0.9216 -1.0042
11874TIP3   OH257036   6.371   3.797   0.593  0.1826 -0.3752  0.3344
11874TIP3    H157037   6.312   3.869   0.570  2.1480  1.0980 -0.2279
11874TIP3    H257038   6.378   3.800   0.688 -0.1197 -0.1325  0.3479
11875TIP3   OH257039   4.097   1.493  16.033 -0.1902 -0.7579  0.3154
11875TIP3    H157040   4.061   1.567  15.982 -0.9791 -2.2533 -1.3469
11875TIP3    H257041   4.146   1.442  15.969 -0.1718 -2.0126  1.3300
11876TIP3   OH257042   1.614   4.416  16.318  0.5951 -0.6911 -0.6509
11876TIP3    H157043   1.562   4.457  16.387 -0.5677 -2.5009 -0.4316
11876TIP3    H257044   1.566   4.432  16.237  1.2281  0.1794 -0.8691
11877TIP3   OH257045   6.137   2.816   4.361 -0.1883 -0.4550  0.0967
11877TIP3    H157046   6.153   2.721   4.357 -0.5493 -0.5168  0.1099
11877TIP3    H257047   6.215   2.855   4.322  1.4561 -0.6515  3.0096
11878TIP3   OH257048   4.967   2.661  11.593 -0.2404  0.2719 -0.2615
11878TIP3    H157049   5.060   2.667  11.613  0.0490  0.2630 -1.5622
11878TIP3    H257050   4.960   2.686  11.501 -1.6036  0.9170 -0.0090
11879TIP3   OH257051   0.324   6.215   2.529  0.6033 -0.1819 -0.2626
11879TIP3    H157052   0.243   6.263   2.515 -1.0295 -2.7633 -0.0630
11879TIP3    H257053   0.383   6.246   2.460 -0.6046  1.5678 -0.5330
11880TIP3   OH257054   0.783   1.000   3.376 -0.0411  0.4565 -0.8142
11880TIP3    H157055   0.822   1.053   3.445 -2.2728  1.0166  0.0752
11880TIP3    H257056   0.790   1.053   3.297  0.2605  0.8853 -0.5004
11881TIP3   OH257057   0.530   1.112   4.123 -0.1078  0.0289  0.1853
11881TIP3    H157058   0.455   1.131   4.178  0.2252 -0.1448  0.7073
11881TIP3    H257059   0.511   1.027   4.085 -1.1675  0.9574 -1.4098
11882TIP3   OH257060   5.194   0.222   4.248 -0.3334 -1.1640 -0.3722
11882TIP3    H157061   5.222   0.276   4.322  0.4861 -2.6815  0.4670
11882TIP3    H257062   5.249   0.251   4.175 -2.0922  1.2913 -0.7892
11883TIP3   OH257063   4.612   0.091  15.082  0.2380  0.3212 -0.5651
11883TIP3    H157064   4.611   0.186  15.095  0.1965  0.4925 -1.7651
11883TIP3    H257065   4.690   0.075  15.029 -0.2659 -0.1983 -1.1580
11884TIP3   OH257066   1.333   1.786   2.686 -0.0940 -0.2292  0.1541
11884TIP3    H157067   1.287   1.839   2.620  1.7365  0.4843 -0.5736
11884TIP3    H257068   1.414   1.833   2.703  0.5863 -1.6999  1.0927
11885TIP3   OH257069   1.694   4.526  13.936 -0.0391 -0.5481  0.6185
11885TIP3    H157070   1.604   4.513  13.908 -0.4720  0.4729  1.4944
11885TIP3    H257071   1.747   4.491  13.864 -1.1036 -2.8288  0.8848
11886TIP3   OH257072   0.413   2.237  15.313  0.2772 -0.1561  0.0775
11886TIP3    H157073   0.484   2.230  15.249 -0.9604 -0.9409 -1.2287
11886TIP3    H257074   0.411   2.330  15.337  1.0194  0.0672 -0.7131
11887TIP3   OH257075   0.670   0.342   4.971 -0.6208 -0.0647 -0.1236
11887TIP3    H157076   0.648   0.379   5.056  1.0149 -0.5825  0.5397
11887TIP3    H257077   0.622   0.396   4.908 -0.2623  1.5868  0.9983
11888TIP3   OH257078   2.897   2.007  16.711  0.6622  0.2000 -0.3464
11888TIP3    H157079   2.954   1.938  16.744  2.0775  0.3374 -2.3729
11888TIP3    H257080   2.816   1.962  16.687  0.3744 -0.2122  1.3899
11889TIP3   OH257081   1.390   5.210   0.179 -0.2622 -0.2137  0.0977
11889TIP3    H157082   1.448   5.138   0.204  0.4749  0.4245  0.2396
11889TIP3    H257083   1.406   5.278   0.244  2.0788  1.6636 -2.3066
11890TIP3   OH257084   5.367   4.625   2.126  0.4608 -1.0233  0.3805
11890TIP3    H157085   5.288   4.659   2.168  0.4309 -0.2367 -0.2963
11890TIP3    H257086   5.415   4.703   2.100 -0.1140 -1.4834 -2.1618
11891TIP3   OH257087   2.153   5.241  14.566  0.3761 -0.9701  0.1403
11891TIP3    H157088   2.119   5.166  14.518 -0.1160 -2.1687  2.3047
11891TIP3    H257089   2.231   5.268  14.518 -0.3877 -1.8184 -1.5845
11892TIP3   OH257090   4.969   1.278   4.341 -0.0305  0.7851 -0.3513
11892TIP3    H157091   4.911   1.239   4.405  1.1395  0.2820  0.4263
11892TIP3    H257092   5.030   1.208   4.317  2.2409  2.1485  1.2471
11893TIP3   OH257093   4.036   1.363   6.285  0.1423  0.3610  0.3031
11893TIP3    H157094   4.116   1.407   6.311  1.1295  1.2133 -3.7987
11893TIP3    H257095   3.977   1.434   6.259 -0.3218 -0.4427 -0.9022
11894TIP3   OH257096   5.641   0.326  13.691  0.0062  0.1980 -0.2924
11894TIP3    H157097   5.726   0.308  13.651 -0.3915 -2.6027  0.0153
11894TIP3    H257098   5.591   0.245  13.680 -2.5739  1.7166 -0.2863
11895TIP3   OH257099   2.898   3.242   4.735 -0.4621  0.6672  0.4943
11895TIP3    H157100   2.960   3.299   4.690  2.2250 -0.8644  2.1116
11895TIP3    H257101   2.935   3.231   4.823 -2.2923 -1.4188  1.0337
11896TIP3   OH257102   0.512   4.838   2.075  0.0722  0.3375 -0.3836
11896TIP3    H157103   0.457   4.768   2.040 -0.3884  0.4306  0.1605
11896TIP3    H257104   0.483   4.916   2.028  0.5680  0.1743 -0.9714
11897TIP3   OH257105   3.109   1.183  13.695 -0.3925  0.4911 -0.4009
11897TIP3    H157106   3.128   1.149  13.783  1.9666 -0.7133 -1.3316
11897TIP3    H257107   3.014   1.193  13.694 -0.8109 -2.5366  1.2347
11898TIP3   OH257108   4.863   2.254   0.281 -0.2612 -0.2497 -0.4428
11898TIP3    H157109   4.930   2.276   0.217 -0.9255  0.8457 -0.7593
11898TIP3    H257110   4.785   2.234   0.229 -0.7632  0.5161  0.0101
11899TIP3   OH257111   1.206   3.264  17.038 -0.0589  0.4826  0.1208
11899TIP3    H157112   1.260   3.298  17.110  0.1741 -0.1549  0.2492
11899TIP3    H257113   1.185   3.175  17.064 -0.7826  0.5675 -0.1579
11900TIP3   OH257114   0.296   1.774   2.265 -0.1365 -0.2132  0.7029
11900TIP3    H157115   0.263   1.724   2.340 -1.1288 -0.7556 -0.0738
11900TIP3    H257116   0.390   1.761   2.266 -0.2753 -1.1862  1.1677
11901TIP3   OH257117   4.735   1.279   0.599 -0.2995  0.7913 -0.6263
11901TIP3    H157118   4.794   1.329   0.656 -1.8553  1.3826  0.4742
11901TIP3    H257119   4.737   1.326   0.516 -0.3360  1.6400 -0.1515
11902TIP3   OH257120   3.716   5.974   0.259  0.2574  0.0446  0.1694
11902TIP3    H157121   3.762   5.998   0.179  0.5601  0.0235  0.3339
11902TIP3    H257122   3.628   6.009   0.248  0.5043  0.6723  0.1321
11903TIP3   OH257123   0.237   0.202   0.213  0.0616  0.4445 -0.4079
11903TIP3    H157124   0.321   0.158   0.202  0.1742  0.9735 -1.8354
11903TIP3    H257125   0.213   0.187   0.304  3.1809  2.9680  0.8897
11904TIP3   OH257126   5.459   3.498  11.036 -0.5634  0.1619 -0.0339
11904TIP3    H157127   5.407   3.572  11.005 -1.0652  0.8973  2.4158
11904TIP3    H257128   5.409   3.462  11.109  0.4205 -1.6653 -0.2096
11905TIP3   OH257129   1.146   3.872  14.427  0.2877 -0.3677  0.0322
11905TIP3    H157130   1.053   3.865  14.449 -0.2771  0.0886 -2.1032
11905TIP3    H257131   1.157   3.818  14.349  1.9760 -1.0003  0.6765
11906TIP3   OH257132   2.601   2.241   3.028 -0.0031 -0.4537 -0.5181
11906TIP3    H157133   2.565   2.269   3.112 -0.4741 -1.1541 -0.4839
11906TIP3    H257134   2.527   2.244   2.968  0.9084  2.8960 -1.6358
11907TIP3   OH257135   4.485   5.854   0.499  0.5124 -0.0852  0.0976
11907TIP3    H157136   4.564   5.908   0.505 -0.5288  1.6910 -1.6214
11907TIP3    H257137   4.424   5.894   0.560  0.3061 -0.3624  0.0754
11908TIP3   OH257138   5.502   5.159   0.082 -0.1441  0.2522 -0.0878
11908TIP3    H157139   5.529   5.131   0.169  1.7285 -0.3225 -0.8136
11908TIP3    H257140   5.545   5.244   0.069  2.0753 -1.0165 -1.5471
11909TIP3   OH257141   2.993   0.128   6.190  0.2797 -0.1619  0.8115
11909TIP3    H157142   3.028   0.073   6.260 -0.6166 -1.7072  0.0821
11909TIP3    H257143   2.898   0.121   6.199  0.1649  1.1518  0.6175
11910TIP3   OH257144   5.579   2.887   5.869 -0.2968 -0.1550 -0.1270
11910TIP3    H157145   5.559   2.894   5.962  1.1152 -0.8948  0.2548
11910TIP3    H257146   5.531   2.959   5.828 -0.4927  0.5057  1.2484
11911TIP3   OH257147   3.848   5.233   4.715 -0.2242  0.3519  0.2607
11911TIP3    H157148   3.774   5.295   4.715 -1.2339 -0.8417  0.5158
11911TIP3    H257149   3.812   5.153   4.751  1.1257 -0.3560  0.0575
11912TIP3   OH257150   0.563   4.701  11.346  0.1507 -0.1997  0.2287
11912TIP3    H157151   0.575   4.606  11.342 -3.4960 -0.6781 -1.3845
11912TIP3    H257152   0.484   4.713  11.398  1.1813  2.0806  1.3613
11913TIP3   OH257153   4.015   5.046   3.211  0.2065 -0.0492  0.3048
11913TIP3    H157154   3.966   4.983   3.158  1.5934 -2.4200  1.7548
11913TIP3    H257155   3.955   5.068   3.282  0.2359 -0.8637  0.5911
11914TIP3   OH257156   0.256   3.845   4.802  0.5302  0.2817  0.1938
11914TIP3    H157157   0.335   3.868   4.754  1.0168  1.2382  1.4442
11914TIP3    H257158   0.269   3.881   4.890 -0.4707 -1.1895  0.9720
11915TIP3   OH257159   3.649   1.018  14.206 -0.2591 -0.0299 -0.3572
11915TIP3    H157160   3.642   1.112  14.192 -1.6593 -0.4617 -2.7585
11915TIP3    H257161   3.652   0.981  14.118  0.0708 -2.2528  0.5688
11916TIP3   OH257162   2.878   0.981  10.398 -0.0031 -0.0766 -0.2056
11916TIP3    H157163   2.902   0.889  10.403  0.0432 -0.0677 -0.2686
11916TIP3    H257164   2.955   1.028  10.428 -0.0360 -0.0596 -0.1473
11917TIP3   OH257165   0.886   5.714  11.749  0.3254 -0.3778 -0.2198
11917TIP3    H157166   0.915   5.623  11.738  0.8505 -0.2703  0.2541
11917TIP3    H257167   0.792   5.707  11.767  0.6420 -0.9167  1.2553
11918TIP3   OH257168   6.083   2.795   1.775  0.1869  0.2087  0.2384
11918TIP3    H157169   6.143   2.869   1.781 -1.1924  1.5283 -1.5081
11918TIP3    H257170   6.135   2.724   1.737  0.9750  0.9592 -0.0891
11919TIP3   OH257171   6.452   0.400   1.746  0.0236  0.2871 -0.1728
11919TIP3    H157172   6.460   0.375   1.654 -0.0892  1.0117 -0.3770
11919TIP3    H257173   6.469   0.494   1.748 -1.4673  0.5484  0.3512
11920TIP3   OH257174   6.291   4.105  14.333 -0.0880 -0.0928 -0.5644
11920TIP3    H157175   6.286   4.042  14.261 -1.7046 -0.3659 -0.2429
11920TIP3    H257176   6.362   4.163  14.309 -1.4447  0.6162 -3.0506
11921TIP3   OH257177   5.729   1.070  12.659  0.6159  0.5891  0.0396
11921TIP3    H157178   5.773   1.124  12.725  1.6763 -1.4553  1.0289
11921TIP3    H257179   5.701   0.992  12.706 -1.9080  0.7352 -1.1437
11922TIP3   OH257180   6.016   4.363   3.823  0.1867  0.7496 -0.3986
11922TIP3    H157181   5.981   4.424   3.759 -0.4872 -0.9590 -1.7132
11922TIP3    H257182   5.944   4.300   3.837  1.2000 -0.3058  0.1438
11923TIP3   OH257183   4.815   2.131  12.572 -0.3901 -0.1448 -0.2392
11923TIP3    H157184   4.721   2.146  12.580 -0.4025  0.2563 -1.1183
11923TIP3    H257185   4.823   2.062  12.506 -0.0064  0.7616 -1.1527
11924TIP3   OH257186   2.162   2.178  13.631  0.0783 -0.4407  0.4359
11924TIP3    H157187   2.103   2.234  13.680 -2.2880 -1.2361 -1.4432
11924TIP3    H257188   2.162   2.095  13.680 -1.1837 -0.7729 -0.1071
11925TIP3   OH257189   2.794   1.823  11.154 -0.5841  0.1310 -0.6009
11925TIP3    H157190   2.806   1.818  11.059 -1.7311 -1.1109 -0.6946
11925TIP3    H257191   2.872   1.781  11.190 -0.8531 -0.7292 -1.0201
11926TIP3   OH257192   0.328   4.578  14.148 -0.3630 -0.2022 -0.1639
11926TIP3    H157193   0.302   4.494  14.111  0.0651 -0.4130  0.0235
11926TIP3    H257194   0.315   4.640  14.076 -2.1512 -0.1686  0.1466
11927TIP3   OH257195   2.936   4.343   5.346  0.9784  0.1552  0.3609
11927TIP3    H157196   2.841   4.354   5.346  1.1001  1.6051 -1.9398
11927TIP3    H257197   2.950   4.249   5.356 -0.6703  0.0183  1.4655
11928TIP3   OH257198   0.668   6.412   4.598 -0.1188  0.0991 -0.3621
11928TIP3    H157199   0.700   6.332   4.558 -0.3513 -0.3935  0.4112
11928TIP3    H257200   0.672   6.394   4.692 -2.0449  0.2435 -0.2243
11929TIP3   OH257201   2.466   6.670   3.785  0.2277 -0.2408 -0.5817
11929TIP3    H157202   2.541   6.728   3.794  0.1065  0.0007 -1.1172
11929TIP3    H257203   2.502   6.590   3.746  0.1245  0.0531 -1.2820
11930TIP3   OH257204   6.664   4.136  11.517 -0.7215  0.3058  0.0144
11930TIP3    H157205   6.601   4.065  11.519 -0.2872 -0.0750  0.2951
11930TIP3    H257206   6.737   4.103  11.464 -0.7433  0.7306 -0.2873
11931TIP3   OH257207   6.617   3.855   0.463 -0.8380  0.0816 -0.5326
11931TIP3    H157208   6.522   3.843   0.458 -0.7213 -1.6436  0.9487
11931TIP3    H257209   6.653   3.776   0.422 -0.0440  0.1215  0.0782
11932TIP3   OH257210   0.078   5.132   5.887  0.1165 -0.4904  0.2331
11932TIP3    H157211   0.089   5.063   5.821 -0.8019 -0.6744  0.2596
11932TIP3    H257212   0.165   5.171   5.896  1.3242 -3.5539  2.3508
11933TIP3   OH257213   5.015   4.694  15.099  0.2293 -0.4050  0.3735
11933TIP3    H157214   4.945   4.698  15.164  1.5369 -2.9771  2.0629
11933TIP3    H257215   4.992   4.620  15.043 -0.5054  1.3358 -1.6829
11934TIP3   OH257216   2.854   1.209  13.465 -0.4500  0.1058 -0.0134
11934TIP3    H157217   2.873   1.288  13.515  0.3650 -1.4671  2.2219
11934TIP3    H257218   2.885   1.229  13.377  4.0874  0.6426  1.5768
11935TIP3   OH257219   2.273   4.100   5.794  0.5537 -0.1512  0.2900
11935TIP3    H157220   2.322   4.092   5.876  2.3713  0.5471 -0.6969
11935TIP3    H257221   2.290   4.019   5.747 -0.3682 -0.4909  0.5443
11936TIP3   OH257222   5.770   2.237   3.997 -0.4978 -0.1483  0.2659
11936TIP3    H157223   5.799   2.303   4.060 -1.7398 -0.0531  0.7536
11936TIP3    H257224   5.680   2.216   4.024 -1.5305  0.8528 -2.2417
11937TIP3   OH257225   0.686   6.359   3.297  0.5393 -0.0007  0.4069
11937TIP3    H157226   0.678   6.309   3.216 -0.7204  2.1135 -0.8125
11937TIP3    H257227   0.746   6.307   3.352  2.2069 -0.9440 -2.2364
11938TIP3   OH257228   5.705   4.256   4.299  0.1688  0.2105 -0.2445
11938TIP3    H157229   5.693   4.343   4.262 -2.0002  1.2504  2.7207
11938TIP3    H257230   5.626   4.208   4.274  0.0754 -0.0145  0.4696
11939TIP3   OH257231   0.724   4.209  16.139 -0.0737 -0.4467 -0.1080
11939TIP3    H157232   0.727   4.183  16.047 -1.0754  0.3177 -0.3560
11939TIP3    H257233   0.729   4.304  16.138 -0.3620 -0.4175  0.6169
11940TIP3   OH257234   0.664   5.121  13.228  0.4178 -0.4016 -0.7955
11940TIP3    H157235   0.746   5.071  13.229  1.6346  1.5214 -0.7941
11940TIP3    H257236   0.687   5.202  13.181 -1.0329  0.8894  0.6899
11941TIP3   OH257237   1.604   2.228  13.804 -0.5396  0.3070  0.1066
11941TIP3    H157238   1.582   2.305  13.855  2.6871  1.9039 -0.7538
11941TIP3    H257239   1.581   2.252  13.714  0.4429  0.2995 -0.1570
11942TIP3   OH257240   2.261   1.036   5.840  0.5600  0.0819  0.2799
11942TIP3    H157241   2.248   1.066   5.930  1.4290  0.3897  0.3115
11942TIP3    H257242   2.343   1.079   5.812  0.1854  0.1591 -0.7245
11943TIP3   OH257243   2.457   2.162  15.925 -0.4108  0.1328 -0.4084
11943TIP3    H157244   2.451   2.098  15.854 -1.3391  0.3834 -0.5571
11943TIP3    H257245   2.497   2.239  15.884 -0.8374  0.2363 -0.6298
11944TIP3   OH257246   3.870   2.296  15.137 -0.0376  0.2291 -0.6703
11944TIP3    H157247   3.867   2.204  15.112  2.2863  0.7943 -3.2088
11944TIP3    H257248   3.826   2.342  15.066  1.1446  1.2966 -0.7283
11945TIP3   OH257249   4.322   1.686  11.630  0.2678  0.9162 -0.5251
11945TIP3    H157250   4.329   1.778  11.655 -1.3142  0.8277  0.3266
11945TIP3    H257251   4.247   1.683  11.570  0.8335  0.3110 -1.2034
11946TIP3   OH257252   5.104   3.135   4.523  0.1768 -0.2966  0.7877
11946TIP3    H157253   5.089   3.217   4.570 -0.1257  0.5604 -0.7750
11946TIP3    H257254   5.158   3.160   4.449 -0.0505 -1.4961  0.2072
11947TIP3   OH257255   3.289   3.277   1.928 -0.0915 -0.6594  0.6089
11947TIP3    H157256   3.314   3.358   1.883 -1.5793 -0.7945 -0.4792
11947TIP3    H257257   3.356   3.267   1.996  0.4033  1.2093  0.4472
11948TIP3   OH257258   0.168   5.339  12.909  0.1893 -0.0688  0.0921
11948TIP3    H157259   0.219   5.399  12.963  1.9825 -0.7025 -0.8595
11948TIP3    H257260   0.223   5.261  12.901 -1.7743 -1.5572  0.6606
11949TIP3   OH257261   1.464   6.548  13.712 -0.0923  0.5380 -0.5067
11949TIP3    H157262   1.468   6.580  13.801 -2.0181 -0.3282 -0.0935
11949TIP3    H257263   1.379   6.504  13.705  0.5971 -0.6001 -2.3368
11950TIP3   OH257264   4.345   0.693   4.498  0.1100 -0.1792  0.5357
11950TIP3    H157265   4.359   0.706   4.404 -0.2447  0.2896  0.5460
11950TIP3    H257266   4.371   0.776   4.538  0.1602 -0.3405  0.8466
11951TIP3   OH257267   0.647   2.019   4.547  0.4873 -0.0607  0.1149
11951TIP3    H157268   0.619   1.991   4.460 -0.4672 -0.3154  0.4976
11951TIP3    H257269   0.729   1.971   4.562  0.5383 -0.1918 -0.5451
11952TIP3   OH257270   0.486   0.008  17.078 -0.1802 -0.2930  0.0636
11952TIP3    H157271   0.425  -0.024  17.144  0.6524 -0.2839  0.8462
11952TIP3    H257272   0.450   0.093  17.052  0.9412  1.0015  2.5419
11953TIP3   OH257273   3.679   6.578   5.596  0.3513  0.2331  0.8132
11953TIP3    H157274   3.711   6.636   5.527 -0.1573 -0.0088  0.3683
11953TIP3    H257275   3.757   6.552   5.644  0.9252 -0.9818 -0.7454
11954TIP3   OH257276   1.457   2.011  16.454  0.0478 -0.5109 -0.3772
11954TIP3    H157277   1.361   2.017  16.458  0.0712 -0.6075  0.3967
11954TIP3    H257278   1.483   2.086  16.401 -0.5054 -0.9442 -1.2878
11955TIP3   OH257279   5.946   3.515   1.353 -0.0273 -0.4325 -0.0240
11955TIP3    H157280   5.946   3.595   1.301  0.0825 -0.7926 -0.5887
11955TIP3    H257281   5.855   3.485   1.351 -0.4811  0.7895  1.9338
11956TIP3   OH257282   4.471   0.277  13.984  0.9430  0.2168 -0.6351
11956TIP3    H157283   4.542   0.332  13.953  0.7380  1.2368  0.6639
11956TIP3    H257284   4.428   0.246  13.904  1.0996  1.8919 -1.3912
11957TIP3   OH257285   5.579   5.578   5.992  0.3060 -0.7622 -0.0170
11957TIP3    H157286   5.602   5.519   6.064  2.4698  1.4967  1.2138
11957TIP3    H257287   5.580   5.665   6.030 -0.1547  0.3307 -2.4056
11958TIP3   OH257288   3.409   4.491  13.712 -0.1091 -0.1713 -0.0937
11958TIP3    H157289   3.345   4.424  13.735  1.0430 -1.5084 -0.7401
11958TIP3    H257290   3.477   4.484  13.778 -0.2187  0.7029  0.1229
11959TIP3   OH257291   6.513   6.757   1.931 -0.4090 -0.3724 -0.1591
11959TIP3    H157292   6.567   6.682   1.909  0.0130  0.2304 -1.2537
11959TIP3    H257293   6.567   6.833   1.907 -1.3028  0.2518 -0.2105
11960TIP3   OH257294   3.995   1.845  14.176 -0.2020  0.0576 -0.2143
11960TIP3    H157295   4.043   1.853  14.258 -3.0814 -0.5900  1.5656
11960TIP3    H257296   4.011   1.754  14.148  0.6280  0.2249 -0.3149
11961TIP3   OH257297   4.586   2.644  11.251  0.2528  0.6208 -0.4273
11961TIP3    H157298   4.640   2.722  11.267  0.1259  0.2713  1.8430
11961TIP3    H257299   4.526   2.641  11.325 -0.1691 -1.2978 -0.8305
11962TIP3   OH257300   2.717   0.127   6.193 -0.2516  0.0304 -0.3697
11962TIP3    H157301   2.628   0.140   6.227 -0.1321  1.2596 -0.5368
11962TIP3    H257302   2.706   0.063   6.122 -0.9492 -0.0751 -0.1755
11963TIP3   OH257303   0.580   5.086   0.658 -0.2310  0.5818  0.0072
11963TIP3    H157304   0.511   5.152   0.648  0.4333  1.1748 -0.7396
11963TIP3    H257305   0.630   5.092   0.577 -0.3199 -1.0307 -0.1806
11964TIP3   OH257306   3.804   3.756   5.327  0.4774 -0.2194  0.0370
11964TIP3    H157307   3.881   3.706   5.353  0.1197 -1.0503 -0.4949
11964TIP3    H257308   3.737   3.733   5.392 -0.3680 -2.1708 -1.4762
11965TIP3   OH257309   1.880   2.740  12.955  0.0232 -0.1042  0.1769
11965TIP3    H157310   1.788   2.739  12.984  0.1013  1.2974  0.5383
11965TIP3    H257311   1.924   2.681  13.016 -0.0898  1.6548  2.0322
11966TIP3   OH257312   3.636   0.095  13.209  0.2304  0.4628 -0.3963
11966TIP3    H157313   3.694   0.050  13.271  0.6988  0.4591 -0.8298
11966TIP3    H257314   3.689   0.167  13.176  0.4057 -0.2362 -1.6826
11967TIP3   OH257315   3.355   0.626   4.364 -0.1828 -0.1686 -0.3434
11967TIP3    H157316   3.328   0.618   4.455 -0.0226 -1.5960 -0.4107
11967TIP3    H257317   3.304   0.560   4.317 -0.3234  0.6086 -1.3088
11968TIP3   OH257318   0.625   3.357   4.243  0.7598  0.3808 -0.1361
11968TIP3    H157319   0.551   3.400   4.199  1.6936  1.2225 -0.9193
11968TIP3    H257320   0.678   3.322   4.171  1.0593 -0.3386  0.4268
11969TIP3   OH257321   5.676   2.386  13.121 -0.4652  0.2464  0.5447
11969TIP3    H157322   5.640   2.315  13.175 -0.0016 -0.6968 -0.3898
11969TIP3    H257323   5.635   2.465  13.157  0.0678 -0.3330  2.4924
11970TIP3   OH257324   5.426   1.960  11.447  0.1987  0.0742 -0.0779
11970TIP3    H157325   5.468   1.992  11.526  0.6345  1.1676 -0.7463
11970TIP3    H257326   5.337   1.938  11.475 -0.0246  1.6046  0.4534
11971TIP3   OH257327   6.119   4.030   1.918  0.2673  0.7000  0.3440
11971TIP3    H157328   6.075   4.002   1.838  0.3417  0.5116  0.3670
11971TIP3    H257329   6.124   3.950   1.972  0.4080  0.7767  0.4461
11972TIP3   OH257330   2.680   6.661  16.168 -0.2940 -0.1053 -0.2887
11972TIP3    H157331   2.742   6.594  16.197 -2.9922 -1.9377  1.6196
11972TIP3    H257332   2.663   6.641  16.076  1.1761 -0.1922 -0.5414
11973TIP3   OH257333   4.255   1.557   4.376 -0.5907 -0.1124  0.3879
11973TIP3    H157334   4.164   1.559   4.405 -1.0455  1.0224 -1.0846
11973TIP3    H257335   4.275   1.648   4.355  1.2034 -0.1791  1.6452
11974TIP3   OH257336   4.931   1.574   5.153 -0.0078  0.2767 -0.2680
11974TIP3    H157337   4.895   1.487   5.172  1.6631 -0.6249 -1.0526
11974TIP3    H257338   4.907   1.627   5.229 -0.0621 -1.1950  0.7783
11975TIP3   OH257339   1.890   4.281   0.117 -0.2646 -0.0192 -0.7472
11975TIP3    H157340   1.845   4.348   0.169  0.5222 -0.1134  0.0613
11975TIP3    H257341   1.823   4.247   0.058 -1.6071 -1.1227  1.3647
11976TIP3   OH257342   6.482   6.535   4.407  0.5527  0.8014 -0.3116
11976TIP3    H157343   6.567   6.535   4.364  0.8611  2.2998  0.2621
11976TIP3    H257344   6.489   6.466   4.473  0.9410  0.1900 -0.9830
11977TIP3   OH257345   6.279   4.490  11.302 -0.3549  0.1778  0.1043
11977TIP3    H157346   6.300   4.397  11.313  0.5602  0.5185  1.3558
11977TIP3    H257347   6.306   4.510  11.212 -0.1041 -0.6507 -0.0097
11978TIP3   OH257348   0.451   2.340  11.269  0.0351  0.3040  0.2026
11978TIP3    H157349   0.453   2.436  11.267 -0.2542  0.3266 -3.5481
11978TIP3    H257350   0.358   2.318  11.268  0.1067  0.0253 -1.7516
11979TIP3   OH257351   3.395   3.813   2.827 -0.5325  0.3516 -0.3921
11979TIP3    H157352   3.393   3.856   2.912 -2.3224  0.9406 -0.7068
11979TIP3    H257353   3.392   3.719   2.847  2.0445  0.3585  0.2525
11980TIP3   OH257354   2.289   2.487   3.067  0.0934  0.5998 -0.2251
11980TIP3    H157355   2.254   2.512   3.152 -0.8276  0.9159 -0.6869
11980TIP3    H257356   2.324   2.568   3.030 -0.9540  0.7971 -0.8151
11981TIP3   OH257357   0.280   1.589   1.312  0.3598 -0.1101  0.1076
11981TIP3    H157358   0.366   1.546   1.319 -0.6980 -2.4844 -0.8861
11981TIP3    H257359   0.272   1.611   1.220 -0.5212 -0.8293  0.0082
11982TIP3   OH257360   2.802   5.284   1.809 -0.4384  0.0817 -0.6798
11982TIP3    H157361   2.721   5.334   1.802 -1.3316 -0.9624  1.6666
11982TIP3    H257362   2.868   5.338   1.766 -1.5916  2.7713  0.8530
11983TIP3   OH257363   3.736   1.366  11.092 -0.1877 -0.5365  0.2225
11983TIP3    H157364   3.824   1.329  11.084 -0.5352 -1.5177  0.8956
11983TIP3    H257365   3.678   1.301  11.053 -0.6462 -0.0244  0.0365
11984TIP3   OH257366   3.442   2.039   3.485 -0.4673 -0.1671  0.2624
11984TIP3    H157367   3.441   2.070   3.395 -1.1225 -1.4943 -0.2004
11984TIP3    H257368   3.494   2.104   3.533 -1.7152  1.5735 -0.6896
11985TIP3   OH257369   2.665   4.080  16.878 -0.1320 -0.1412  0.6141
11985TIP3    H157370   2.680   4.173  16.894  1.5062 -0.1216 -0.8418
11985TIP3    H257371   2.673   4.070  16.783 -3.5533 -1.2333  0.3630
11986TIP3   OH257372   4.863   4.757  11.020  0.1895  0.2690 -0.6268
11986TIP3    H157373   4.883   4.806  10.940  0.0425  0.9149 -0.2687
11986TIP3    H257374   4.900   4.670  11.004  2.5937  1.1965 -0.2864
11987TIP3   OH257375   5.314   0.033  15.955 -0.1834 -0.2546  0.3588
11987TIP3    H157376   5.266   0.040  15.872 -0.5478 -0.1927  0.5738
11987TIP3    H257377   5.271   0.096  16.013 -0.3893 -0.8149  0.8193
11988TIP3   OH257378   3.079   3.753   0.210 -0.2351 -0.5283  0.0743
11988TIP3    H157379   2.991   3.748   0.173 -1.6829 -0.7204  3.3476
11988TIP3    H257380   3.094   3.847   0.222 -0.5041 -0.5488  0.6071
11989TIP3   OH257381   1.608   5.587   0.270  0.2754 -0.1834  0.0735
11989TIP3    H157382   1.587   5.661   0.214  1.1049  0.3079  0.4069
11989TIP3    H257383   1.652   5.525   0.212 -1.7559 -1.0780 -0.5530
11990TIP3   OH257384   5.063   6.517  13.759 -0.2243 -0.0677  0.0180
11990TIP3    H157385   5.034   6.428  13.743  0.1341 -0.7310  2.8600
11990TIP3    H257386   5.139   6.528  13.703 -1.5166 -0.8058 -1.9306
11991TIP3   OH257387   5.263   5.620  16.567 -0.2898  0.3292  0.3376
11991TIP3    H157388   5.175   5.638  16.600 -0.5797 -0.8888  0.2522
11991TIP3    H257389   5.321   5.666  16.627 -0.8894 -0.6703  1.7090
11992TIP3   OH257390   5.184   1.029  12.294 -0.1578  0.2060  0.1449
11992TIP3    H157391   5.239   1.042  12.217 -0.6710 -0.8006 -0.4090
11992TIP3    H257392   5.127   1.106  12.296  1.5957  1.5238  1.0335
11993TIP3   OH257393   1.312   4.530  15.418 -0.5313  0.0672 -0.5244
11993TIP3    H157394   1.373   4.604  15.416  0.8028 -1.0337 -1.1072
11993TIP3    H257395   1.298   4.508  15.325 -1.8957  0.3520 -0.4071
11994TIP3   OH257396   3.061   2.308   3.270  0.2840 -0.4517  0.0115
11994TIP3    H157397   3.078   2.257   3.191 -1.4511 -1.6511  0.3604
11994TIP3    H257398   3.068   2.244   3.341 -1.2790 -0.1067  0.5080
11995TIP3   OH257399   6.762   2.414   6.160  0.2581  0.4248 -0.1540
11995TIP3    H157400   6.809   2.498   6.159 -0.8059  1.0397 -0.7699
11995TIP3    H257401   6.743   2.398   6.252 -2.0148  2.3230 -0.2504
11996TIP3   OH257402   1.668   3.517  10.781  0.3146 -0.5032  0.4467
11996TIP3    H157403   1.750   3.469  10.773 -0.1052 -1.2216  0.4591
11996TIP3    H257404   1.695   3.607  10.801  1.0608 -1.1154  2.2856
11997TIP3   OH257405   3.208   0.783   0.610  0.1638  0.3422 -0.2121
11997TIP3    H157406   3.134   0.810   0.665  0.2044 -1.7798  0.9373
11997TIP3    H257407   3.215   0.852   0.544 -3.0544  0.4026 -0.5726
11998TIP3   OH257408   0.283   3.989  16.242  0.3914  0.2012 -0.8642
11998TIP3    H157409   0.372   4.021  16.233  1.0623 -0.9402  1.2684
11998TIP3    H257410   0.291   3.894  16.237 -0.6465  0.0726 -0.3123
11999TIP3   OH257411   3.634   0.800  13.900  0.0058  0.1967  0.0091
11999TIP3    H157412   3.564   0.841  13.849  0.3788  0.8580  0.0258
11999TIP3    H257413   3.635   0.709  13.871 -0.4397  0.3386 -0.4498
12000TIP3   OH257414   5.631   4.924  15.497  0.5364 -0.7691  0.0117
12000TIP3    H157415   5.543   4.960  15.507  0.7000 -0.1041 -0.9443
12000TIP3    H257416   5.678   4.954  15.575  0.8778  1.6932 -1.1193
12001TIP3   OH257417   0.808   6.460   3.711 -0.1157 -0.0572  0.1452
12001TIP3    H157418   0.769   6.532   3.759  0.6794  1.3342 -1.2534
12001TIP3    H257419   0.902   6.467   3.729 -0.2093 -1.8695  1.4783
12002TIP3   OH257420   4.975   4.154  12.703 -0.5427  0.7201  0.0786
12002TIP3    H157421   5.006   4.088  12.641 -0.3663 -0.2770  1.2214
12002TIP3    H257422   5.054   4.180  12.751 -0.4354  2.4371 -0.9678
12003TIP3   OH257423   1.838   4.247  11.924 -0.3167 -0.3411 -0.1309
12003TIP3    H157424   1.817   4.313  11.859 -0.0327 -0.0626  0.0590
12003TIP3    H257425   1.875   4.174  11.874  0.2621  0.0238 -0.2468
12004TIP3   OH257426   2.676   2.725   3.690  0.0355  0.3497 -0.1627
12004TIP3    H157427   2.760   2.688   3.662  0.3200  1.5440 -0.9273
12004TIP3    H257428   2.681   2.817   3.664 -0.9053  0.7885  1.1534
12005TIP3   OH257429   1.614   5.997  15.829 -0.1058  0.1309 -0.5858
12005TIP3    H157430   1.680   6.057  15.865 -0.2907 -0.5496  0.9665
12005TIP3    H257431   1.569   5.963  15.907 -2.8767  1.2431 -1.6670
12006TIP3   OH257432   4.936   1.439  15.683  0.0006  0.2050 -0.0242
12006TIP3    H157433   5.001   1.445  15.753  0.6951 -1.1271 -0.5365
12006TIP3    H257434   4.886   1.360  15.702 -0.7977  0.6565 -0.2074
12007TIP3   OH257435   1.333   1.177   0.558  0.7728  0.2928 -0.0563
12007TIP3    H157436   1.278   1.189   0.636  1.8967  1.0907  0.6231
12007TIP3    H257437   1.420   1.159   0.593  0.9939 -0.7609 -1.1323
12008TIP3   OH257438   1.079   5.617   2.687 -0.0051 -0.3154  0.2191
12008TIP3    H157439   1.063   5.691   2.628 -0.5127  1.1509  2.1450
12008TIP3    H257440   0.995   5.604   2.731  0.9006 -0.1611  1.9930
12009TIP3   OH257441   6.552   2.747   5.194  0.2945 -0.1604  0.5024
12009TIP3    H157442   6.633   2.700   5.176 -0.1619 -0.6991 -0.1493
12009TIP3    H257443   6.516   2.703   5.272 -0.1450 -0.9207 -0.1201
12010TIP3   OH257444   4.907   5.659  13.307  0.0833 -0.2730  0.7106
12010TIP3    H157445   4.934   5.747  13.278 -1.5399  0.2933  0.8866
12010TIP3    H257446   4.812   5.659  13.298 -0.1687 -1.1454  3.1560
12011TIP3   OH257447   0.282   3.685   0.827  0.5818  0.2392  0.0879
12011TIP3    H157448   0.243   3.751   0.771  1.1552 -1.9323 -2.9774
12011TIP3    H257449   0.214   3.664   0.891 -0.9556  1.0756 -1.2435
12012TIP3   OH257450   3.103   0.558   2.542 -0.1974  0.7184  0.1726
12012TIP3    H157451   3.154   0.560   2.462  1.0841 -0.7788  0.9373
12012TIP3    H257452   3.015   0.585   2.515  0.1680  0.0370 -1.7667
12013TIP3   OH257453   5.999   1.978   1.376  0.4490 -0.8758  0.1809
12013TIP3    H157454   5.945   1.910   1.416 -0.1411 -0.5238 -0.0012
12013TIP3    H257455   6.009   1.950   1.285  0.8670 -1.1203  0.3036
12014TIP3   OH257456   2.890   6.157  11.514 -0.1536 -0.1174  0.2450
12014TIP3    H157457   2.898   6.124  11.425  1.2205 -2.6913  1.2979
12014TIP3    H257458   2.796   6.173  11.525 -0.2900  0.6090 -1.7721
12015TIP3   OH257459   5.866   0.302  15.285 -0.2580 -0.2168 -0.4808
12015TIP3    H157460   5.773   0.282  15.291  0.0918 -1.6103  0.6934
12015TIP3    H257461   5.899   0.240  15.220 -0.5196  1.7203 -2.4964
12016TIP3   OH257462   0.676   4.671   0.204 -0.0805 -0.1264  0.0980
12016TIP3    H157463   0.648   4.741   0.263 -1.1099 -0.9404  0.5797
12016TIP3    H257464   0.714   4.605   0.261 -2.2257 -1.4777 -0.0109
12017TIP3   OH257465   6.519   1.048  12.403  0.2663  0.2949  0.3730
12017TIP3    H157466   6.569   0.967  12.393  0.5700  0.5319 -0.0203
12017TIP3    H257467   6.454   1.044  12.334  0.4096  0.4837  0.2284
12018TIP3   OH257468   0.536   3.256   3.988 -0.1404 -0.2136 -0.3567
12018TIP3    H157469   0.572   3.173   3.956  1.5070 -0.0361  0.9684
12018TIP3    H257470   0.472   3.230   4.055 -0.4618 -0.4502 -0.7568
12019TIP3   OH257471   2.718   2.003  13.571 -0.5206  0.0410 -0.1589
12019TIP3    H157472   2.720   2.098  13.583 -0.6173  0.1305 -0.8531
12019TIP3    H257473   2.661   1.972  13.642 -0.6234  0.5113 -0.0282
12020TIP3   OH257474   6.439   0.124   2.627 -0.0578  0.4004  0.1193
12020TIP3    H157475   6.380   0.173   2.684 -0.2213  0.7394 -0.3422
12020TIP3    H257476   6.382   0.067   2.576  0.0792  0.1812  0.2105
12021TIP3   OH257477   4.213   1.074  16.172 -0.1766 -0.1264 -0.0663
12021TIP3    H157478   4.191   1.012  16.102 -0.3116  1.3044 -1.3289
12021TIP3    H257479   4.296   1.042  16.207 -0.8287 -1.6780  0.1042
12022TIP3   OH257480   6.508   4.944   3.111  0.5333  0.1217  0.0539
12022TIP3    H157481   6.504   4.860   3.065 -1.4666  0.1871  0.0334
12022TIP3    H257482   6.580   4.935   3.173  1.0350 -1.2110 -0.7159
12023TIP3   OH257483   2.944   1.561  15.817  0.2495  0.1063 -0.1954
12023TIP3    H157484   2.880   1.563  15.746 -0.0648 -0.2527  0.0735
12023TIP3    H257485   2.964   1.653  15.833  0.3855  0.1860 -0.8038
12024TIP3   OH257486   1.252   3.795   4.698 -0.3307 -0.0917  0.1115
12024TIP3    H157487   1.291   3.718   4.658 -0.9637 -1.5021  2.0968
12024TIP3    H257488   1.314   3.866   4.680  0.2701 -1.0634 -1.7127
12025TIP3   OH257489   5.606   1.256  14.010 -0.0583  0.5218 -0.4741
12025TIP3    H157490   5.673   1.262  14.078  0.9952  0.0412 -1.4429
12025TIP3    H257491   5.613   1.166  13.977 -0.9097  0.5893 -0.8663
12026TIP3   OH257492   2.343   2.481   4.072 -0.0657 -0.3752 -0.1830
12026TIP3    H157493   2.313   2.502   4.161  0.0271  1.4820 -0.5555
12026TIP3    H257494   2.437   2.501   4.074 -0.3980  1.3901 -1.1559
12027TIP3   OH257495   6.194   3.577   4.022 -0.6741  0.0076  0.4321
12027TIP3    H157496   6.218   3.494   3.981  0.0851 -0.3815  1.6131
12027TIP3    H257497   6.172   3.554   4.112  2.9178  1.4609  1.8143
12028TIP3   OH257498   3.296   4.801  17.017 -0.1253 -0.3262  0.5208
12028TIP3    H157499   3.226   4.864  16.999  0.3009 -0.5604 -2.2858
12028TIP3    H257500   3.287   4.780  17.110 -2.0631  1.6953  0.8295
12029TIP3   OH257501   5.180   5.956  13.620 -0.1552  0.0716 -0.0786
12029TIP3    H157502   5.207   6.019  13.686  1.4706 -1.5959  0.9211
12029TIP3    H257503   5.114   5.902  13.663 -0.6271  0.2940 -0.5178
12030TIP3   OH257504   1.270   2.934  11.940  0.1635  0.8149 -0.1000
12030TIP3    H157505   1.257   2.902  11.850 -4.9159  0.8467  0.5032
12030TIP3    H257506   1.246   3.026  11.935  1.2103  1.1644  1.0929
12031TIP3   OH257507   4.093   3.056  11.895 -0.0965  0.1204  0.3776
12031TIP3    H157508   4.081   3.092  11.807 -0.1914  0.8535  0.6871
12031TIP3    H257509   4.154   3.116  11.937  0.3855 -0.5442  0.6296
12032TIP3   OH257510   5.549   5.819  16.514  0.1244  0.2446 -0.6773
12032TIP3    H157511   5.581   5.908  16.529 -0.8152  0.4254  0.2952
12032TIP3    H257512   5.626   5.764  16.520  0.9349  1.1239 -2.5446
12033TIP3   OH257513   1.526   0.555  10.753 -0.2055 -0.1929 -0.1351
12033TIP3    H157514   1.617   0.572  10.730  0.6779 -1.3720  2.3482
12033TIP3    H257515   1.491   0.506  10.678  1.2346  0.1575 -1.0487
12034TIP3   OH257516   1.251   1.305  16.284  0.2763  0.5554  0.0196
12034TIP3    H157517   1.323   1.289  16.222  0.3475  0.3018  0.1669
12034TIP3    H257518   1.222   1.394  16.264  0.2318  0.4378 -0.4475
12035TIP3   OH257519   0.285   1.214   1.060 -0.4885  0.1084 -0.1349
12035TIP3    H157520   0.195   1.183   1.051 -0.5570 -0.0688  1.0270
12035TIP3    H257521   0.312   1.183   1.147  0.5656  0.4709 -0.3272
12036TIP3   OH257522   1.317   1.099   1.838  0.2831 -0.0151 -0.3415
12036TIP3    H157523   1.263   1.097   1.760 -0.5333 -0.8826  0.2383
12036TIP3    H257524   1.362   1.015   1.839  1.1786  0.4553 -0.4890
12037TIP3   OH257525   3.275   1.483   3.639 -0.1180  0.5362 -0.2299
12037TIP3    H157526   3.328   1.455   3.714 -2.1940 -2.4860  0.1873
12037TIP3    H257527   3.329   1.460   3.563  0.1321 -0.4012  0.2260
12038TIP3   OH257528   3.007   0.510  11.821  0.1467 -0.1513  0.4001
12038TIP3    H157529   3.081   0.567  11.841 -2.3521  3.3686  0.1045
12038TIP3    H257530   2.938   0.539  11.880 -1.9925 -1.2294 -1.4828
12039TIP3   OH257531   0.762   6.528   2.684 -0.4056  0.0105  0.0953
12039TIP3    H157532   0.746   6.436   2.663  2.5371 -0.9121  1.5782
12039TIP3    H257533   0.804   6.564   2.607 -1.3759  0.0680 -0.4112
12040TIP3   OH257534   3.726   3.168  15.709  0.4657  0.0471 -0.1663
12040TIP3    H157535   3.658   3.199  15.650  1.6253 -0.3730 -1.7529
12040TIP3    H257536   3.733   3.235  15.776 -1.4829  0.1092  0.0024
12041TIP3   OH257537   4.734   1.228  12.181  0.7687 -0.5154  0.4325
12041TIP3    H157538   4.746   1.259  12.271 -3.2836 -1.7701  1.5083
12041TIP3    H257539   4.681   1.296  12.139  0.8495 -0.9431 -0.3575
12042TIP3   OH257540   3.859   6.346  14.058 -0.5905  0.6062 -0.0715
12042TIP3    H157541   3.862   6.288  14.134 -0.6978  1.6109  0.7011
12042TIP3    H257542   3.925   6.413  14.076 -0.0537  0.4135 -1.2314
12043TIP3   OH257543   3.827   2.622   1.605 -0.4423  0.2089  0.2489
12043TIP3    H157544   3.804   2.677   1.530 -0.7572  1.2632  1.1042
12043TIP3    H257545   3.743   2.602   1.646 -0.1708  0.5929  0.9859
12044TIP3   OH257546   2.011   6.230   0.556 -0.4724  0.0052 -0.0683
12044TIP3    H157547   1.954   6.234   0.633 -0.5731  2.2642 -0.2095
12044TIP3    H257548   2.100   6.233   0.592 -0.5167  0.8168 -0.0109
12045TIP3   OH257549   3.204   5.238  15.106 -0.0006  0.8364  0.4461
12045TIP3    H157550   3.206   5.332  15.085  2.2349  0.7670  0.2289
12045TIP3    H257551   3.296   5.216  15.122 -0.5065 -1.3474  0.3814
12046TIP3   OH257552   1.523   6.200  13.786  0.2031 -0.9106 -0.3964
12046TIP3    H157553   1.448   6.198  13.845  1.5746 -2.7833  1.3683
12046TIP3    H257554   1.487   6.176  13.701 -1.7651  1.5816 -0.3494
12047TIP3   OH257555   5.943   3.693  13.509 -0.2832 -0.2205  0.0312
12047TIP3    H157556   5.982   3.766  13.557 -1.6677  0.4799  0.1273
12047TIP3    H257557   5.976   3.704  13.419 -1.1583  1.0595 -0.1586
12048TIP3   OH257558   0.484   0.124  16.404  0.0105 -0.2887 -0.1239
12048TIP3    H157559   0.461   0.080  16.486  0.2448 -0.6744 -0.2639
12048TIP3    H257560   0.401   0.131  16.357  0.0676 -1.1294 -0.3598
12049TIP3   OH257561   2.076   5.038   1.483  0.4160  0.9879 -0.3618
12049TIP3    H157562   2.033   5.090   1.551 -1.1920  0.0451 -0.6298
12049TIP3    H257563   2.141   4.987   1.530  1.1937  2.3467  0.0689
12050TIP3   OH257564   0.786   1.677  14.667  0.0434 -0.3353  0.2676
12050TIP3    H157565   0.701   1.720  14.655  0.4284  0.0608 -1.1597
12050TIP3    H257566   0.849   1.737  14.627  0.6682 -1.8933 -1.1694
12051TIP3   OH257567   4.105   4.526   4.598 -0.0258 -1.1235 -0.4097
12051TIP3    H157568   4.161   4.510   4.674  1.9731 -2.3806 -2.0799
12051TIP3    H257569   4.023   4.482   4.619  0.3789 -1.1161  1.1897
12052TIP3   OH257570   0.456   5.478   5.698  0.0224  0.6488  1.0421
12052TIP3    H157571   0.512   5.405   5.671 -0.3216 -0.6080  3.6194
12052TIP3    H257572   0.478   5.548   5.636  0.5287 -1.5158 -1.3426
12053TIP3   OH257573   5.552   2.478   1.874  0.1840  0.3285 -0.6121
12053TIP3    H157574   5.535   2.565   1.838 -0.4699  0.2723 -0.4578
12053TIP3    H257575   5.539   2.419   1.800 -1.6410  0.1700 -0.1949
12054TIP3   OH257576   3.289   1.370   4.084  0.2793  0.0865  0.1658
12054TIP3    H157577   3.286   1.464   4.097 -0.7164  0.0160  0.5061
12054TIP3    H257578   3.278   1.332   4.171 -1.9756 -0.3427 -0.2599
12055TIP3   OH257579   1.815   5.387   1.785 -0.1515 -0.9865 -0.4415
12055TIP3    H157580   1.883   5.427   1.731  1.8824 -0.8309  2.1382
12055TIP3    H257581   1.828   5.293   1.774 -0.0126 -0.9547 -0.5477
12056TIP3   OH257582   0.457   4.370   1.982 -0.5581 -0.5150  0.2028
12056TIP3    H157583   0.395   4.304   2.013 -3.0866  1.6596 -0.0488
12056TIP3    H257584   0.491   4.411   2.061 -0.7080 -0.5915  0.3068
12057TIP3   OH257585   1.994   2.289  16.534 -0.1015  0.0120 -0.1914
12057TIP3    H157586   1.914   2.239  16.552  0.5353 -0.4748  1.3385
12057TIP3    H257587   2.015   2.331  16.618  0.4793  1.2576 -0.9512
12058TIP3   OH257588   5.976   4.576  12.519 -0.4555  0.1031  0.6020
12058TIP3    H157589   5.900   4.528  12.551  0.8925 -2.3934  0.1449
12058TIP3    H257590   6.006   4.526  12.443  0.8591  1.8010 -0.0299
12059TIP3   OH257591   5.783   2.520  15.596 -0.1511  0.4570 -0.0511
12059TIP3    H157592   5.849   2.588  15.586  1.8434 -1.2400  1.2172
12059TIP3    H257593   5.785   2.498  15.689 -2.8256  0.6562  0.0981
12060TIP3   OH257594   2.759   2.278   2.513 -0.7951 -0.6303 -0.1224
12060TIP3    H157595   2.764   2.306   2.604 -1.4591 -0.5039 -0.1231
12060TIP3    H257596   2.781   2.185   2.516  2.3453  0.0714 -0.2394
12061TIP3   OH257597   5.224   2.453  11.501  0.3880 -0.1223  0.0568
12061TIP3    H157598   5.242   2.381  11.562 -0.3173 -0.4252 -0.0886
12061TIP3    H257599   5.307   2.500  11.495  0.9203 -1.0640 -0.0295
12062TIP3   OH257600   2.008   4.951  17.061  0.8415  0.2402 -0.1418
12062TIP3    H157601   1.987   4.861  17.039  1.6203 -0.2980  1.2542
12062TIP3    H257602   1.940   5.003  17.019  0.0073 -1.0437 -0.3885
12063TIP3   OH257603   3.606   2.375  14.590  0.5591  0.1298 -0.1766
12063TIP3    H157604   3.673   2.363  14.523 -0.7137  0.4393 -1.5124
12063TIP3    H257605   3.543   2.435  14.552 -0.8193 -0.6455  0.8160
12064TIP3   OH257606   3.318   2.889   4.347  0.8153 -0.3466  0.4125
12064TIP3    H157607   3.361   2.820   4.297  3.0437  1.2399  0.0960
12064TIP3    H257608   3.361   2.970   4.319 -1.8210  1.2034  0.7016
12065TIP3   OH257609   3.315   1.756  13.391  0.1176  0.5444 -1.0111
12065TIP3    H157610   3.244   1.692  13.394  0.9884 -0.3667  1.0585
12065TIP3    H257611   3.284   1.829  13.445  1.0535 -0.2162  0.5994
12066TIP3   OH257612   3.994   0.009  16.578 -0.1003 -0.2991  0.0624
12066TIP3    H157613   4.086   0.025  16.598 -0.1317  0.2441 -0.2236
12066TIP3    H257614   3.994  -0.012  16.484 -0.5698  2.2810 -0.5565
12067TIP3   OH257615   2.477   2.413   4.847 -0.0376  0.2531  0.2871
12067TIP3    H157616   2.397   2.434   4.895  0.1364  0.2627  0.5766
12067TIP3    H257617   2.448   2.395   4.758 -0.2941  0.8444  0.2494
12068TIP3   OH257618   4.640   5.094  14.924 -0.2160  0.0183 -0.9879
12068TIP3    H157619   4.546   5.078  14.920 -0.5491  1.9346 -0.8877
12068TIP3    H257620   4.674   5.051  14.845 -0.9328 -2.1277 -0.1642
12069TIP3   OH257621   1.120   5.915  15.449  0.1324 -0.0617 -0.4793
12069TIP3    H157622   1.064   5.933  15.525 -0.1664 -1.1298 -0.4381
12069TIP3    H257623   1.162   5.999  15.430 -1.1514  0.6593 -0.2412
12070TIP3   OH257624   0.667   4.755  11.578  0.1474  0.0428 -0.3505
12070TIP3    H157625   0.630   4.687  11.635  1.3857 -0.2361  0.1322
12070TIP3    H257626   0.629   4.738  11.492  1.3049 -1.9682 -0.5030
12071TIP3   OH257627   1.972   4.773   4.236 -0.3367 -0.4450  0.2550
12071TIP3    H157628   2.055   4.780   4.283 -0.1242 -1.0960 -0.0239
12071TIP3    H257629   1.952   4.863   4.210 -0.0732 -0.1918  0.9285
12072TIP3   OH257630   5.328   5.414   1.226  0.2023  0.4876  0.7670
12072TIP3    H157631   5.303   5.478   1.159 -0.0848  0.4188  0.8097
12072TIP3    H257632   5.343   5.466   1.305  2.9289  0.8817  0.0568
12073TIP3   OH257633   5.494   2.137   3.158 -0.2590  0.7459  0.3988
12073TIP3    H157634   5.468   2.105   3.244 -0.4741 -0.0219  0.0533
12073TIP3    H257635   5.447   2.220   3.148 -1.2607  0.1982  0.4815
12074TIP3   OH257636   5.071   1.927   4.188 -0.0027  0.0474  0.1272
12074TIP3    H157637   5.098   1.938   4.280  0.5970 -1.9475  0.2021
12074TIP3    H257638   5.076   1.833   4.173 -1.0365  0.2755 -1.6877
12075TIP3   OH257639   6.414   5.244   0.807  0.2407 -0.3372 -0.0820
12075TIP3    H157640   6.417   5.337   0.785  0.2030 -0.4410 -0.5190
12075TIP3    H257641   6.452   5.240   0.895 -0.4073  0.1794  0.2297
12076TIP3   OH257642   3.871   2.180   4.502  0.1072 -0.5621  0.0043
12076TIP3    H157643   3.866   2.228   4.585 -2.7287 -2.9807  1.2939
12076TIP3    H257644   3.903   2.093   4.526 -1.6991 -1.6152 -1.2727
12077TIP3   OH257645   3.828   4.270  14.159  0.2905  0.7137  0.0973
12077TIP3    H157646   3.812   4.236  14.071 -0.2118 -0.7875  0.7401
12077TIP3    H257647   3.820   4.193  14.216  1.8158  1.4332  1.3323
12078TIP3   OH257648   5.422   6.099  14.783 -0.3176 -0.2107 -0.1263
12078TIP3    H157649   5.459   6.030  14.839  1.1083  0.9015  0.3348
12078TIP3    H257650   5.328   6.097  14.802 -0.1185 -1.1651  0.8349
12079TIP3   OH257651   1.752   5.744  12.762 -0.3673  0.1199  0.0452
12079TIP3    H157652   1.752   5.732  12.857  0.6681  1.0977  0.1743
12079TIP3    H257653   1.691   5.816  12.747  1.7708  2.0353  0.2660
12080TIP3   OH257654   3.542   4.347  13.081 -0.1074  0.1622 -0.0791
12080TIP3    H157655   3.510   4.435  13.058  0.0141  0.2107 -0.0623
12080TIP3    H257656   3.503   4.289  13.016  2.3895  0.6392 -2.0165
12081TIP3   OH257657   1.674   4.049   3.753  0.7157  0.4629 -0.1456
12081TIP3    H157658   1.740   3.995   3.798  0.8159  1.0659  0.4341
12081TIP3    H257659   1.709   4.059   3.665 -0.0715 -1.7504 -0.7514
12082TIP3   OH257660   2.364   2.324   2.392  0.1349  0.6747  0.4095
12082TIP3    H157661   2.364   2.412   2.356  0.1442  0.1779 -0.8243
12082TIP3    H257662   2.296   2.325   2.459  1.6737  2.2518  2.0248
12083TIP3   OH257663   5.117   5.745  12.049  0.3123  0.1161 -0.0520
12083TIP3    H157664   5.191   5.796  12.017  0.6586  0.5981  1.4755
12083TIP3    H257665   5.138   5.655  12.024  1.2437  0.2950  0.0641
12084TIP3   OH257666   0.089   4.651  16.839 -0.5611  0.1158  0.9189
12084TIP3    H157667   0.116   4.636  16.749 -0.8565  0.6378  0.7441
12084TIP3    H257668   0.114   4.741  16.858  1.9448 -0.8080  2.2346
12085TIP3   OH257669   0.582   2.763  10.871  0.4254 -0.2894  0.0118
12085TIP3    H157670   0.665   2.724  10.845  0.6314 -0.3073  0.6956
12085TIP3    H257671   0.529   2.763  10.791  0.5438 -1.6796 -0.0712
12086TIP3   OH257672   1.439   1.139  15.702 -0.1741  0.2662  0.2590
12086TIP3    H157673   1.460   1.105  15.789 -1.4580 -0.9763  0.1057
12086TIP3    H257674   1.402   1.226  15.718 -1.0310 -0.2302  1.0243
12087TIP3   OH257675   1.102   5.071  12.490  0.1265 -0.0911 -0.5560
12087TIP3    H157676   1.092   4.983  12.528  0.3810  0.6878  1.4132
12087TIP3    H257677   1.029   5.121  12.527 -0.0028  0.5396 -1.6468
12088TIP3   OH257678   0.519   5.086   3.331  0.3091 -0.3781  0.4412
12088TIP3    H157679   0.544   5.066   3.422  1.2351  1.3068  0.5831
12088TIP3    H257680   0.602   5.110   3.289 -0.2859 -0.0766 -0.5627
12089TIP3   OH257681   6.526   2.073   0.887  0.4378 -0.5069 -0.8619
12089TIP3    H157682   6.524   2.087   0.981  2.1883 -0.4171 -0.8270
12089TIP3    H257683   6.468   2.140   0.851  0.6249  0.1597  0.0672
12090TIP3   OH257684   4.151   1.648  13.164 -0.4139 -0.5956  0.3310
12090TIP3    H157685   4.096   1.620  13.090  2.5695 -4.2695 -0.6343
12090TIP3    H257686   4.098   1.633  13.241 -2.4193  0.3097 -0.8271
12091TIP3   OH257687   4.273   0.611  10.887 -0.0818 -0.2851  0.4801
12091TIP3    H157688   4.332   0.684  10.909 -2.2779  1.3404  1.1845
12091TIP3    H257689   4.301   0.583  10.800  1.3693  0.8331  0.5711
12092TIP3   OH257690   2.132   6.534   4.893  0.0453  0.0515  0.0935
12092TIP3    H157691   2.074   6.544   4.969  1.4124 -0.2286  1.2145
12092TIP3    H257692   2.218   6.563   4.926  0.3787  1.2678 -1.7551
12093TIP3   OH257693   0.837   4.894   2.478  0.0557  0.2370 -1.1125
12093TIP3    H157694   0.848   4.818   2.535  1.0671 -0.1082 -1.7662
12093TIP3    H257695   0.772   4.865   2.414 -1.0055  0.5891 -0.2127
12094TIP3   OH257696   4.172   3.980  11.192 -0.3717 -0.0548 -0.2541
12094TIP3    H157697   4.146   4.072  11.192 -1.1073 -0.2606  0.3523
12094TIP3    H257698   4.103   3.935  11.143  1.1053  0.0119 -2.4796
12095TIP3   OH257699   0.203   3.273   5.750 -0.4271  0.1130 -0.2605
12095TIP3    H157700   0.187   3.354   5.702 -0.1169 -0.5527 -1.5080
12095TIP3    H257701   0.211   3.206   5.682  2.7392 -0.3900  0.5254
12096TIP3   OH257702   5.934   0.976   1.538  0.0591 -0.0717  0.2847
12096TIP3    H157703   5.894   1.026   1.609 -0.1969  1.7386 -1.0983
12096TIP3    H257704   6.025   1.005   1.537  0.0447 -0.0474 -0.1657
12097TIP3   OH257705   3.721   1.437   5.926  0.3177  0.0831 -0.3003
12097TIP3    H157706   3.674   1.477   5.999 -1.2346 -0.3626 -1.0340
12097TIP3    H257707   3.652   1.410   5.865  1.6212  1.2797 -2.3633
12098TIP3   OH257708   4.332   0.160  13.720  0.1347 -0.4126  0.3341
12098TIP3    H157709   4.256   0.185  13.773 -0.3713 -0.2986 -0.4311
12098TIP3    H257710   4.305   0.079  13.676  0.3145 -0.1596 -0.2424
12099TIP3   OH257711   5.947   4.538   4.955 -1.2912  0.2491  0.0423
12099TIP3    H157712   5.926   4.528   4.862  1.7053 -0.1380 -0.6456
12099TIP3    H257713   5.946   4.632   4.970  0.0006  0.4117 -0.8447
12100TIP3   OH257714   5.973   3.829   6.311  0.5252 -0.3162 -0.4673
12100TIP3    H157715   5.944   3.872   6.391 -2.9438 -0.1056 -1.7516
12100TIP3    H257716   6.056   3.870   6.290 -0.8767  3.1139  0.4007
12101TIP3   OH257717   5.120   4.687  14.125 -0.0484 -0.3485  0.6534
12101TIP3    H157718   5.135   4.703  14.032 -2.1544  0.3880  0.4116
12101TIP3    H257719   5.094   4.595  14.130  2.2195 -1.0135  0.8125
12102TIP3   OH257720   3.096   1.798  16.733  0.6170 -0.0477 -0.3936
12102TIP3    H157721   3.069   1.709  16.758 -1.4336  1.0826  1.5964
12102TIP3    H257722   3.163   1.785  16.666 -0.2958 -3.0819 -0.7818
12103TIP3   OH257723   4.428   3.383  11.315 -0.1709  0.1996  0.1326
12103TIP3    H157724   4.349   3.435  11.302  0.1357  0.7112  0.3466
12103TIP3    H257725   4.497   3.433  11.273  0.1484  0.0407  0.4685
12104TIP3   OH257726   4.516   4.467   2.585 -0.5172  0.2453  0.1991
12104TIP3    H157727   4.541   4.384   2.626  0.6046 -0.1816 -1.3016
12104TIP3    H257728   4.540   4.534   2.649 -0.4845 -0.5196  1.0013
12105TIP3   OH257729   1.833   3.866   5.799  0.6514 -0.5811  0.0798
12105TIP3    H157730   1.863   3.777   5.780  1.2212 -0.4662  0.4051
12105TIP3    H257731   1.906   3.905   5.847  0.7869  0.3700 -0.8978
12106TIP3   OH257732   5.603   2.798   3.014 -0.3109 -0.7982  0.3329
12106TIP3    H157733   5.626   2.746   3.091  0.1754 -0.5875  0.3352
12106TIP3    H257734   5.572   2.881   3.049  0.1474 -0.6116  0.2937
12107TIP3   OH257735   2.918   1.373   0.552 -0.0780  0.0184 -0.4645
12107TIP3    H157736   2.875   1.425   0.484 -0.6437 -2.1056 -1.7748
12107TIP3    H257737   2.962   1.437   0.608  1.2247  1.7662 -3.3951
12108TIP3   OH257738   2.739   6.521   0.813  0.0969 -0.7428 -1.1817
12108TIP3    H157739   2.680   6.508   0.886  1.7068 -0.5930  0.1753
12108TIP3    H257740   2.741   6.436   0.768  0.4833 -1.3673  0.0057
12109TIP3   OH257741   1.200   4.611   2.794 -0.7780 -0.2140 -0.1271
12109TIP3    H157742   1.249   4.691   2.814 -1.6353 -0.3530  2.7758
12109TIP3    H257743   1.264   4.553   2.753 -0.2061  2.0220 -2.5729
12110TIP3   OH257744   1.255   5.054   2.169  0.1235  0.0390  0.4607
12110TIP3    H157745   1.220   5.143   2.177 -0.5997 -0.1220 -0.7807
12110TIP3    H257746   1.281   5.030   2.258  1.7674  2.0796  0.5647
12111TIP3   OH257747   6.433   0.627  15.948  0.1627 -0.0775 -0.3354
12111TIP3    H157748   6.415   0.578  16.028 -1.0630  1.3846  0.2912
12111TIP3    H257749   6.517   0.670  15.964 -0.2011  0.4084  0.2591
12112TIP3   OH257750   6.685   5.706   3.349 -0.5841 -0.6270 -0.8059
12112TIP3    H157751   6.661   5.783   3.298 -0.3131  0.2613  0.3979
12112TIP3    H257752   6.666   5.632   3.291  0.6645  0.4081 -2.5584
12113TIP3   OH257753   1.347   2.859  14.563  0.1916  0.4576  0.0598
12113TIP3    H157754   1.312   2.883  14.649  2.1447 -1.0799  1.3229
12113TIP3    H257755   1.365   2.943  14.521  1.1668  1.2449  1.9899
12114TIP3   OH257756   6.041   6.515  14.933  0.2410 -0.6923 -0.4956
12114TIP3    H157757   6.007   6.476  15.013  0.4742 -0.2683 -0.1912
12114TIP3    H257758   5.979   6.586  14.913  0.5632 -0.3649 -0.3216
12115TIP3   OH257759   4.182   6.304  15.952  0.4002 -0.6709 -0.7822
12115TIP3    H157760   4.128   6.339  15.881  0.0394 -1.7621 -1.0661
12115TIP3    H257761   4.139   6.222  15.977  1.2861 -0.9817 -0.2345
12116TIP3   OH257762   5.425   2.827   5.474  0.0676 -0.4098 -0.0441
12116TIP3    H157763   5.431   2.761   5.405 -0.0889 -0.1021 -0.3570
12116TIP3    H257764   5.507   2.820   5.522  0.0542 -0.8214 -0.0859
12117TIP3   OH257765   4.747   1.845  12.444 -0.4267  0.4000  0.7149
12117TIP3    H157766   4.826   1.791  12.450 -2.2984 -2.7487 -1.4709
12117TIP3    H257767   4.691   1.814  12.515  0.6996  3.5231  3.0934
12118TIP3   OH257768   6.263   5.976   1.210  0.1379 -0.1500 -0.4164
12118TIP3    H157769   6.232   5.890   1.238  1.5305 -0.6989 -0.4883
12118TIP3    H257770   6.325   6.002   1.278  0.6964  0.2061 -1.0540
12119TIP3   OH257771   6.229   1.524  11.199 -0.0441 -0.7053  0.6287
12119TIP3    H157772   6.279   1.529  11.117  1.7615  2.8742  1.8393
12119TIP3    H257773   6.287   1.477  11.260  0.0980 -0.2504  0.8451
12120TIP3   OH257774   1.104   5.296  12.261  0.0231 -0.2115 -0.2022
12120TIP3    H157775   1.155   5.329  12.188  0.6065  0.2548  0.4110
12120TIP3    H257776   1.166   5.290  12.334 -0.8362  0.5885  0.6143
12121TIP3   OH257777   6.701   0.109   6.135  0.3501 -0.4393  0.4113
12121TIP3    H157778   6.611   0.098   6.104  0.2812 -0.0255  0.4635
12121TIP3    H257779   6.707   0.051   6.211  0.5471 -1.5373 -0.4106
12122TIP3   OH257780   1.425   4.449   6.250 -0.0861 -0.1086  0.2318
12122TIP3    H157781   1.430   4.543   6.236  1.4553 -0.1710  0.3561
12122TIP3    H257782   1.421   4.438   6.345  0.9181 -0.2154  0.2666
12123TIP3   OH257783   1.294   6.086   5.852  0.2404  0.0009 -0.7542
12123TIP3    H157784   1.271   6.144   5.925 -0.0749 -0.3821 -0.5484
12123TIP3    H257785   1.271   5.998   5.883  2.4757 -0.4563 -0.3334
12124TIP3   OH257786   6.308   0.221  10.901  0.3983 -0.2035 -0.4095
12124TIP3    H157787   6.350   0.303  10.928  0.8781 -0.7916  0.6344
12124TIP3    H257788   6.240   0.249  10.839  0.3654  1.0082  0.1550
12125TIP3   OH257789   3.604   5.898   5.541  0.1528 -0.5065  0.4097
12125TIP3    H157790   3.620   5.819   5.490 -0.1033 -1.4285  1.7282
12125TIP3    H257791   3.686   5.947   5.538  0.5941 -1.2556  0.3435
12126TIP3   OH257792   0.743   5.179   5.391  0.1747  0.3818 -0.1029
12126TIP3    H157793   0.688   5.113   5.349 -1.9838  0.0758  3.0302
12126TIP3    H257794   0.716   5.262   5.352 -1.9982  0.1358  0.8201
12127TIP3   OH257795   3.308   2.090   4.705 -0.0770 -0.3061 -0.0751
12127TIP3    H157796   3.251   2.024   4.663 -2.1869 -0.1876  2.4940
12127TIP3    H257797   3.258   2.171   4.699  0.9521  0.3321 -0.0063
12128TIP3   OH257798   2.630   0.817  15.050 -0.3318  0.6151 -0.2012
12128TIP3    H157799   2.566   0.756  15.013 -0.6060  0.6964  0.1365
12128TIP3    H257800   2.611   0.900  15.007  0.5920  0.2724 -1.2895
12129TIP3   OH257801   4.349   4.260   3.339 -0.5485 -0.2705 -0.1647
12129TIP3    H157802   4.315   4.290   3.423  0.7878  1.8380 -0.3411
12129TIP3    H257803   4.371   4.167   3.353 -2.4291 -0.5337  1.1295
12130TIP3   OH257804   3.249   5.438   2.306  0.4438  0.2013  0.1027
12130TIP3    H157805   3.323   5.380   2.324  1.1897  1.2680  0.5800
12130TIP3    H257806   3.271   5.479   2.222  0.3745  0.4861  0.2232
12131TIP3   OH257807   1.367   2.197   2.959  0.1051  0.2768 -0.1153
12131TIP3    H157808   1.436   2.219   2.896 -1.0365  0.9220 -1.1765
12131TIP3    H257809   1.340   2.281   2.995 -0.1787  0.0315  0.2408
12132TIP3   OH257810   2.675   3.506  13.566 -0.2320 -0.2115  0.2533
12132TIP3    H157811   2.617   3.576  13.593 -2.0246 -1.8439  0.7150
12132TIP3    H257812   2.645   3.429  13.614  2.1423 -1.1530  0.3006
12133TIP3   OH257813   4.786   3.694   2.223 -0.0234 -0.1130  0.4730
12133TIP3    H157814   4.713   3.704   2.162 -1.2517 -0.4909  1.8499
12133TIP3    H257815   4.794   3.779   2.266 -0.8645 -0.5953  1.6238
12134TIP3   OH257816   0.680   5.595  11.985 -0.1033  0.2854  0.0141
12134TIP3    H157817   0.611   5.588  12.051  0.1135  0.6993  0.2876
12134TIP3    H257818   0.662   5.678  11.940 -0.6935 -0.3496 -0.9545
12135TIP3   OH257819   2.248   0.954   2.841 -0.4516 -0.3234 -0.4667
12135TIP3    H157820   2.286   1.010   2.773 -0.7152 -1.7092 -1.7772
12135TIP3    H257821   2.269   0.999   2.923  2.3080 -0.0219 -1.2859
12136TIP3   OH257822   1.283   4.699  16.500  0.0742  0.0408 -0.0529
12136TIP3    H157823   1.298   4.608  16.475 -1.2366 -0.8556  2.2829
12136TIP3    H257824   1.371   4.733  16.518  0.7540 -0.1560 -2.7863
12137TIP3   OH257825   4.303   4.595   4.147  0.0775 -0.4440 -0.3909
12137TIP3    H157826   4.229   4.628   4.198  1.2014 -0.4748  1.3005
12137TIP3    H257827   4.321   4.664   4.083 -0.0412  0.5345  0.6161
12138TIP3   OH257828   5.310   5.403   3.679  0.4846 -0.1260  0.0448
12138TIP3    H157829   5.323   5.377   3.770  0.6090  0.2070  0.1215
12138TIP3    H257830   5.222   5.442   3.678  0.7110  0.3915  0.1392
12139TIP3   OH257831   0.823   0.377   3.284  0.1265 -0.7369 -0.5013
12139TIP3    H157832   0.816   0.282   3.279 -0.5986 -0.8122  1.6788
12139TIP3    H257833   0.744   0.405   3.330  1.0515  0.7790  0.2128
12140TIP3   OH257834   0.083   3.499  15.571  0.2887 -0.2756 -0.0718
12140TIP3    H157835   0.011   3.513  15.508 -0.4521 -0.2657  0.7711
12140TIP3    H257836   0.082   3.405  15.586  0.0218 -0.1899  0.4468
12141TIP3   OH257837   2.963   1.325  15.995  0.0355 -1.0257  0.0712
12141TIP3    H157838   2.995   1.376  15.921 -2.1697  0.4937  0.1324
12141TIP3    H257839   2.882   1.286  15.965 -1.3558  0.3385  1.9274
12142TIP3   OH257840   3.450   0.139   5.982 -0.5419  0.5752  0.3096
12142TIP3    H157841   3.410   0.106   6.063 -1.2706  0.8808  0.0723
12142TIP3    H257842   3.474   0.061   5.933 -3.2278  0.3598 -0.7403
12143TIP3   OH257843   1.560   0.034  12.058  0.0248  0.1875  0.6295
12143TIP3    H157844   1.635  -0.016  12.025 -0.0635  0.2624  0.3072
12143TIP3    H257845   1.547   0.003  12.147  3.0406  3.0615  2.1881
12144TIP3   OH257846   0.363   0.327   4.204 -0.2432  0.0021  0.3131
12144TIP3    H157847   0.303   0.384   4.251  1.7513 -0.0923  3.1330
12144TIP3    H257848   0.448   0.371   4.213  0.5366 -1.1522 -1.3506
12145TIP3   OH257849   6.692   6.670   6.289  0.3782  0.3704  0.0040
12145TIP3    H157850   6.767   6.617   6.316 -1.0410 -1.5158  0.3568
12145TIP3    H257851   6.627   6.606   6.260 -0.7547  2.0317 -1.1627
12146TIP3   OH257852   2.384   5.568  13.123 -0.4179  0.0619 -0.1451
12146TIP3    H157853   2.473   5.541  13.098 -0.4306 -0.0068 -0.1149
12146TIP3    H257854   2.332   5.488  13.117 -0.0806 -0.3117  1.6945
12147TIP3   OH257855   6.003   3.903  11.498 -0.0043  0.0800  0.2414
12147TIP3    H157856   5.951   3.910  11.417 -0.3721 -0.9174  0.3838
12147TIP3    H257857   6.080   3.957  11.482 -0.4203  0.4624 -0.5072
12148TIP3   OH257858   6.712   3.747  13.086 -0.1050 -0.3780  0.3484
12148TIP3    H157859   6.773   3.747  13.160 -0.1835  2.8696  0.4561
12148TIP3    H257860   6.732   3.827  13.038 -2.6176 -0.5331 -1.0320
12149TIP3   OH257861   1.027   2.539   0.621  0.3003  0.3151 -0.2330
12149TIP3    H157862   1.034   2.554   0.527  2.2916  0.6163 -0.0601
12149TIP3    H257863   1.063   2.451   0.635 -2.2421 -0.7425 -0.0225
12150TIP3   OH257864   3.800   0.298  13.165 -0.6538  0.3559  0.6366
12150TIP3    H157865   3.808   0.324  13.074  0.1657 -0.2774  0.5221
12150TIP3    H257866   3.888   0.307  13.201 -0.9132  0.3389  1.2886
12151TIP3   OH257867   5.752   1.996  14.237  0.4698  0.9012 -0.3464
12151TIP3    H157868   5.837   2.012  14.197  0.4417  2.1745  0.0556
12151TIP3    H257869   5.689   2.028  14.172  0.3400  0.8063 -0.2663
12152TIP3   OH257870   4.836   0.112  11.967 -0.3288 -0.2633 -0.1482
12152TIP3    H157871   4.867   0.108  11.876 -0.9218  0.6659 -0.3939
12152TIP3    H257872   4.800   0.200  11.976 -1.7317 -0.8999  0.5143
12153TIP3   OH257873   3.516   1.239  10.793 -0.1930 -0.4553  0.0098
12153TIP3    H157874   3.585   1.206  10.735  0.2939  1.4461 -0.5304
12153TIP3    H257875   3.462   1.294  10.737 -1.0850 -0.4770  0.8430
12154TIP3   OH257876   5.018   2.779  15.921  0.2268  0.2752  0.6188
12154TIP3    H157877   5.037   2.709  15.984 -0.3227  0.2538  0.7659
12154TIP3    H257878   4.927   2.765  15.896  0.8895 -0.5942 -1.3275
12155TIP3   OH257879   1.420   5.435  10.994  0.4990 -0.2648  0.5721
12155TIP3    H157880   1.463   5.359  11.033 -0.8964 -2.1634 -1.4506
12155TIP3    H257881   1.332   5.435  11.032  0.0876 -0.4000 -0.3786
12156TIP3   OH257882   2.624   3.152  15.058  0.0125  0.2052 -0.1174
12156TIP3    H157883   2.599   3.069  15.016  0.5453  1.1834 -2.4618
12156TIP3    H257884   2.709   3.173  15.019  0.3337  1.3598  1.2029
12157TIP3   OH257885   5.360   1.509   2.827 -0.2017  0.6083 -0.4851
12157TIP3    H157886   5.400   1.558   2.899  0.3707  1.8144 -1.6075
12157TIP3    H257887   5.373   1.564   2.750 -1.8809 -0.1187 -1.3087
12158TIP3   OH257888   6.347   2.416  16.402 -0.3152  0.4141 -0.3884
12158TIP3    H157889   6.351   2.323  16.381 -1.1479  0.2366  0.2410
12158TIP3    H257890   6.344   2.419  16.498 -2.2659  1.0058 -0.4414
12159TIP3   OH257891   5.253   1.078   1.368  0.0141 -0.3518  0.2955
12159TIP3    H157892   5.322   1.013   1.384  1.1825  0.7909  0.0029
12159TIP3    H257893   5.300   1.161   1.363 -1.5711  0.6405  1.5842
12160TIP3   OH257894   2.956   5.393   3.255  0.1974 -0.0428 -0.3584
12160TIP3    H157895   2.863   5.414   3.260 -0.0549 -1.3021  0.4865
12160TIP3    H257896   2.998   5.452   3.317 -0.3693 -1.2467  1.2107
12161TIP3   OH257897   4.578   0.663   3.888 -0.4314  0.1047  0.5527
12161TIP3    H157898   4.536   0.748   3.875 -0.0873  0.2545  0.4170
12161TIP3    H257899   4.571   0.620   3.802 -0.0744  0.2348  0.4577
12162TIP3   OH257900   1.069   1.562   1.113  0.3433 -0.4929  0.2256
12162TIP3    H157901   1.135   1.526   1.054 -0.3374 -0.8620 -0.3140
12162TIP3    H257902   0.999   1.593   1.054  0.8160  1.5162  0.6665
12163TIP3   OH257903   2.795   5.555  11.488  0.1830  0.0051  0.6408
12163TIP3    H157904   2.840   5.510  11.560  2.4991  0.3771 -0.5103
12163TIP3    H257905   2.861   5.615  11.453 -0.8364 -0.3171 -1.9422
12164TIP3   OH257906   2.182   1.046  11.698  0.2097  0.0279  0.1433
12164TIP3    H157907   2.269   1.061  11.736  0.2276  0.8156 -0.1887
12164TIP3    H257908   2.183   1.098  11.618 -0.6800  0.2930  0.3060
12165TIP3   OH257909   1.855   5.572  10.832  0.5652 -0.1148  0.5558
12165TIP3    H157910   1.770   5.608  10.807  1.1975  2.3280  1.8350
12165TIP3    H257911   1.878   5.514  10.759 -1.0568  1.0929 -0.9636
12166TIP3   OH257912   5.436   6.365  14.423 -0.3094 -0.5305  0.2919
12166TIP3    H157913   5.469   6.303  14.488 -1.2579 -0.5003  0.8058
12166TIP3    H257914   5.514   6.408  14.389  0.3575 -1.8895  0.0452
12167TIP3   OH257915   3.994   3.766  15.376 -0.0475 -0.8814 -0.5734
12167TIP3    H157916   4.051   3.833  15.412 -3.0068  0.3361  2.0121
12167TIP3    H257917   4.046   3.685  15.380  1.4959  0.1923  1.6547
12168TIP3   OH257918   3.571   5.559   2.861 -0.0927  0.1315  0.5922
12168TIP3    H157919   3.525   5.519   2.935  0.3805 -0.8627  0.3611
12168TIP3    H257920   3.664   5.548   2.882  0.0404 -0.0209 -0.0798
12169TIP3   OH257921   5.388   0.936   4.853  0.5730  0.7422 -0.5138
12169TIP3    H157922   5.294   0.917   4.857  0.7437 -0.7148 -2.9260
12169TIP3    H257923   5.426   0.881   4.921 -0.2659  1.0972  0.2562
12170TIP3   OH257924   0.795   0.001   6.361  0.4131 -0.7099  0.0615
12170TIP3    H157925   0.780  -0.082   6.317 -1.1569  0.6722 -2.1299
12170TIP3    H257926   0.711   0.022   6.403  0.4850  0.2132 -0.2373
12171TIP3   OH257927   4.845   1.712  14.855 -0.1197 -0.1738  0.2489
12171TIP3    H157928   4.909   1.698  14.786  0.1179 -0.5134  0.5390
12171TIP3    H257929   4.766   1.668  14.824  0.0868 -0.6097  0.3459
12172TIP3   OH257930   1.498   5.876  17.031 -0.5488 -0.7367  0.6899
12172TIP3    H157931   1.510   5.906  16.941  0.2173 -1.2260  0.6236
12172TIP3    H257932   1.434   5.937  17.068  0.6794  0.7465  0.4373
12173TIP3   OH257933   6.540   3.576   5.869 -0.0319  0.6297 -0.1255
12173TIP3    H157934   6.542   3.671   5.860  0.6714  0.4473 -1.9770
12173TIP3    H257935   6.588   3.543   5.793 -0.3454 -1.2117  0.4479
12174TIP3   OH257936   2.501   5.605   3.402 -0.4735 -0.3283 -0.2387
12174TIP3    H157937   2.478   5.698   3.409 -0.1413 -0.3409  1.1449
12174TIP3    H257938   2.500   5.573   3.492  1.6938 -1.1139 -0.4620
12175TIP3   OH257939   6.230   0.563   4.482  0.4495  0.9245 -0.3002
12175TIP3    H157940   6.156   0.503   4.497  0.5458  0.7905 -0.3579
12175TIP3    H257941   6.288   0.515   4.423  1.1824  0.5477  0.7171
12176TIP3   OH257942   2.035   3.687   5.704 -0.0336 -0.0798 -0.0753
12176TIP3    H157943   2.087   3.756   5.745  1.2355 -0.4324 -1.0505
12176TIP3    H257944   2.066   3.606   5.745 -0.2074 -0.2367 -0.2512
12177TIP3   OH257945   2.463   4.928   4.824  0.4981  0.3547 -0.1651
12177TIP3    H157946   2.524   5.002   4.825  1.7659 -0.6886  0.1010
12177TIP3    H257947   2.487   4.876   4.900 -0.2744 -0.4479 -0.4656
12178TIP3   OH257948   0.294   4.002  10.450  0.1730  0.3981 -0.5550
12178TIP3    H157949   0.205   3.971  10.433  0.0133  0.2858  0.4543
12178TIP3    H257950   0.332   3.937  10.509 -0.0203  1.8486  1.2300
12179TIP3   OH257951   1.663   3.947  12.776 -0.0434 -0.0735  0.0608
12179TIP3    H157952   1.732   3.963  12.712  0.2191 -1.5272 -0.0433
12179TIP3    H257953   1.601   4.019  12.764 -0.3459 -0.6983 -2.3085
12180TIP3   OH257954   4.662   1.637   6.179  0.7474 -0.0382 -0.0987
12180TIP3    H157955   4.734   1.698   6.195  0.8706  0.2590 -1.6229
12180TIP3    H257956   4.705   1.556   6.150  0.5298 -0.3393  0.4290
12181TIP3   OH257957   0.789   4.304   5.425 -0.3581 -0.1277  0.6348
12181TIP3    H157958   0.845   4.331   5.352 -0.5734  0.0610  0.5366
12181TIP3    H257959   0.707   4.352   5.411 -0.4814 -0.2677  0.8735
12182TIP3   OH257960   2.743   1.648   3.432  0.0547  0.0203  0.2485
12182TIP3    H157961   2.825   1.603   3.412 -0.1385 -0.1897 -0.0746
12182TIP3    H257962   2.675   1.584   3.410 -0.1901  0.1555  0.6185
12183TIP3   OH257963   2.385   3.813   2.758 -0.1410 -0.3687 -0.2607
12183TIP3    H157964   2.424   3.845   2.840 -2.1580 -0.3386  0.7228
12183TIP3    H257965   2.381   3.718   2.770 -1.4542 -0.2715  0.1604
12184TIP3   OH257966   2.384   2.381   5.619  0.2108  0.1685 -0.1774
12184TIP3    H157967   2.466   2.356   5.661 -0.8922 -0.8417  1.4038
12184TIP3    H257968   2.388   2.340   5.533  0.4790 -1.6022  0.6580
12185TIP3   OH257969   2.479   0.255   2.523 -0.5694  0.0241  0.6577
12185TIP3    H157970   2.542   0.187   2.546 -1.4847 -1.7003 -1.8188
12185TIP3    H257971   2.530   0.317   2.470 -0.4545 -0.3025  0.3836
12186TIP3   OH257972   4.375   1.717   5.261 -0.0583  0.3677 -0.1476
12186TIP3    H157973   4.353   1.799   5.306  1.8805  2.7037 -3.2496
12186TIP3    H257974   4.291   1.671   5.252 -0.9656  1.3190  2.8885
12187TIP3   OH257975   3.415   5.825   3.185  0.5506 -0.9150  0.1795
12187TIP3    H157976   3.503   5.846   3.154 -0.6210  3.5613 -0.5115
12187TIP3    H257977   3.371   5.789   3.108  0.2766  1.8548 -1.0342
12188TIP3   OH257978   5.848   2.945  15.798  0.5633  0.4106  0.1759
12188TIP3    H157979   5.873   2.890  15.872 -0.6080  1.4554  1.3824
12188TIP3    H257980   5.753   2.952  15.805  0.6386  2.0702 -0.3193
12189TIP3   OH257981   6.586   6.479  11.793 -0.4707  0.1487 -0.1349
12189TIP3    H157982   6.613   6.481  11.702  0.2960 -0.3211  0.0824
12189TIP3    H257983   6.568   6.387  11.812  1.2380 -0.0262  0.7225
12190TIP3   OH257984   5.227   4.239   1.488 -0.5545  0.6096 -0.6184
12190TIP3    H157985   5.184   4.185   1.553 -0.7423 -0.6381 -1.7526
12190TIP3    H257986   5.319   4.242   1.516 -0.8983  1.2549  0.4587
12191TIP3   OH257987   1.783   5.113  17.004  0.5323  0.5327  0.5165
12191TIP3    H157988   1.742   5.160  17.077  2.2069  1.0527  1.1456
12191TIP3    H257989   1.758   5.021  17.019 -0.2645  0.8059  0.9690
12192TIP3   OH257990   4.036   2.400   3.185 -0.1065 -0.2669  0.2005
12192TIP3    H157991   4.039   2.308   3.210 -0.0822  0.0734  1.4550
12192TIP3    H257992   3.967   2.438   3.239 -0.3236  0.3862 -0.5324
12193TIP3   OH257993   6.720   5.250   4.174 -0.3787 -0.3049  0.4359
12193TIP3    H157994   6.811   5.235   4.150 -0.7871 -0.7947 -0.8344
12193TIP3    H257995   6.674   5.172   4.145 -1.2400  0.0243  0.8925
12194TIP3   OH257996   1.737   5.922   3.400  0.0185  0.2509 -0.3623
12194TIP3    H157997   1.753   6.009   3.362 -2.2327  1.7033  1.8885
12194TIP3    H257998   1.800   5.916   3.472 -0.2253  0.2728 -0.1460
12195TIP3   OH257999   4.971   5.927   1.527 -0.2139 -0.3662  0.1676
12195TIP3    H158000   4.982   6.022   1.532  0.6098 -0.5743  3.2429
12195TIP3    H258001   4.901   5.907   1.589  1.9805 -2.0934  2.1982
12196TIP3   OH258002   1.900   5.160   5.457  0.5280  0.5462 -0.0125
12196TIP3    H158003   1.891   5.074   5.416  1.6477  1.0195 -1.2990
12196TIP3    H258004   1.956   5.145   5.533 -0.4754 -0.1075  0.6073
12197TIP3   OH258005   3.992   1.954  16.647  0.0492 -0.4627  0.0675
12197TIP3    H158006   4.022   1.879  16.595 -0.0507  0.1822 -0.9333
12197TIP3    H258007   3.897   1.945  16.648 -0.0111  0.0655 -0.6930
12198TIP3   OH258008   3.182   6.229   0.393 -0.0025  0.3367  1.1440
12198TIP3    H158009   3.104   6.174   0.400  0.2682 -0.0524  1.1312
12198TIP3    H258010   3.254   6.170   0.413  0.5066  0.0258 -1.4340
12199TIP3   OH258011   6.346   6.185   1.047  0.4516 -0.5398  0.2016
12199TIP3    H158012   6.307   6.267   1.076  0.9594 -0.1778 -0.1227
12199TIP3    H258013   6.301   6.118   1.097  0.0596 -0.0593  0.4993
12200TIP3   OH258014   4.741   4.352   1.997  0.2681 -0.2050  0.0852
12200TIP3    H158015   4.664   4.407   1.982  1.2128  0.8205 -1.0974
12200TIP3    H258016   4.709   4.263   1.983 -0.6397  0.2373 -0.7777
12201TIP3   OH258017   3.211   2.935   1.174 -0.2661 -0.3720 -0.0125
12201TIP3    H158018   3.155   2.870   1.133 -4.6552  2.0194  1.8481
12201TIP3    H258019   3.224   2.903   1.264 -0.0315 -0.0975  0.0543
12202TIP3   OH258020   6.498   4.499  15.253  0.8049 -0.0005  0.1196
12202TIP3    H158021   6.460   4.584  15.279  0.6475 -0.2335  0.6466
12202TIP3    H258022   6.560   4.521  15.184  0.4299  0.4998 -0.0661
12203TIP3   OH258023   4.197   4.920   4.678  0.5395 -0.1469  0.7503
12203TIP3    H158024   4.211   5.015   4.682 -2.0572  0.2376  2.0689
12203TIP3    H258025   4.284   4.882   4.686  1.7684  2.1467 -1.4343
12204TIP3   OH258026   2.265   0.155   5.305  0.4557  0.2499  0.6197
12204TIP3    H158027   2.335   0.091   5.312  0.6407  0.4904  1.0177
12204TIP3    H258028   2.207   0.137   5.379  0.1835  0.1512  0.3822
12205TIP3   OH258029   2.763   5.707  14.667  0.2353  0.2999 -0.5086
12205TIP3    H158030   2.688   5.659  14.631  0.4083  0.0494 -0.5387
12205TIP3    H258031   2.838   5.674  14.617  0.5463 -0.4025  0.4107
12206TIP3   OH258032   4.252   2.341   5.059 -0.6160 -0.4155 -0.4701
12206TIP3    H158033   4.176   2.282   5.055 -0.7391 -0.3795  1.1180
12206TIP3    H258034   4.322   2.287   5.097  0.0880 -0.3670 -1.6750
12207TIP3   OH258035   0.788   0.593   4.173  0.4034 -0.8303  0.0665
12207TIP3    H158036   0.717   0.649   4.203  0.5427 -0.5572 -0.1122
12207TIP3    H258037   0.744   0.523   4.125  0.2806 -0.4462 -0.3833
12208TIP3   OH258038   6.375   5.203  12.910  0.0693 -0.4932  0.3820
12208TIP3    H158039   6.347   5.277  12.856  0.9782  0.1598  0.7971
12208TIP3    H258040   6.453   5.169  12.865  2.7695  2.0389  2.9486
12209TIP3   OH258041   5.325   0.413   1.828 -0.1770 -0.8349 -0.1353
12209TIP3    H158042   5.254   0.451   1.777 -0.5994  0.0203  1.0711
12209TIP3    H258043   5.347   0.332   1.782  0.4739  0.6484 -2.5323
12210TIP3   OH258044   1.410   3.641  12.589 -0.3764  0.4359 -0.1517
12210TIP3    H158045   1.503   3.621  12.602 -0.4426  1.3611  1.9717
12210TIP3    H258046   1.382   3.582  12.520  1.7664  0.0301 -0.7029
12211TIP3   OH258047   1.300   1.533  12.004  0.1832  0.6624  0.4120
12211TIP3    H158048   1.367   1.518  12.071  0.2886 -0.2218  0.1238
12211TIP3    H258049   1.327   1.476  11.931 -0.5744  0.7254  0.0808
12212TIP3   OH258050   0.232   6.267   1.374  0.6214 -0.1999  0.0651
12212TIP3    H158051   0.252   6.348   1.419  0.2631 -0.1820  0.1952
12212TIP3    H258052   0.307   6.251   1.317  1.1584 -0.3248  0.8035
12213TIP3   OH258053   6.437   2.624   0.736 -0.6350 -0.3235 -0.0892
12213TIP3    H158054   6.485   2.695   0.694 -2.9191  2.2830  1.5531
12213TIP3    H258055   6.475   2.617   0.823 -0.3491 -1.2041 -0.2811
12214TIP3   OH258056   0.783   2.310   5.001  0.3759  0.5731  0.4909
12214TIP3    H158057   0.710   2.309   5.063 -1.4960 -0.2656 -1.6718
12214TIP3    H258058   0.748   2.354   4.924  2.2367  0.3471 -0.4985
12215TIP3   OH258059   3.427   2.264   1.183 -0.7114  0.0295 -0.2187
12215TIP3    H158060   3.431   2.174   1.217  1.6455  0.1598 -0.0752
12215TIP3    H258061   3.386   2.314   1.253  0.3412 -0.4659  0.7598
12216TIP3   OH258062   3.219   1.552  16.854  0.0263  0.2491 -0.0504
12216TIP3    H158063   3.264   1.474  16.884 -2.9523 -2.1629 -1.5876
12216TIP3    H258064   3.201   1.602  16.934  1.3538 -0.9681  1.0218
12217TIP3   OH258065   2.525   4.619  10.623 -0.1399  0.0153 -0.1030
12217TIP3    H158066   2.499   4.670  10.546 -0.6217 -0.3001 -0.1512
12217TIP3    H258067   2.492   4.531  10.606 -0.2509 -0.0557  0.4630
12218TIP3   OH258068   0.221   6.619   1.980 -0.4630  0.0836  0.3444
12218TIP3    H158069   0.199   6.562   2.054 -1.7437 -1.0752 -0.9052
12218TIP3    H258070   0.302   6.662   2.006  0.3356 -2.0546  1.4546
12219TIP3   OH258071   5.061   6.310  13.469  0.7415  0.7036 -0.1052
12219TIP3    H158072   5.093   6.400  13.477  1.2424  0.6042 -0.8868
12219TIP3    H258073   5.118   6.271  13.403 -0.6996  0.3710 -1.1620
12220TIP3   OH258074   2.612   0.018   4.425 -0.3697 -0.3080 -0.0919
12220TIP3    H158075   2.545  -0.049   4.438  1.9984 -2.4185  1.6297
12220TIP3    H258076   2.643   0.003   4.335  0.7157 -2.1054  0.5529
12221TIP3   OH258077   4.867   6.097  13.542 -0.2728 -0.3185 -0.0082
12221TIP3    H158078   4.892   6.093  13.634  0.7254  0.9801 -0.2140
12221TIP3    H258079   4.906   6.178  13.509 -0.8593 -0.6164 -1.5066
12222TIP3   OH258080   5.325   2.775   5.795  0.1799 -0.3637 -0.0058
12222TIP3    H158081   5.372   2.810   5.720  1.0652 -0.4191  0.5263
12222TIP3    H258082   5.392   2.761   5.862 -0.2143 -2.6200 -0.0521
12223TIP3   OH258083   3.807   3.832   3.637  0.3675 -0.4504  0.3730
12223TIP3    H158084   3.850   3.866   3.715 -0.9354  0.2436  0.8137
12223TIP3    H258085   3.850   3.877   3.564  0.5290  0.0833  0.7911
12224TIP3   OH258086   5.462   0.316  10.791  0.0157 -0.0177 -0.4048
12224TIP3    H158087   5.388   0.316  10.730 -0.9984 -0.6447  0.8027
12224TIP3    H258088   5.524   0.377  10.752 -1.8544  1.8419 -0.5685
12225TIP3   OH258089   3.764   3.145  15.172  0.1641 -0.0660  0.9422
12225TIP3    H158090   3.849   3.122  15.209  0.7469  3.2154  1.8337
12225TIP3    H258091   3.777   3.137  15.078  2.3106  2.7941  0.9097
12226TIP3   OH258092   2.084   4.443   1.489 -0.4563  0.4899 -0.3728
12226TIP3    H158093   2.046   4.382   1.553 -0.2744  1.2959  0.5182
12226TIP3    H258094   2.008   4.489   1.453 -0.5296  0.3330 -0.4182
12227TIP3   OH258095   3.549   1.031   4.244 -0.4575  0.4135 -0.1613
12227TIP3    H158096   3.528   1.020   4.337  0.4539 -1.9926 -0.2202
12227TIP3    H258097   3.642   1.010   4.237 -0.7027 -0.2284 -1.7479
12228TIP3   OH258098   2.007   2.844   3.684  0.3210  0.2078 -0.2607
12228TIP3    H158099   1.981   2.770   3.628 -0.6515 -0.5616  1.1839
12228TIP3    H258100   2.014   2.918   3.623 -1.4093 -0.4586 -1.3233
12229TIP3   OH258101   3.505   2.189  16.535 -0.2828  0.2086  0.2578
12229TIP3    H158102   3.477   2.136  16.610 -1.4314  0.3937 -0.0340
12229TIP3    H258103   3.593   2.218  16.559  0.2265 -1.5224  0.5844
12230TIP3   OH258104   2.925   5.641  17.118  0.0240 -1.1232 -0.1332
12230TIP3    H158105   2.869   5.664  17.043 -1.5192 -0.6834  1.1280
12230TIP3    H258106   2.928   5.545  17.116  2.4175 -1.0660 -2.4691
12231TIP3   OH258107   1.850   3.619  15.927 -0.1077 -0.4469 -0.7238
12231TIP3    H158108   1.943   3.610  15.903 -0.1386 -0.1209 -0.9660
12231TIP3    H258109   1.841   3.710  15.955 -0.1334 -0.7537  0.2766
12232TIP3   OH258110   1.183   3.147  13.260  0.2027 -0.2750  0.0681
12232TIP3    H158111   1.099   3.145  13.215 -0.3662  0.6293  1.0542
12232TIP3    H258112   1.171   3.212  13.329  2.0169  0.5539 -0.3732
12233TIP3   OH258113   5.827   3.066  13.749  0.0454 -0.0585  0.2955
12233TIP3    H158114   5.872   3.126  13.690  0.1291  1.1185  1.5439
12233TIP3    H258115   5.877   3.071  13.831 -0.1970 -1.5120  0.5540
12234TIP3   OH258116   0.271   3.171  12.492  0.1866 -0.4187  0.4047
12234TIP3    H158117   0.291   3.134  12.578  1.0166 -2.0470 -0.4555
12234TIP3    H258118   0.214   3.106  12.451 -0.6644  0.6147 -0.0611
12235TIP3   OH258119   4.276   3.593   4.630  0.2547 -0.2181  0.2446
12235TIP3    H158120   4.324   3.654   4.574  0.2946  0.9435  1.5231
12235TIP3    H258121   4.343   3.544   4.677  0.2176 -0.9694 -0.4756
12236TIP3   OH258122   1.161   3.064  11.068  0.0784  0.0204 -0.0436
12236TIP3    H158123   1.237   3.120  11.053  0.9642 -1.0372  0.4989
12236TIP3    H258124   1.166   2.997  10.999  2.6044 -3.1832  3.1020
12237TIP3   OH258125   0.512   3.281  15.771 -0.2850 -0.2631 -0.1837
12237TIP3    H158126   0.525   3.374  15.791  0.6830 -0.2868 -0.6721
12237TIP3    H258127   0.424   3.277  15.733 -0.5791  0.3590  0.4042
12238TIP3   OH258128   2.503   1.727   3.898  0.4634  0.3698 -0.4000
12238TIP3    H158129   2.546   1.795   3.949 -1.4766  1.1695  0.2325
12238TIP3    H258130   2.516   1.646   3.948  1.7579  0.4732 -0.5553
12239TIP3   OH258131   1.139   4.801  15.021  0.5506 -0.2444 -0.2624
12239TIP3    H158132   1.138   4.763  14.933  3.4172 -0.6570 -0.1728
12239TIP3    H258133   1.195   4.878  15.013  0.2223  0.1417  1.0395
12240TIP3   OH258134   2.525   5.169   6.785 -0.1202  1.1006 -0.3198
12240TIP3    H158135   2.448   5.123   6.753 -0.0847  0.2951  0.7349
12240TIP3    H258136   2.599   5.122   6.746  0.0392 -1.5262  2.9013
12241TIP3   OH258137   0.810   6.698  12.580  0.4396 -0.2949  0.5146
12241TIP3    H158138   0.870   6.668  12.513  0.8931  0.3147  0.6351
12241TIP3    H258139   0.827   6.642  12.656  1.6643  0.5880  0.9204
12242TIP3   OH258140   6.017   0.291   3.191 -0.5147 -0.0739 -0.3232
12242TIP3    H158141   5.942   0.260   3.140  1.1120 -0.2654 -2.6828
12242TIP3    H258142   5.991   0.378   3.222 -1.5059  0.0963 -1.6053
12243TIP3   OH258143   1.086   5.291  13.795 -0.0525 -0.3077 -0.0379
12243TIP3    H158144   1.176   5.261  13.783  0.8761  2.0057  0.7809
12243TIP3    H258145   1.084   5.378  13.755 -2.2978 -0.8591 -1.2030
12244TIP3   OH258146   5.335   6.422   4.130  0.2374  0.0155  0.9034
12244TIP3    H158147   5.260   6.462   4.176  1.1908  0.7503  1.8478
12244TIP3    H258148   5.409   6.478   4.153  0.9364 -0.2623 -0.6605
12245TIP3   OH258149   2.671   1.699   1.058 -0.4576 -0.0250 -0.3617
12245TIP3    H158150   2.584   1.739   1.062 -0.2031  0.6257 -1.0705
12245TIP3    H258151   2.679   1.667   0.968  0.2193  0.3722 -0.4537
12246TIP3   OH258152   3.972   3.169  15.611 -0.0762 -0.2781 -0.5826
12246TIP3    H158153   4.019   3.247  15.642  0.6307 -1.5434  1.6458
12246TIP3    H258154   3.888   3.173  15.656  1.2346 -2.5184  2.2377
12247TIP3   OH258155   0.031   4.502  16.116  0.2811 -0.0951  0.3518
12247TIP3    H158156   0.043   4.411  16.145  1.0121 -0.3651 -0.7491
12247TIP3    H258157   0.034   4.497  16.020 -1.8569  0.8056  0.2113
12248TIP3   OH258158   1.024   4.852   1.040 -0.3214 -0.2921 -0.1960
12248TIP3    H158159   0.983   4.767   1.024  0.2479 -0.7596  0.7662
12248TIP3    H258160   1.117   4.832   1.054 -0.3503  0.3732  1.0321
12249TIP3   OH258161   0.583   2.884   5.804 -0.4043  0.2852 -0.6855
12249TIP3    H158162   0.492   2.855   5.812 -0.7225  1.6118  0.6448
12249TIP3    H258163   0.595   2.944   5.877  1.5092  0.2306 -0.9465
12250TIP3   OH258164   6.174   5.879   0.099  0.1617 -0.0346 -0.2287
12250TIP3    H158165   6.135   5.965   0.119  0.5450  0.2360 -0.6253
12250TIP3    H258166   6.252   5.900   0.049 -1.2163 -0.7391 -2.7432
12251TIP3   OH258167   1.191   6.041   0.996 -0.2603  0.1727  0.2443
12251TIP3    H158168   1.197   6.094   1.075  0.1883  0.0862  0.2691
12251TIP3    H258169   1.097   6.026   0.984 -0.4159  1.2175  0.0772
12252TIP3   OH258170   5.151   0.101  11.827 -0.2785  0.0333 -0.0259
12252TIP3    H158171   5.122   0.109  11.736 -0.9005  0.3561  0.2030
12252TIP3    H258172   5.205   0.179  11.843 -0.2018 -0.0040 -0.1028
12253TIP3   OH258173   1.811   6.111  15.990 -0.0799 -0.2287 -0.6518
12253TIP3    H158174   1.838   6.093  16.079  0.3021 -0.2385 -0.7685
12253TIP3    H258175   1.748   6.183  15.998  0.7229  0.4667 -0.4586
12254TIP3   OH258176   4.328   3.614  16.330  0.1394  0.7828 -0.4154
12254TIP3    H158177   4.273   3.660  16.393 -2.2873  0.9722 -2.6174
12254TIP3    H258178   4.341   3.676  16.259  2.9140  0.5890 -0.1405
12255TIP3   OH258179   1.071   2.503  12.186 -0.1306  0.2242 -0.5482
12255TIP3    H158180   1.029   2.560  12.121  1.0563  0.4237 -1.1425
12255TIP3    H258181   1.154   2.545  12.205 -0.0863 -0.3108  0.4467
12256TIP3   OH258182   3.188   2.296   2.544 -0.7721  0.0934 -0.4475
12256TIP3    H158183   3.143   2.263   2.466 -0.3615 -1.2732 -0.1169
12256TIP3    H258184   3.122   2.292   2.613  0.0168 -2.6148  0.2103
12257TIP3   OH258185   4.858   2.822   5.049 -0.8241  0.2278 -0.1897
12257TIP3    H158186   4.780   2.869   5.079 -1.9265 -0.4687 -1.9451
12257TIP3    H258187   4.888   2.872   4.973 -1.4682 -1.3770 -1.5048
12258TIP3   OH258188   3.974   2.016  15.705 -1.1133 -0.1115 -0.7992
12258TIP3    H158189   4.008   1.936  15.746 -0.8742  0.1517 -0.4821
12258TIP3    H258190   3.952   2.073  15.779 -2.4406 -0.3657 -0.9921
12259TIP3   OH258191   2.796   0.479   2.629  0.0062 -0.0679  0.2296
12259TIP3    H158192   2.792   0.452   2.538  1.6521  0.2953  0.0331
12259TIP3    H258193   2.713   0.525   2.644 -0.7604 -1.1112 -0.7486
12260TIP3   OH258194   5.631   1.859  10.711  0.1354 -0.2693 -0.2742
12260TIP3    H158195   5.723   1.884  10.704  0.1403 -0.4982 -0.9983
12260TIP3    H258196   5.629   1.765  10.691 -0.3894 -0.0557 -1.2696
12261TIP3   OH258197   0.298   0.607   4.143  0.3289 -0.4266 -0.6641
12261TIP3    H158198   0.208   0.624   4.171  0.5183  0.4394 -0.5554
12261TIP3    H258199   0.291   0.579   4.052  0.1107  1.7407 -1.3379
12262TIP3   OH258200   4.195   4.504   2.344  0.2010  0.6862  0.1857
12262TIP3    H158201   4.194   4.547   2.430  1.6904  0.7044  0.2008
12262TIP3    H258202   4.108   4.521   2.308 -0.5088  0.5474  1.7567
12263TIP3   OH258203   2.814   4.370   6.711 -0.1124  0.2382 -0.0063
12263TIP3    H158204   2.876   4.397   6.778 -0.7781 -0.1419  0.7787
12263TIP3    H258205   2.756   4.308   6.755 -2.0050  1.7545 -0.2728
12264TIP3   OH258206   2.127   6.098  12.537 -0.4524 -0.2379  0.2078
12264TIP3    H158207   2.032   6.087  12.527 -0.1075 -1.3843 -2.0317
12264TIP3    H258208   2.158   6.118  12.449  1.4366 -0.1489  0.8774
12265TIP3   OH258209   5.109   1.369  11.495 -0.3960  0.6191  0.3610
12265TIP3    H158210   5.175   1.427  11.534 -0.2505 -0.7479  2.2198
12265TIP3    H258211   5.087   1.307  11.565 -1.0334 -1.1610 -1.3622
12266TIP3   OH258212   5.628   1.702  11.055 -0.0491 -0.0314  0.6349
12266TIP3    H158213   5.550   1.711  11.001  0.7422 -0.3684 -0.5694
12266TIP3    H258214   5.696   1.674  10.995  0.7020 -1.0077  1.9128
12267TIP3   OH258215   5.816   5.644  15.575  1.2865 -1.1080  0.1714
12267TIP3    H158216   5.893   5.651  15.632  2.6995  1.2742 -1.9196
12267TIP3    H258217   5.851   5.647  15.486 -1.3251  2.6734 -0.8714
12268TIP3   OH258218   3.422   1.018  13.364 -0.1082  0.0061 -0.1436
12268TIP3    H158219   3.385   1.100  13.396 -1.5499 -1.3832  1.8669
12268TIP3    H258220   3.347   0.961  13.348  0.8452 -0.8429 -1.8654
12269TIP3   OH258221   4.345   1.637  10.408 -0.2999 -0.2138  0.2883
12269TIP3    H158222   4.272   1.694  10.432  0.6873  1.3420 -0.2783
12269TIP3    H258223   4.375   1.601  10.491 -2.0585 -1.3153  0.4580
12270TIP3   OH258224   5.284   3.920  13.557  0.0394  0.8871  1.0069
12270TIP3    H158225   5.207   3.940  13.611 -0.3840  0.7159  0.4717
12270TIP3    H258226   5.267   3.964  13.473  0.1206  0.1382  0.5902
12271TIP3   OH258227   1.168   0.511   4.606  0.2347  0.1708 -0.1928
12271TIP3    H158228   1.150   0.578   4.540  0.5837  0.8037  0.3381
12271TIP3    H258229   1.101   0.525   4.673 -0.6868 -1.0609 -0.8343
12272TIP3   OH258230   6.186   0.029   2.118 -0.2495  0.4719  0.1955
12272TIP3    H158231   6.102   0.070   2.138  0.1440  1.2073  0.3912
12272TIP3    H258232   6.246   0.063   2.184  0.1068 -0.3830  0.3203
12273TIP3   OH258233   4.548   1.585   2.981 -0.1094  0.1830  0.5597
12273TIP3    H158234   4.619   1.540   3.026  0.0956  0.3543  0.4108
12273TIP3    H258235   4.590   1.629   2.907 -0.9786 -3.1895 -2.1018
12274TIP3   OH258236   0.884   6.129  13.924 -0.0123 -0.2683 -0.4753
12274TIP3    H158237   0.958   6.094  13.973  0.4336  0.0831 -0.9013
12274TIP3    H258238   0.825   6.054  13.913  0.5486 -0.6838 -0.6474
12275TIP3   OH258239   3.069   3.715  15.760 -0.3987 -0.3354 -0.3647
12275TIP3    H158240   3.144   3.767  15.788 -0.6075  0.4190 -1.1802
12275TIP3    H258241   3.107   3.638  15.718 -0.0878 -1.0310  1.1398
12276TIP3   OH258242   1.707   5.719  15.619  0.4559 -0.9597 -0.1710
12276TIP3    H158243   1.773   5.650  15.610 -1.3848 -2.6384 -1.4348
12276TIP3    H258244   1.751   5.789  15.666  3.3839 -1.6730 -1.7363
12277TIP3   OH258245   3.806   0.294   1.417  0.0068 -0.0304  0.7446
12277TIP3    H158246   3.786   0.351   1.343  1.9104  0.0042  0.2323
12277TIP3    H258247   3.735   0.229   1.417 -0.4476  0.4550 -0.6004
12278TIP3   OH258248   5.539   4.593  14.131  0.2667 -0.5342 -0.2203
12278TIP3    H158249   5.616   4.545  14.161 -0.1104 -1.1472 -0.2061
12278TIP3    H258250   5.509   4.640  14.209  0.6676 -0.2335 -0.2445
12279TIP3   OH258251   2.250   2.235  15.656 -0.2344 -0.0214 -0.7911
12279TIP3    H158252   2.171   2.240  15.603 -1.4147  0.3220  0.9299
12279TIP3    H258253   2.224   2.270  15.741  1.5842 -0.5746  0.0345
12280TIP3   OH258254   0.325   4.341   4.420 -0.1067  0.3906 -0.2182
12280TIP3    H158255   0.401   4.300   4.461 -0.5551  0.7509  0.9803
12280TIP3    H258256   0.362   4.391   4.347  0.6314 -0.7107 -0.6072
12281TIP3   OH258257   4.128   5.414  12.632 -0.2678  0.2203 -0.1359
12281TIP3    H158258   4.040   5.435  12.601 -0.5576  0.3472  0.7600
12281TIP3    H258259   4.175   5.386  12.553 -1.9208 -2.5558 -0.1972
12282TIP3   OH258260   0.923   0.096  12.877 -0.2771  0.3492  0.0369
12282TIP3    H158261   0.830   0.078  12.861 -0.2309 -0.5954  0.7961
12282TIP3    H258262   0.924   0.186  12.911 -0.8145  0.7142 -0.8857
12283TIP3   OH258263   5.920   3.833   4.572 -0.7163 -0.6620  0.2082
12283TIP3    H158264   5.876   3.917   4.584  0.6397 -0.0577  1.1613
12283TIP3    H258265   5.988   3.851   4.506  0.8526 -0.4778  1.8238
12284TIP3   OH258266   4.401   0.339  16.334  0.2249  0.0517 -0.1087
12284TIP3    H158267   4.444   0.412  16.379  0.3381 -0.0682 -0.0214
12284TIP3    H258268   4.314   0.372  16.312 -0.1491 -0.1829  0.9807
12285TIP3   OH258269   6.020   2.606  12.087  0.2991  0.4083  0.3072
12285TIP3    H158270   5.947   2.662  12.062  0.7397  0.6508 -0.4343
12285TIP3    H258271   5.993   2.518  12.058 -0.5795  0.1436  1.8555
12286TIP3   OH258272   4.882   3.914   5.746 -0.2489 -0.3439 -0.0759
12286TIP3    H158273   4.857   3.861   5.670  2.0083  0.7123 -1.6073
12286TIP3    H258274   4.978   3.918   5.742 -0.1873  0.9749  1.9821
12287TIP3   OH258275   0.191   3.077   1.139 -0.2199 -0.5929 -0.0454
12287TIP3    H158276   0.186   3.115   1.051  0.5236 -0.4474 -0.0205
12287TIP3    H258277   0.192   3.152   1.198  0.1840 -0.6761  0.0507
12288TIP3   OH258278   5.986   1.410   5.865  0.3948 -0.0092 -0.4554
12288TIP3    H158279   6.063   1.462   5.841  0.4973 -0.4663 -1.1391
12288TIP3    H258280   5.914   1.449   5.815  0.3285 -0.0616 -0.4004
12289TIP3   OH258281   3.338   1.075   2.967  0.6955  0.0090  0.0593
12289TIP3    H158282   3.400   1.006   2.940  0.1553 -0.1273 -0.8503
12289TIP3    H258283   3.276   1.080   2.895  1.4810  2.3725 -0.4920
12290TIP3   OH258284   6.380   4.770  16.669  0.0369  0.8281  0.0689
12290TIP3    H158285   6.446   4.713  16.710  0.3841  1.6619  0.6901
12290TIP3    H258286   6.424   4.804  16.591  0.2371  1.1379  0.3140
12291TIP3   OH258287   0.306   3.986  13.109  0.4760  0.6866 -0.1064
12291TIP3    H158288   0.388   4.033  13.094 -0.2428  1.9615 -0.1515
12291TIP3    H258289   0.303   3.920  13.040  1.6521  0.3751  0.1349
12292TIP3   OH258290   0.366   3.500   3.621  0.1050  1.0434 -0.5019
12292TIP3    H158291   0.301   3.554   3.576 -0.0109  1.2316 -0.1134
12292TIP3    H258292   0.430   3.563   3.655 -0.7751  1.0675  1.1661
12293TIP3   OH258293   4.144   1.498  15.770  0.0575  0.2713  0.4650
12293TIP3    H158294   4.227   1.518  15.726  1.3406 -1.8865  1.8323
12293TIP3    H258295   4.141   1.403  15.775 -2.7970  0.2770 -0.0237
12294TIP3   OH258296   0.139   3.228  16.367  0.1969  0.9178 -0.0759
12294TIP3    H158297   0.161   3.146  16.322  0.7089 -0.1128  1.9665
12294TIP3    H258298   0.060   3.206  16.418  1.6090  1.0008  2.2193
12295TIP3   OH258299   4.969   0.238  15.947  0.1257 -0.0123  0.2748
12295TIP3    H158300   5.033   0.219  15.879  2.0159  0.1273  1.9663
12295TIP3    H258301   5.013   0.215  16.029 -2.0412 -0.0303  1.4729
12296TIP3   OH258302   0.614   4.635   1.448 -0.0228  0.5195 -0.1816
12296TIP3    H158303   0.690   4.601   1.402 -0.0337  1.6056 -1.0262
12296TIP3    H258304   0.650   4.697   1.511  0.0395 -1.3723  1.6872
12297TIP3   OH258305   0.894   2.375  15.718  0.2494  0.1112  0.4090
12297TIP3    H158306   0.923   2.465  15.730 -0.7453  0.4146  0.6097
12297TIP3    H258307   0.964   2.333  15.668 -0.2330  1.5249 -1.4884
12298TIP3   OH258308   0.018   4.454  11.162  0.2132 -0.3862 -0.1811
12298TIP3    H158309   0.049   4.544  11.173  0.6829 -0.5537 -0.1205
12298TIP3    H258310  -0.039   4.439  11.237 -0.9888  0.3286 -0.9406
12299TIP3   OH258311   0.690   0.646  10.746 -0.1871  0.3522 -0.1086
12299TIP3    H158312   0.767   0.629  10.692 -1.1259  1.7516 -1.9382
12299TIP3    H258313   0.616   0.623  10.691 -1.1410  0.5126  1.0688
12300TIP3   OH258314   6.770   6.509  16.918  0.4245  0.4491 -0.2541
12300TIP3    H158315   6.750   6.440  16.855 -0.9172 -0.1312  0.7722
12300TIP3    H258316   6.703   6.500  16.986  2.0267  0.8187  1.4436
12301TIP3   OH258317   5.219   2.982  14.368  0.3529 -0.7530  0.2297
12301TIP3    H158318   5.207   2.995  14.462  0.8859  0.3341  0.1516
12301TIP3    H258319   5.209   3.069  14.329  2.0924 -0.8508 -0.4916
12302TIP3   OH258320   6.318   3.811  15.401  0.0230 -0.0710 -0.2819
12302TIP3    H158321   6.314   3.816  15.305  1.3956 -0.5787 -0.3806
12302TIP3    H258322   6.267   3.733  15.423  1.2122 -1.0019 -0.7520
12303TIP3   OH258323   5.104   5.225   5.171  0.0136 -0.3295  0.0902
12303TIP3    H158324   5.096   5.193   5.260 -1.4531  2.3352  0.9890
12303TIP3    H258325   5.016   5.218   5.134  0.2132  0.2681 -0.5268
12304TIP3   OH258326   2.913   5.570  13.729  0.4877  0.6216 -0.4527
12304TIP3    H158327   2.953   5.516  13.797 -0.8122  1.9485  1.4129
12304TIP3    H258328   2.824   5.535  13.720  0.5983  0.5581 -1.3652
12305TIP3   OH258329   6.240   2.813  13.141 -0.5106 -0.5407  0.3123
12305TIP3    H158330   6.177   2.745  13.161  1.0477 -1.9415  0.5940
12305TIP3    H258331   6.249   2.863  13.222 -1.8914  0.2228  0.0097
12306TIP3   OH258332   2.459   5.315  12.406  0.1261  0.1867  0.1714
12306TIP3    H158333   2.459   5.276  12.318  1.7035  1.2394 -0.3276
12306TIP3    H258334   2.370   5.304  12.438 -0.2607 -0.9264 -1.2486
12307TIP3   OH258335   3.062   5.168  13.616 -0.4063 -0.4986 -0.1440
12307TIP3    H158336   3.058   5.242  13.677 -0.7085 -0.2113 -0.5041
12307TIP3    H258337   3.041   5.206  13.531 -2.4525 -1.3171 -0.0424
12308TIP3   OH258338   2.166   2.421   0.475  0.6203 -0.5635 -0.2583
12308TIP3    H158339   2.224   2.361   0.522  2.9154  1.0137 -0.9892
12308TIP3    H258340   2.194   2.415   0.383 -0.3899  0.2168 -0.6296
12309TIP3   OH258341   2.833   1.187   6.140  0.1718 -0.3463  0.4602
12309TIP3    H158342   2.904   1.181   6.204  0.9716 -1.6390 -0.5123
12309TIP3    H258343   2.784   1.105   6.151 -1.9510  1.0925  1.9992
12310TIP3   OH258344   1.027   2.304   5.111 -0.3397  0.4004 -0.0751
12310TIP3    H158345   1.056   2.395   5.098 -0.8057  0.4974 -0.4401
12310TIP3    H258346   0.941   2.300   5.069 -0.6434 -0.0192  0.5799
12311TIP3   OH258347   0.585   3.894   5.669  0.3465  0.1661  0.2669
12311TIP3    H158348   0.528   3.887   5.593 -0.3525  1.4064  0.6671
12311TIP3    H258349   0.527   3.922   5.740  0.9585 -1.0945  1.2988
12312TIP3   OH258350   1.387   0.327   5.766  0.0563  0.0580  0.2809
12312TIP3    H158351   1.403   0.273   5.689  0.3095 -0.2949  0.5779
12312TIP3    H258352   1.384   0.265   5.839 -2.6534  0.1149  0.2482
12313TIP3   OH258353   4.191   4.502  13.731 -0.0512 -0.3667  0.1339
12313TIP3    H158354   4.228   4.586  13.706 -0.7817 -0.1403 -0.2024
12313TIP3    H258355   4.232   4.439  13.671  1.3614 -0.4212  1.1484
12314TIP3   OH258356   0.408   4.810   6.624 -0.3499  0.7150  0.2105
12314TIP3    H158357   0.452   4.729   6.650  0.3424  1.3497  1.0525
12314TIP3    H258358   0.464   4.879   6.659 -0.9487  1.5580 -0.4870
12315TIP3   OH258359   0.315   5.736   5.341  0.2434 -0.3174 -0.0868
12315TIP3    H158360   0.302   5.802   5.273 -0.9858  0.6162  1.0078
12315TIP3    H258361   0.229   5.730   5.384  0.8652 -1.2541  1.0449
12316TIP3   OH258362   0.597   2.590   6.785  0.3445 -0.0587  0.3859
12316TIP3    H158363   0.575   2.507   6.745  1.0130 -0.7424  1.4133
12316TIP3    H258364   0.526   2.649   6.759 -0.0923 -0.9233 -0.3958
12317TIP3   OH258365   1.711   6.033  14.566 -0.2599  0.5663  0.1615
12317TIP3    H158366   1.750   5.983  14.638 -1.9751  0.3187  0.9619
12317TIP3    H258367   1.698   6.121  14.601 -0.2360  0.6959 -0.1511
12318TIP3   OH258368   4.023   3.837  12.435 -0.3436 -0.1655  0.0611
12318TIP3    H158369   4.078   3.881  12.501  0.2579 -0.9369  0.0828
12318TIP3    H258370   4.015   3.747  12.466 -1.4815 -0.1081 -0.0429
12319TIP3   OH258371   2.568   1.402  12.192  0.0846 -0.4001  0.0368
12319TIP3    H158372   2.563   1.467  12.123  0.3650 -0.3564  0.0575
12319TIP3    H258373   2.655   1.414  12.231 -0.1711 -0.2496  0.5681
12320TIP3   OH258374   5.788   0.204  14.071 -0.4244  0.0574  0.0691
12320TIP3    H158375   5.737   0.263  14.015 -0.3745  0.4280  0.4134
12320TIP3    H258376   5.878   0.232  14.059 -0.6197  1.7098  2.1685
12321TIP3   OH258377   4.457   2.710   5.514 -0.4699 -0.2280  0.3786
12321TIP3    H158378   4.497   2.708   5.600  0.8979 -1.0352 -0.2634
12321TIP3    H258379   4.432   2.619   5.497 -0.0652 -0.2012 -0.3790
12322TIP3   OH258380   3.159   4.930  16.603 -0.4196  0.2430 -0.0791
12322TIP3    H158381   3.080   4.919  16.655  0.3676 -2.3783  0.6329
12322TIP3    H258382   3.230   4.899  16.659  0.9314  1.0211 -1.3039
12323TIP3   OH258383   0.056   5.684   1.889 -0.2207  0.5216 -0.1667
12323TIP3    H158384   0.098   5.729   1.816  1.7739 -0.0814  0.5665
12323TIP3    H258385   0.128   5.665   1.950 -1.6092 -0.3142  1.2545
12324TIP3   OH258386   6.701   6.159  13.537 -0.1611 -0.4525  0.1015
12324TIP3    H158387   6.645   6.193  13.467 -0.8781 -0.8879  0.4609
12324TIP3    H258388   6.737   6.237  13.579 -0.2085 -0.1772 -0.3557
12325TIP3   OH258389   6.484   1.462   0.386  0.5044 -0.4613 -0.7478
12325TIP3    H158390   6.465   1.499   0.472 -0.0901 -1.8494 -0.2783
12325TIP3    H258391   6.561   1.511   0.356 -0.9946  1.9995 -0.6894
12326TIP3   OH258392   0.630   2.676  16.250 -0.1888  0.2283  0.0648
12326TIP3    H158393   0.604   2.763  16.281 -0.6567  0.2998 -0.5128
12326TIP3    H258394   0.719   2.688  16.218 -0.0646  0.3808  0.4760
12327TIP3   OH258395   6.005   2.321   0.895 -0.4707  0.1249 -0.1043
12327TIP3    H158396   5.948   2.357   0.963  0.1929  2.2342 -0.6013
12327TIP3    H258397   5.946   2.299   0.823 -0.7699  1.6387 -0.3496
12328TIP3   OH258398   4.414   5.708   5.025 -0.1606 -0.0909  0.4148
12328TIP3    H158399   4.455   5.699   5.111  1.3623 -2.4045 -0.5242
12328TIP3    H258400   4.414   5.619   4.989 -0.5356  0.9065 -2.1079
12329TIP3   OH258401   2.884   5.084  11.768 -0.0832 -0.2149 -0.3891
12329TIP3    H158402   2.863   5.173  11.794  1.5755  0.4470 -1.1858
12329TIP3    H258403   2.918   5.043  11.848  0.3656  0.2766 -0.3226
12330TIP3   OH258404   2.652   0.359   5.393 -0.0493 -0.2289  0.7430
12330TIP3    H158405   2.587   0.355   5.323 -2.2216 -0.8158  2.7245
12330TIP3    H258406   2.706   0.281   5.381 -2.4204 -2.0567  1.5660
12331TIP3   OH258407   6.608   1.687  15.458  0.0869  0.3240 -0.0952
12331TIP3    H158408   6.619   1.761  15.399 -0.4708  0.4713 -0.0151
12331TIP3    H258409   6.668   1.620  15.424 -0.5376  0.2584 -1.0679
12332TIP3   OH258410   0.496   4.655  13.195 -0.0376  0.4519  0.0970
12332TIP3    H158411   0.495   4.731  13.136 -2.0731  0.1962 -0.2451
12332TIP3    H258412   0.506   4.692  13.282  1.5114  0.9315 -0.2657
12333TIP3   OH258413   2.042   0.037   3.468  0.4360 -0.7539  0.3586
12333TIP3    H158414   1.992   0.092   3.527 -1.0591 -1.8850  0.1592
12333TIP3    H258415   2.021  -0.053   3.494  0.1539 -1.2644 -1.5506
12334TIP3   OH258416   5.549   4.845   2.053 -0.8843 -0.1125  0.2634
12334TIP3    H158417   5.573   4.876   1.966 -0.2929  1.5126  0.9698
12334TIP3    H258418   5.623   4.792   2.082  0.4479  2.1154  1.0912
12335TIP3   OH258419   4.940   4.045   1.935 -0.3820 -0.0066 -0.2659
12335TIP3    H158420   4.999   4.002   1.997  0.2790 -0.0992 -0.9517
12335TIP3    H258421   4.963   4.138   1.940 -0.1413 -0.0507 -0.5776
12336TIP3   OH258422   0.966   4.408   3.401 -0.6383  0.2583  0.1689
12336TIP3    H158423   0.917   4.360   3.467 -1.3584  0.8594  0.0825
12336TIP3    H258424   0.980   4.344   3.330  0.1031 -0.3715  0.8850
12337TIP3   OH258425   5.771   2.669  13.246  0.0128 -0.8652  0.2201
12337TIP3    H158426   5.682   2.641  13.229  0.4456 -1.7166 -0.7159
12337TIP3    H258427   5.768   2.765  13.243 -0.7726 -0.9073 -0.3005
12338TIP3   OH258428   1.545   5.336  13.366  0.0460  0.0017  0.1477
12338TIP3    H158429   1.629   5.367  13.333  0.1933  1.1468  1.5419
12338TIP3    H258430   1.506   5.412  13.408 -1.5154 -0.6279 -0.1386
12339TIP3   OH258431   0.480   5.452   0.767 -0.7460  0.1555 -0.1808
12339TIP3    H158432   0.475   5.401   0.848 -0.9248 -1.0293 -0.9320
12339TIP3    H258433   0.435   5.399   0.701 -1.3047  1.4631 -0.8928
12340TIP3   OH258434   0.892   2.073  15.106  0.2743  0.3969  0.1755
12340TIP3    H158435   0.874   2.081  15.012  0.4636 -0.6039  0.0444
12340TIP3    H258436   0.902   2.163  15.137 -0.4113  0.7526 -0.6447
12341TIP3   OH258437   1.635   1.293   4.707 -0.1372  0.6168  0.1576
12341TIP3    H158438   1.687   1.368   4.678  0.2653  0.9849  1.7676
12341TIP3    H258439   1.545   1.325   4.708  0.1332  1.4217  1.7680
12342TIP3   OH258440   0.628   6.312   0.664  0.1128  0.2315 -0.1348
12342TIP3    H158441   0.586   6.246   0.718 -1.8645  0.6815 -1.0601
12342TIP3    H258442   0.669   6.372   0.727  0.3452 -0.8444  0.7558
12343TIP3   OH258443   1.034   6.154   3.084 -0.1183  1.2148  0.0630
12343TIP3    H158444   1.037   6.105   3.167 -2.9986 -0.0423 -0.5003
12343TIP3    H258445   1.036   6.087   3.016 -2.5515  1.9050 -0.7574
12344TIP3   OH258446   4.508   2.747  14.706  0.7961 -0.2567  0.3493
12344TIP3    H158447   4.511   2.832  14.751  1.6535 -0.5645  0.8920
12344TIP3    H258448   4.547   2.686  14.769  0.0851 -1.0704  0.0003
12345TIP3   OH258449   3.400   5.236  15.676 -0.1399 -0.3161  0.2820
12345TIP3    H158450   3.464   5.304  15.699 -1.4122  0.1285  2.7380
12345TIP3    H258451   3.346   5.276  15.608  2.1185 -0.6865 -1.8150
12346TIP3   OH258452   0.294   6.624  15.438  0.2957  0.0204  0.4118
12346TIP3    H158453   0.372   6.573  15.415  0.8187  1.1735 -0.4732
12346TIP3    H258454   0.247   6.633  15.355  0.1089  0.7876  0.5971
12347TIP3   OH258455   0.646   3.857  16.430  0.1838 -0.1431 -0.0576
12347TIP3    H158456   0.552   3.871  16.422  0.4749  1.6562 -0.5128
12347TIP3    H258457   0.677   3.852  16.339  0.3995 -1.6829  0.0907
12348TIP3   OH258458   5.783   6.143   3.470  0.4114  0.1587  0.5992
12348TIP3    H158459   5.822   6.212   3.416  2.0544  0.1908  1.7731
12348TIP3    H258460   5.698   6.178   3.497  1.4193  1.9361  1.5464
12349TIP3   OH258461   0.743   2.949   1.416  0.0473  0.0999 -0.0044
12349TIP3    H158462   0.767   2.956   1.324 -0.2243  3.2560  0.1311
12349TIP3    H258463   0.818   2.906   1.458  0.8455  0.1129 -1.4038
12350TIP3   OH258464   1.863   3.518   0.591 -0.5846 -0.2998  0.2044
12350TIP3    H158465   1.890   3.586   0.653 -1.2457 -0.7231  0.9597
12350TIP3    H258466   1.778   3.548   0.558  0.2109  0.4232 -1.2613
12351TIP3   OH258467   4.126   0.352   5.058  0.0789  0.4224  0.1495
12351TIP3    H158468   4.204   0.313   5.098 -0.1651  0.9277  1.1503
12351TIP3    H258469   4.084   0.398   5.130 -1.9310 -1.0715 -0.0279
12352TIP3   OH258470   6.041   5.883  15.276 -0.7118 -0.2013  0.4637
12352TIP3    H158471   6.115   5.847  15.325  0.5344  1.6312 -0.0001
12352TIP3    H258472   6.082   5.928  15.201 -2.3819 -0.3205 -0.5562
12353TIP3   OH258473   0.085   3.014  13.377 -0.1562 -0.6096 -0.5413
12353TIP3    H158474   0.001   2.969  13.366 -0.2390 -0.4022 -0.7769
12353TIP3    H258475   0.143   2.948  13.414 -0.0445 -1.1667 -1.6866
12354TIP3   OH258476   1.034   6.021  16.695 -0.0620 -0.2114  0.0706
12354TIP3    H158477   0.944   6.051  16.683  0.4422  0.8117 -1.2184
12354TIP3    H258478   1.075   6.088  16.749 -0.5683 -1.6209  2.2537
12355TIP3   OH258479   3.219   1.835  13.061  0.1558  0.2582  0.3663
12355TIP3    H158480   3.236   1.850  12.968  1.3337 -1.0861  0.3523
12355TIP3    H258481   3.224   1.740  13.072 -0.4857  0.3599  1.7053
12356TIP3   OH258482   1.737   0.484   5.523 -0.6222  0.6954  0.1989
12356TIP3    H158483   1.695   0.406   5.489 -1.5875  0.7618  1.1828
12356TIP3    H258484   1.826   0.482   5.487 -1.8074  1.1765 -2.9204
12357TIP3   OH258485   5.079   2.485  15.321 -0.4196  0.2894 -0.4144
12357TIP3    H158486   4.997   2.524  15.291 -0.0930  1.2947 -0.0353
12357TIP3    H258487   5.057   2.395  15.344 -1.5818  0.7758  0.4023
12358TIP3   OH258488   0.859   5.369   1.834  0.2088  0.2637  0.1687
12358TIP3    H158489   0.891   5.281   1.855  0.9563  0.5232  0.1625
12358TIP3    H258490   0.877   5.378   1.740 -0.4196  0.1993  0.0428
12359TIP3   OH258491   3.191   1.045   2.727  0.5931  0.4818 -0.2968
12359TIP3    H158492   3.207   0.951   2.719 -0.2067  0.4580 -1.7934
12359TIP3    H258493   3.254   1.085   2.668  0.0140  0.8051 -0.7007
12360TIP3   OH258494   1.974   0.275   0.778  0.2229 -0.0227  0.1485
12360TIP3    H158495   1.904   0.337   0.799  0.9125  0.5035  0.9339
12360TIP3    H258496   1.950   0.195   0.825  0.2182  0.2025  0.5339
12361TIP3   OH258497   4.499   0.992  14.710  0.5243  0.3696  0.0524
12361TIP3    H158498   4.593   0.984  14.724  0.6734  0.0603 -1.1229
12361TIP3    H258499   4.466   1.033  14.790  1.7080  0.8489  0.2927
12362TIP3   OH258500   6.247   6.304   2.668  0.1244  0.3831  0.5937
12362TIP3    H158501   6.342   6.300   2.680  0.0925  1.0304  1.1040
12362TIP3    H258502   6.212   6.304   2.757 -0.3841 -0.4826  0.3931
12363TIP3   OH258503   6.554   5.816  11.148 -0.3314 -0.9656 -0.2561
12363TIP3    H158504   6.528   5.849  11.062  1.7160  1.7221  0.0857
12363TIP3    H258505   6.628   5.871  11.173 -0.1046 -2.5250  2.6853
12364TIP3   OH258506   6.246   1.472  12.040  0.4600 -0.1459  0.4914
12364TIP3    H158507   6.307   1.538  12.073 -0.3833  0.5883  0.6293
12364TIP3    H258508   6.213   1.428  12.119  0.8882 -0.6121  0.4104
12365TIP3   OH258509   1.849   3.049   3.662  0.2042  0.5076 -0.3630
12365TIP3    H158510   1.847   2.972   3.718  0.8599  0.1417 -0.8476
12365TIP3    H258511   1.784   3.030   3.594 -1.7808  1.6404  1.1651
12366TIP3   OH258512   0.142   5.951  12.933 -0.5214 -0.1238  0.3520
12366TIP3    H158513   0.174   5.870  12.893 -2.2913 -0.9860  0.6665
12366TIP3    H258514   0.108   6.003  12.860 -1.4288 -0.6155  0.4267
12367TIP3   OH258515   3.385   4.712  13.573  0.0754 -0.5309 -0.3605
12367TIP3    H158516   3.414   4.635  13.622  1.5406 -0.0498 -0.4507
12367TIP3    H258517   3.363   4.678  13.486 -2.2681 -1.3372  0.4935
12368TIP3   OH258518   1.665   2.938   3.239 -0.6702  0.4361  0.2411
12368TIP3    H158519   1.688   2.993   3.314 -2.2615 -0.9934  1.8070
12368TIP3    H258520   1.578   2.967   3.214  0.9141  2.8318 -2.9084
12369TIP3   OH258521   0.659   1.748  11.562  0.4226 -0.1356 -0.9271
12369TIP3    H158522   0.583   1.804  11.578 -0.0881 -0.5551 -1.9164
12369TIP3    H258523   0.728   1.809  11.535  0.1443  0.1277 -1.0428
12370TIP3   OH258524   4.084   3.641   1.925 -0.3145  0.0874  0.6502
12370TIP3    H158525   4.119   3.699   1.992  0.9428  0.9870 -0.7682
12370TIP3    H258526   4.145   3.648   1.852 -2.2104 -0.0711 -1.0036
12371TIP3   OH258527   6.006   3.346  15.476  0.0609 -0.7725 -0.0841
12371TIP3    H158528   5.949   3.276  15.509  0.8672 -1.5981 -0.4202
12371TIP3    H258529   6.095   3.316  15.498  0.3597  0.5521  0.5309
12372TIP3   OH258530   1.982   0.080   3.197 -0.4189 -0.6897  0.1092
12372TIP3    H158531   2.024   0.082   3.283 -0.4944 -2.1959  0.1877
12372TIP3    H258532   1.921   0.153   3.199  0.9751  0.4879  0.6188
12373TIP3   OH258533   3.952   1.109  15.873  0.3091  0.3377 -0.1633
12373TIP3    H158534   4.040   1.137  15.850  0.3108  0.0035 -0.5689
12373TIP3    H258535   3.904   1.190  15.886  0.3521  0.5332 -1.1865
12374TIP3   OH258536   0.402   2.185  12.262  0.5999 -1.0014 -0.1294
12374TIP3    H158537   0.474   2.137  12.224  1.6651 -0.6345  1.3659
12374TIP3    H258538   0.376   2.248  12.195  0.9569 -1.8539 -1.0712
12375TIP3   OH258539   4.385   3.812  16.802 -0.1848 -0.5135  0.0056
12375TIP3    H158540   4.347   3.861  16.729 -1.2447 -1.0282  0.2109
12375TIP3    H258541   4.370   3.867  16.879 -1.2482 -1.0974  0.2134
12376TIP3   OH258542   5.176   3.488   6.042 -0.3374  0.1025  0.0917
12376TIP3    H158543   5.221   3.529   6.115  0.8068  0.5397 -0.8403
12376TIP3    H258544   5.128   3.559   6.000 -0.0720  0.0721 -0.2635
12377TIP3   OH258545   6.140   6.043  12.217 -0.0940  0.7677  0.3943
12377TIP3    H158546   6.201   5.969  12.221 -1.6271 -0.6191 -1.3096
12377TIP3    H258547   6.090   6.029  12.136 -0.3263  3.7388 -0.0322
12378TIP3   OH258548   1.725   0.524  11.970  0.2300 -0.3772  0.2475
12378TIP3    H158549   1.735   0.437  11.932  0.1610 -0.2177 -0.1453
12378TIP3    H258550   1.720   0.583  11.894 -0.2237 -0.0881  0.4958
12379TIP3   OH258551   0.918   0.504   5.597 -0.0438 -0.3836 -0.3624
12379TIP3    H158552   0.933   0.596   5.573  1.8732 -0.6652 -0.3933
12379TIP3    H258553   0.999   0.478   5.641 -0.4504 -2.1363 -0.6121
12380TIP3   OH258554   0.185   2.580   1.373 -0.0993  0.4462  0.0306
12380TIP3    H158555   0.232   2.658   1.342  2.4344 -0.6177  0.9927
12380TIP3    H258556   0.238   2.507   1.340 -1.5631 -0.8224  0.4687
12381TIP3   OH258557   6.161   2.963   4.761  0.1565  0.2024  0.5088
12381TIP3    H158558   6.219   2.890   4.739  2.5794  1.1729  3.3287
12381TIP3    H258559   6.161   2.966   4.857 -2.0499  2.2360  0.4950
12382TIP3   OH258560   3.664   0.446  12.443 -0.2985 -0.1694 -0.1255
12382TIP3    H158561   3.592   0.414  12.389 -0.3451 -1.9744  0.9958
12382TIP3    H258562   3.623   0.506  12.505 -0.4956  0.5158 -0.8980
12383TIP3   OH258563   5.570   0.457   4.497  0.3081 -0.5469  0.3955
12383TIP3    H158564   5.617   0.393   4.443  0.1188 -0.4845  0.1557
12383TIP3    H258565   5.594   0.434   4.587  1.1717 -0.2254  0.2515
12384TIP3   OH258566   6.763   2.922   0.456  0.9296 -0.3459 -0.4411
12384TIP3    H158567   6.760   2.848   0.397  0.0937  1.0698 -2.2215
12384TIP3    H258568   6.854   2.952   0.454  1.0738 -0.7819 -0.3876
12385TIP3   OH258569   5.249   6.528  13.016 -0.5611  0.8276 -0.3101
12385TIP3    H158570   5.224   6.563  12.931  1.1444  2.2996 -0.2217
12385TIP3    H258571   5.261   6.606  13.071  1.7995  0.0651  0.2963
12386TIP3   OH258572   3.654   1.646  10.624  0.0742  0.3386 -0.6647
12386TIP3    H158573   3.634   1.606  10.539  1.9535 -0.0451 -0.9430
12386TIP3    H258574   3.702   1.578  10.671 -0.4956  0.7459  0.5215
12387TIP3   OH258575   4.219   4.717   5.366 -0.2418  0.0713  0.6528
12387TIP3    H158576   4.153   4.779   5.397  0.5719  1.1082  0.3050
12387TIP3    H258577   4.187   4.690   5.280 -0.5607  0.0443  0.7771
12388TIP3   OH258578   5.122   1.154   4.688  0.0998  0.4887  0.0754
12388TIP3    H158579   5.114   1.194   4.774  0.6868  0.6404  0.0641
12388TIP3    H258580   5.194   1.201   4.646 -1.6851  1.9824 -1.3709
12389TIP3   OH258581   0.386   2.814  15.837  0.3147 -0.4834  0.1577
12389TIP3    H158582   0.353   2.749  15.898 -2.4223 -0.0253 -0.7704
12389TIP3    H258583   0.399   2.893  15.890  0.5143 -0.8329  0.6356
12390TIP3   OH258584   5.801   0.792  12.708  0.3078 -0.2444 -0.7577
12390TIP3    H158585   5.835   0.706  12.732  0.6226 -0.5815 -2.3516
12390TIP3    H258586   5.724   0.774  12.653  0.7561  0.4644 -1.6436
12391TIP3   OH258587   6.609   5.386   4.387  0.4631  0.0475  0.2353
12391TIP3    H158588   6.677   5.347   4.332  0.1805  0.2406 -0.2506
12391TIP3    H258589   6.548   5.314   4.405  0.2215  0.1377 -0.2242
12392TIP3   OH258590   0.920   5.424   4.587 -0.1243 -0.1113 -0.5098
12392TIP3    H158591   1.007   5.444   4.553  0.2620 -2.3026 -0.9355
12392TIP3    H258592   0.936   5.385   4.673 -0.6202 -1.2067 -0.9003
12393TIP3   OH258593   1.635   4.124  11.342 -0.0722 -0.5389 -0.4084
12393TIP3    H158594   1.556   4.121  11.396 -0.6877  0.4340 -1.2521
12393TIP3    H258595   1.640   4.214  11.311  1.3283 -0.6116 -0.4370
12394TIP3   OH258596   4.699   3.732   5.152  1.0314  0.0362 -0.5310
12394TIP3    H158597   4.643   3.693   5.219 -1.5271  2.3279 -1.2756
12394TIP3    H258598   4.735   3.810   5.192  0.0089  1.0652 -1.5716
12395TIP3   OH258599   0.026   6.777   1.843 -0.1131 -0.1286 -0.0204
12395TIP3    H158600   0.085   6.715   1.886 -0.5098 -0.1483  0.4971
12395TIP3    H258601  -0.035   6.722   1.794  0.7055 -0.0916 -1.1085
12396TIP3   OH258602   5.752   0.322   3.511 -0.1850  0.3743 -0.1659
12396TIP3    H158603   5.828   0.339   3.455  0.7035 -0.8361  0.6666
12396TIP3    H258604   5.729   0.231   3.494 -1.6341  0.8019 -0.6065
12397TIP3   OH258605   1.806   1.838   3.154 -0.2785 -0.5209 -0.3688
12397TIP3    H158606   1.726   1.829   3.102 -0.2028 -0.7422 -0.4518
12397TIP3    H258607   1.789   1.910   3.214 -1.3257 -1.9314  1.0522
12398TIP3   OH258608   5.175   3.025   2.314  0.2679 -0.2104  0.4925
12398TIP3    H158609   5.222   3.107   2.301  0.5135 -0.0515  2.3053
12398TIP3    H258610   5.167   2.987   2.226  1.1545  1.1940 -0.1970
12399TIP3   OH258611   1.945   4.380   2.097 -0.1483 -0.2025 -0.8218
12399TIP3    H158612   1.923   4.290   2.072 -1.6431  0.3727 -1.6065
12399TIP3    H258613   1.865   4.429   2.083 -0.3305  0.6445  2.8063
12400TIP3   OH258614   0.543   2.826   5.205  0.7400 -0.5536 -0.2805
12400TIP3    H158615   0.519   2.736   5.224  0.5683 -0.4649 -0.0728
12400TIP3    H258616   0.520   2.838   5.113  1.4025 -0.9262 -0.4922
12401TIP3   OH258617   1.597   3.075   3.467 -0.3521  0.0642 -0.0722
12401TIP3    H158618   1.507   3.042   3.458 -0.2751  0.2670 -1.7730
12401TIP3    H258619   1.587   3.170   3.466 -0.0597  0.0913 -1.0436
12402TIP3   OH258620   4.476   3.195  11.508  0.3056  0.2791 -0.2510
12402TIP3    H158621   4.450   3.258  11.441 -0.0172 -1.1997 -1.5351
12402TIP3    H258622   4.572   3.201  11.511  0.2863  0.7030 -0.4890
12403TIP3   OH258623   5.608   1.172   5.126 -0.9347 -0.0757  0.2417
12403TIP3    H158624   5.525   1.154   5.169 -1.0365  0.1092  0.1251
12403TIP3    H258625   5.637   1.256   5.163 -1.3269  0.3943 -0.4905
12404TIP3   OH258626   2.780   5.226  13.571  0.2927  0.0582  0.0116
12404TIP3    H158627   2.768   5.139  13.609 -0.1615  0.4325  0.7201
12404TIP3    H258628   2.754   5.287  13.640 -0.8170  0.7262 -0.9819
12405TIP3   OH258629   1.656   2.853  14.671  0.4802 -0.3385 -0.5303
12405TIP3    H158630   1.713   2.814  14.605  1.6587 -0.5762  0.6126
12405TIP3    H258631   1.649   2.786  14.739  0.1469  0.3136  0.0871
12406TIP3   OH258632   0.439   6.398  10.913  0.5497  0.4553  0.0370
12406TIP3    H158633   0.464   6.393  10.821  0.1050  1.2340 -0.1351
12406TIP3    H258634   0.491   6.470  10.949  0.4931  0.3610  0.3143
12407TIP3   OH258635   5.463   2.928  13.695 -0.3439 -0.2794  0.0790
12407TIP3    H158636   5.394   2.918  13.760 -1.0401 -1.5371 -0.8225
12407TIP3    H258637   5.459   3.019  13.668 -1.1895 -0.1782  0.5464
12408TIP3   OH258638   3.875   3.145   5.386 -0.4950  0.0161  0.4728
12408TIP3    H158639   3.959   3.099   5.380 -1.6703 -1.8967 -1.9494
12408TIP3    H258640   3.812   3.077   5.410 -1.8013  0.8764 -0.4646
12409TIP3   OH258641   5.210   5.080  11.301  0.4324  0.6338  0.0801
12409TIP3    H158642   5.114   5.088  11.295  0.4262  0.3783 -0.1670
12409TIP3    H258643   5.242   5.146  11.239  0.3828 -0.9792 -1.7082
12410TIP3   OH258644   2.838   0.557   3.854  0.0951  0.1030  0.5978
12410TIP3    H158645   2.860   0.648   3.834  3.0765 -0.8621 -0.8613
12410TIP3    H258646   2.788   0.562   3.935 -3.0046  3.3191 -1.3363
12411TIP3   OH258647   4.539   1.183   5.117  0.2877 -0.2108 -0.3276
12411TIP3    H158648   4.610   1.152   5.061 -0.5277 -1.2029 -0.8430
12411TIP3    H258649   4.486   1.239   5.060 -0.4175 -1.0387 -0.5011
12412TIP3   OH258650   6.281   0.264   6.370 -0.3549 -0.2777  0.2455
12412TIP3    H158651   6.256   0.172   6.372 -0.1800 -0.3651 -0.9948
12412TIP3    H258652   6.290   0.289   6.462 -0.1839 -1.5576  0.5830
12413TIP3   OH258653   5.405   2.253   0.245 -0.2221 -0.4714  0.2712
12413TIP3    H158654   5.500   2.258   0.254  0.0064 -0.3404 -2.0327
12413TIP3    H258655   5.374   2.342   0.263  0.2862 -0.0142 -1.1001
12414TIP3   OH258656   5.639   5.461   1.832 -0.7393  0.0018 -0.8154
12414TIP3    H158657   5.697   5.386   1.827 -1.7959 -0.8673 -0.3450
12414TIP3    H258658   5.576   5.448   1.761 -1.6794 -0.2172  0.0508
12415TIP3   OH258659   4.649   1.173  13.090  0.1789  0.5823 -0.3645
12415TIP3    H158660   4.636   1.179  13.185 -1.0269  1.1873 -0.5523
12415TIP3    H258661   4.580   1.229  13.053  1.1993  1.0673 -1.5707
12416TIP3   OH258662   3.133   2.753  14.973  0.1207 -0.2476 -0.2237
12416TIP3    H158663   3.117   2.846  14.955  0.5809 -0.1597 -0.1797
12416TIP3    H258664   3.206   2.753  15.035  0.9571 -0.6846 -1.2037
12417TIP3   OH258665   4.632   2.035   6.104 -0.9755  0.0570  0.2718
12417TIP3    H158666   4.581   1.955   6.117  0.1878 -0.8595 -0.6741
12417TIP3    H258667   4.702   2.009   6.043 -0.4413  1.7297  0.1547
12418TIP3   OH258668   4.139   3.033   0.371  0.7125 -0.2426 -0.0792
12418TIP3    H158669   4.056   2.987   0.357  1.5803 -1.4394 -1.4078
12418TIP3    H258670   4.130   3.114   0.321  0.1672 -0.1509  0.1631
12419TIP3   OH258671   6.473   0.957   3.062 -0.4034 -0.1928 -0.7917
12419TIP3    H158672   6.457   0.995   2.975 -1.1004  0.9368 -0.1882
12419TIP3    H258673   6.489   1.033   3.119 -0.7736 -0.8694  0.2287
12420TIP3   OH258674   5.195   4.387   4.435 -0.1656  0.3564 -0.6037
12420TIP3    H158675   5.254   4.430   4.374  0.1420  1.2860  0.3367
12420TIP3    H258676   5.230   4.407   4.522  1.3224 -3.7075 -0.1648
12421TIP3   OH258677   3.711   0.198   0.219  0.3664  0.4077 -0.3373
12421TIP3    H158678   3.761   0.250   0.157 -1.3968  0.2734 -1.8978
12421TIP3    H258679   3.630   0.176   0.173  0.2650 -2.1300  0.9629
12422TIP3   OH258680   0.516   3.785   0.631  0.0471  0.3185 -0.2827
12422TIP3    H158681   0.447   3.757   0.570  1.2631 -2.4325 -0.4753
12422TIP3    H258682   0.524   3.712   0.693  2.0343  1.0652  0.3622
12423TIP3   OH258683   4.116   2.757  14.004 -0.5716 -0.1765  0.6200
12423TIP3    H158684   4.113   2.840  14.051 -0.9955  0.4770 -0.5288
12423TIP3    H258685   4.046   2.764  13.939  0.9644 -0.4318 -1.1128
12424TIP3   OH258686   0.192   1.046  13.759  0.2984  0.1274  0.0251
12424TIP3    H158687   0.099   1.024  13.762  1.1135 -3.6580 -0.1769
12424TIP3    H258688   0.220   1.019  13.672  1.8231  0.1958  0.4883
12425TIP3   OH258689   3.460   4.337   1.277  0.3386 -0.3247 -0.0321
12425TIP3    H158690   3.451   4.360   1.184  1.2636  0.5625  0.0923
12425TIP3    H258691   3.379   4.369   1.318  0.8408  1.1314 -0.1725
12426TIP3   OH258692   4.337   3.654   3.565 -0.2602 -0.1077 -0.3810
12426TIP3    H158693   4.270   3.720   3.581 -1.6425 -1.7907  1.0318
12426TIP3    H258694   4.335   3.639   3.471 -2.0570 -0.3298 -0.3165
12427TIP3   OH258695   0.581   1.504  15.320 -0.3703 -0.1544 -0.3276
12427TIP3    H158696   0.540   1.564  15.383  0.3004  0.1545 -0.1750
12427TIP3    H258697   0.595   1.559  15.242  0.1560 -0.1446 -0.2230
12428TIP3   OH258698   4.219   1.599  16.741  0.0427 -0.0606 -0.2816
12428TIP3    H158699   4.296   1.594  16.798  0.4635  0.7008 -0.7739
12428TIP3    H258700   4.145   1.590  16.801  0.5074 -1.0791  0.1634
12429TIP3   OH258701   1.068   1.952  16.219  0.0260  0.0177  0.2386
12429TIP3    H158702   1.067   1.892  16.294  0.3757 -1.5087 -0.9487
12429TIP3    H258703   1.160   1.964  16.199 -0.0616  0.6094  0.1846
12430TIP3   OH258704   2.707   6.143   3.458 -0.0265  0.1372 -0.5749
12430TIP3    H158705   2.676   6.160   3.370 -0.1710  0.8832 -0.3825
12430TIP3    H258706   2.780   6.203   3.471  0.3603 -0.3633 -0.3877
12431TIP3   OH258707   3.145   1.703   3.930 -0.1710 -0.1572 -0.4858
12431TIP3    H158708   3.146   1.723   3.836 -0.1968  0.4440 -0.3583
12431TIP3    H258709   3.102   1.618   3.936  3.4015 -2.1614 -1.4214
12432TIP3   OH258710   2.137   5.902  12.868  0.6768 -0.7019 -0.4518
12432TIP3    H158711   2.174   5.828  12.917  0.5347 -0.3247  0.2247
12432TIP3    H258712   2.098   5.861  12.791  0.9488 -1.2978 -0.2810
12433TIP3   OH258713   1.664   5.297  16.598 -0.4684 -0.3890 -0.2273
12433TIP3    H158714   1.708   5.338  16.671  0.7454  0.4456 -1.4007
12433TIP3    H258715   1.707   5.212  16.588  0.0187 -0.1056 -0.5647
12434TIP3   OH258716   1.980   1.282  11.083  0.3703 -0.7685 -0.5457
12434TIP3    H158717   2.022   1.247  11.162  1.4205  1.8352  0.0997
12434TIP3    H258718   1.888   1.257  11.092  0.3386  0.0940  1.8853
12435TIP3   OH258719   3.597   4.245   5.572 -0.4066  0.4335  0.7186
12435TIP3    H158720   3.657   4.178   5.606 -0.7750 -0.5819 -0.5964
12435TIP3    H258721   3.519   4.236   5.626  0.2679  1.1470  1.8403
12436TIP3   OH258722   3.874   1.851  17.131  0.1461 -0.6740 -0.0570
12436TIP3    H158723   3.866   1.945  17.148 -2.4005 -0.8215 -0.1944
12436TIP3    H258724   3.964   1.839  17.103  0.9943  1.4772  1.5553
12437TIP3   OH258725   3.730   4.989   2.003 -0.1427 -0.5600  0.4391
12437TIP3    H158726   3.788   4.929   1.955  0.7187 -0.5536  1.4482
12437TIP3    H258727   3.649   4.990   1.952  0.2856 -1.5906 -0.2831
12438TIP3   OH258728   0.212   3.994  13.463 -0.4223  0.1655 -0.3875
12438TIP3    H158729   0.250   3.937  13.530 -0.6323 -0.8514 -1.1225
12438TIP3    H258730   0.235   4.083  13.492  1.4505 -0.3585 -0.1711
12439TIP3   OH258731   3.548   3.359   3.553  0.4921 -0.3996  0.0188
12439TIP3    H158732   3.623   3.327   3.502  1.4961 -0.0793  1.2661
12439TIP3    H258733   3.559   3.454   3.555  0.2897 -0.3863  0.5511
12440TIP3   OH258734   4.644   3.313  14.970  0.0791 -0.2983  0.0618
12440TIP3    H158735   4.561   3.323  14.923  0.7290 -1.2616 -1.3214
12440TIP3    H258736   4.707   3.289  14.902  1.8986  2.2074  0.8071
12441TIP3   OH258737   3.562   5.408  13.601  0.0620 -0.4079  0.0261
12441TIP3    H158738   3.472   5.392  13.630 -0.0270 -0.2855 -0.1825
12441TIP3    H258739   3.600   5.463  13.670  0.1932 -1.0289  0.4629
12442TIP3   OH258740   0.541   1.072  12.129 -0.3946  1.0412 -0.0224
12442TIP3    H158741   0.514   0.987  12.095 -0.8542  1.8063 -1.5887
12442TIP3    H258742   0.556   1.126  12.052 -1.2805  2.7535  0.9643
12443TIP3   OH258743   3.926   3.337  12.247  0.1680 -0.3877  0.2070
12443TIP3    H158744   3.859   3.305  12.186  0.0549  0.1877  0.0189
12443TIP3    H258745   3.948   3.424  12.213  0.3966 -0.2303  0.7605
12444TIP3   OH258746   0.784   1.375  10.922 -0.5696 -0.9734 -0.4000
12444TIP3    H158747   0.833   1.436  10.867 -0.3344 -0.0621  0.8188
12444TIP3    H258748   0.838   1.295  10.922  0.8734 -0.0236  0.8142
12445TIP3   OH258749   3.321   0.292   2.909 -0.3012  0.0450 -0.1519
12445TIP3    H158750   3.332   0.200   2.930  0.5485  0.2298  0.2191
12445TIP3    H258751   3.254   0.323   2.970  1.1740  0.2550  1.3813
12446TIP3   OH258752   1.336   2.827  15.245 -0.3771  0.5053  0.2224
12446TIP3    H158753   1.373   2.749  15.287  0.8184 -0.9988 -3.4303
12446TIP3    H258754   1.242   2.822  15.263 -0.0806 -0.8393  1.4873
12447TIP3   OH258755   1.154   2.050   5.181  1.0713  0.3941 -0.5307
12447TIP3    H158756   1.102   2.121   5.142  1.4774 -0.0481 -1.9212
12447TIP3    H258757   1.209   2.019   5.109 -0.7959 -2.9412 -0.6157
12448TIP3   OH258758   3.103   3.512   5.438 -0.4847  0.0756  0.2832
12448TIP3    H158759   3.108   3.478   5.527  1.6876  0.1985  0.2469
12448TIP3    H258760   3.163   3.587   5.438 -0.7628  0.3210 -1.1749
12449TIP3   OH258761   5.333   5.752   5.522 -0.5212  0.2207  0.2198
12449TIP3    H158762   5.403   5.687   5.516  0.5594  1.5840 -3.4072
12449TIP3    H258763   5.369   5.822   5.576  0.7418  0.6607 -1.1610
12450TIP3   OH258764   4.041   4.999   2.346 -0.1893 -0.7014 -0.1825
12450TIP3    H158765   4.130   4.965   2.347 -0.1542 -0.6992 -1.7865
12450TIP3    H258766   3.994   4.948   2.412  0.6759 -1.5791 -0.2466
12451TIP3   OH258767   4.698   5.880   5.482  0.1762 -0.2615  0.1501
12451TIP3    H158768   4.736   5.794   5.501  0.6599 -0.0830 -0.0332
12451TIP3    H258769   4.750   5.915   5.410  0.6354  0.6319  0.9069
12452TIP3   OH258770   3.171   1.839   3.710 -0.1777 -0.2522  0.5988
12452TIP3    H158771   3.086   1.850   3.667 -0.8204 -0.7732  1.7193
12452TIP3    H258772   3.226   1.797   3.644 -0.9511 -0.4355  0.0577
12453TIP3   OH258773   3.751   1.680  11.366 -0.2709  0.0467  0.8506
12453TIP3    H158774   3.659   1.655  11.368  0.0876 -1.4630 -0.4080
12453TIP3    H258775   3.756   1.755  11.307 -0.3952 -1.2324 -0.8045
12454TIP3   OH258776   4.006   4.164  16.126  0.2400  0.4600 -0.3455
12454TIP3    H158777   3.943   4.226  16.160  0.1787  0.1328  0.1559
12454TIP3    H258778   4.070   4.217  16.078 -0.4739  0.7750 -0.9467
12455TIP3   OH258779   2.727   5.861   6.040 -0.1604  0.5847  0.4419
12455TIP3    H158780   2.637   5.895   6.040 -0.3945 -0.0037  2.2276
12455TIP3    H258781   2.758   5.876   6.129  0.8143 -1.0915  0.3872
12456TIP3   OH258782   4.885   0.025   5.145 -0.2363  0.3517  0.0811
12456TIP3    H158783   4.978   0.003   5.154 -0.5670 -0.2926  2.1923
12456TIP3    H258784   4.851  -0.041   5.084  0.3671 -0.3266  0.4709
12457TIP3   OH258785   2.595   4.694   5.759  0.0229  0.2658  0.2838
12457TIP3    H158786   2.593   4.787   5.784 -0.1956  0.1464  0.7052
12457TIP3    H258787   2.663   4.689   5.692 -0.5442  0.8879 -0.3539
12458TIP3   OH258788   6.710   0.483  10.794 -0.4584  0.0142 -0.6075
12458TIP3    H158789   6.715   0.478  10.699  0.4516 -2.8489 -0.4716
12458TIP3    H258790   6.783   0.428  10.824 -0.2404  1.5196  1.7429
12459TIP3   OH258791   5.445   3.556   2.271 -0.2208  0.2170 -0.6416
12459TIP3    H158792   5.404   3.569   2.186 -2.5922 -1.8831  0.1092
12459TIP3    H258793   5.534   3.590   2.261 -1.2775  2.3763 -3.1571
12460TIP3   OH258794   5.679   1.134   3.561  0.0706  0.7983 -0.5082
12460TIP3    H158795   5.693   1.172   3.474 -0.1284 -1.7138 -1.6591
12460TIP3    H258796   5.732   1.054   3.562  1.2087  1.4986  2.2147
12461TIP3   OH258797   0.711   3.840  13.867  0.6753 -0.0901  0.2969
12461TIP3    H158798   0.722   3.882  13.952  2.1107  3.4110 -1.5298
12461TIP3    H258799   0.626   3.870  13.835  0.3988 -0.9249  0.2360
12462TIP3   OH258800   6.314   1.780   5.521  0.1605  0.0757 -0.3769
12462TIP3    H158801   6.314   1.690   5.553 -0.0412 -0.5445 -2.0800
12462TIP3    H258802   6.226   1.793   5.486  0.0119  1.1250  0.3515
12463TIP3   OH258803   6.254   5.653  16.149  0.1007 -0.2352  0.7462
12463TIP3    H158804   6.199   5.710  16.203  0.1619  0.3900  0.1488
12463TIP3    H258805   6.243   5.566  16.189 -0.8193 -0.0038  1.0207
12464TIP3   OH258806   2.004   0.513   0.357 -0.2032  0.5557 -0.4120
12464TIP3    H158807   2.011   0.419   0.345  1.4711  0.5417  0.5243
12464TIP3    H258808   1.949   0.523   0.435 -2.3596  0.4303 -1.8781
12465TIP3   OH258809   5.638   0.875  11.392  0.0727  0.4324 -0.0709
12465TIP3    H158810   5.607   0.859  11.303 -0.5218 -1.1747  0.4138
12465TIP3    H258811   5.560   0.903  11.440 -0.1869 -1.2967  0.5688
12466TIP3   OH258812   6.384   5.120  15.163 -0.7200 -0.1853 -0.2692
12466TIP3    H158813   6.373   5.133  15.068  1.0011 -1.1581 -0.6155
12466TIP3    H258814   6.297   5.095  15.193 -1.2975  0.1552 -1.5949
12467TIP3   OH258815   3.778   1.975  10.923 -0.3532  0.6179  0.1092
12467TIP3    H158816   3.718   1.960  10.850 -1.4812  2.0172  0.7234
12467TIP3    H258817   3.736   1.933  10.998 -0.3109  1.1474  0.4313
12468TIP3   OH258818   0.939   0.325  13.020  0.0990  0.1354  0.0092
12468TIP3    H158819   0.924   0.387  12.947  0.6803 -0.6793 -0.8080
12468TIP3    H258820   0.930   0.379  13.098 -1.0421  0.9306 -0.6493
12469TIP3   OH258821   5.345   6.542  15.373  0.1259  0.2942 -0.0134
12469TIP3    H158822   5.330   6.448  15.374 -0.2086  0.3501  0.1369
12469TIP3    H258823   5.365   6.564  15.464 -1.4934  0.6453  0.2697
12470TIP3   OH258824   1.134   6.235   1.200 -0.6993  0.0050  0.4206
12470TIP3    H158825   1.148   6.328   1.181 -2.2283  0.1522 -0.0149
12470TIP3    H258826   1.122   6.232   1.295  0.0613  0.1566  0.5248
12471TIP3   OH258827   0.932   3.026  16.276  0.5368  0.4813 -0.0818
12471TIP3    H158828   1.005   3.060  16.329 -1.5906  2.0953  1.9051
12471TIP3    H258829   0.902   3.102  16.226  0.9641 -0.4719 -1.8107
12472TIP3   OH258830   4.930   6.548  14.482  1.1448 -0.0503 -0.0654
12472TIP3    H158831   5.003   6.585  14.532 -0.1533  0.8105  1.2793
12472TIP3    H258832   4.853   6.596  14.515  0.0520 -0.5536 -1.8282
12473TIP3   OH258833   6.331   1.505   3.457 -0.0394 -0.5016 -0.2306
12473TIP3    H158834   6.262   1.556   3.500  0.7617  0.4859 -0.0853
12473TIP3    H258835   6.392   1.571   3.424  0.4487 -1.3353 -1.0217
12474TIP3   OH258836   4.183   2.183  17.209 -0.4148 -0.1015  0.2913
12474TIP3    H158837   4.096   2.149  17.191 -0.7942  0.3896  1.1594
12474TIP3    H258838   4.241   2.134  17.150 -1.5319  1.1383 -1.8842
12475TIP3   OH258839   1.545   2.883  16.523  0.1155 -0.5730 -0.3884
12475TIP3    H158840   1.623   2.843  16.563  0.2088  0.8341  0.8941
12475TIP3    H258841   1.580   2.939  16.454  0.3509  0.8195  0.8252
12476TIP3   OH258842   6.633   5.084   0.069  0.2806 -0.2572 -0.7859
12476TIP3    H158843   6.649   5.008   0.013  0.8867 -0.9590  0.3190
12476TIP3    H258844   6.701   5.079   0.136 -0.6329  0.3790  0.2105
12477TIP3   OH258845   4.884   3.326   5.395  0.3420 -0.3943 -0.1852
12477TIP3    H158846   4.943   3.287   5.460  1.1005 -0.0406 -0.6513
12477TIP3    H258847   4.801   3.337   5.441  0.6895 -0.7321  0.5328
12478TIP3   OH258848   2.716   5.194  13.059 -0.0855  0.0340  0.5311
12478TIP3    H158849   2.632   5.206  13.102 -0.9133 -0.7525 -0.8172
12478TIP3    H258850   2.780   5.197  13.130 -1.2411  0.6292  1.5736
12479TIP3   OH258851   2.556   2.102  11.475 -0.1350 -0.1179 -0.1452
12479TIP3    H158852   2.579   2.052  11.553 -2.2816  0.1412  0.6648
12479TIP3    H258853   2.552   2.037  11.405 -0.1886 -0.6537  0.3559
12480TIP3   OH258854   3.885   2.268  15.474  0.1148 -0.0057 -0.4552
12480TIP3    H158855   3.925   2.181  15.472  0.2945  0.1007 -2.3327
12480TIP3    H258856   3.835   2.269  15.556  0.7973 -1.5651  0.0023
12481TIP3   OH258857   1.486   5.642  12.620 -0.3825  0.2732 -0.2716
12481TIP3    H158858   1.518   5.712  12.563 -1.4186  1.8855  1.0730
12481TIP3    H258859   1.553   5.634  12.688  0.6518 -1.3637 -1.4580
12482TIP3   OH258860   0.525   0.165   3.847 -0.1180 -0.3809 -0.3161
12482TIP3    H158861   0.472   0.204   3.918  0.1518  0.0381 -0.3398
12482TIP3    H258862   0.500   0.215   3.769  2.3045  1.7205  0.1586
12483TIP3   OH258863   6.722   3.088   0.111  0.4896 -0.0700 -0.4451
12483TIP3    H158864   6.665   3.155   0.149 -1.7041 -1.6945 -0.8085
12483TIP3    H258865   6.724   3.018   0.175  1.3043 -0.4506 -0.8724
12484TIP3   OH258866   4.339   0.691   6.151 -0.0257 -0.3523 -0.4534
12484TIP3    H158867   4.342   0.604   6.191  1.0077 -0.6286 -1.1220
12484TIP3    H258868   4.265   0.686   6.090  0.2304 -0.8607 -0.7235
12485TIP3   OH258869   0.130   4.224  14.863 -0.3594  0.3884  0.0081
12485TIP3    H158870   0.211   4.244  14.814 -0.1938  1.0343  0.5362
12485TIP3    H258871   0.149   4.141  14.907 -0.1385  0.3212 -0.2077
12486TIP3   OH258872   2.915   0.057   4.814  0.1997 -0.1692 -0.0770
12486TIP3    H158873   2.965   0.101   4.883 -0.1552 -1.1137  0.8093
12486TIP3    H258874   2.898  -0.030   4.850 -0.6315 -0.4208 -1.0647
12487TIP3   OH258875   6.044   5.687   4.858 -0.2215  0.3482 -0.2372
12487TIP3    H158876   6.063   5.598   4.886 -2.6667 -0.1449 -0.0399
12487TIP3    H258877   6.107   5.704   4.788  2.1109 -0.4987  1.6176
12488TIP3   OH258878   0.029   5.002  15.962  0.5507  0.3368  0.7502
12488TIP3    H158879   0.101   4.968  16.016 -0.4919 -0.5796  1.5873
12488TIP3    H258880   0.028   5.096  15.981  1.6056  0.3769  0.6412
12489TIP3   OH258881   2.546   0.572  15.874  0.2639  0.1937  0.1788
12489TIP3    H158882   2.620   0.555  15.816  1.2929 -0.2172  1.5861
12489TIP3    H258883   2.586   0.581  15.961 -1.2778  0.5820  0.8538
12490TIP3   OH258884   3.499   5.322   2.066  1.0094  0.0882 -0.1546
12490TIP3    H158885   3.471   5.395   2.122  0.9342 -0.6315  0.7608
12490TIP3    H258886   3.541   5.364   1.991  0.7427  1.0812  0.2464
12491TIP3   OH258887   4.071   3.739   5.410  0.0507 -0.2738 -0.4784
12491TIP3    H158888   4.091   3.826   5.444 -0.4905  0.1755 -1.3067
12491TIP3    H258889   4.078   3.681   5.486 -1.9851  0.8462  0.6011
12492TIP3   OH258890   3.645   2.240  14.319  0.4852  0.1029  0.2372
12492TIP3    H158891   3.719   2.182  14.340  0.8476  0.3349 -0.4018
12492TIP3    H258892   3.568   2.185  14.332  0.8238 -0.5304 -0.3596
12493TIP3   OH258893   2.440   6.604  13.491 -0.5782  0.0478 -0.2397
12493TIP3    H158894   2.481   6.517  13.487  0.3000  0.3929  1.0703
12493TIP3    H258895   2.352   6.590  13.457 -1.0683 -1.7567  1.6370
12494TIP3   OH258896   2.006   5.473  12.034 -0.1378  0.5222  0.5892
12494TIP3    H158897   1.942   5.422  11.985  0.2724  0.6636 -0.0882
12494TIP3    H258898   1.959   5.553  12.057 -0.8967 -0.3003  1.9637
12495TIP3   OH258899   2.595   0.310   4.340  0.3810  1.0500 -0.0578
12495TIP3    H158900   2.665   0.294   4.277 -1.0409  1.7233 -1.8407
12495TIP3    H258901   2.544   0.230   4.341 -1.7985  2.3253 -2.6536
12496TIP3   OH258902   3.451   4.895   5.863 -0.4348  0.3329 -0.2539
12496TIP3    H158903   3.541   4.891   5.830 -0.5671 -1.5463 -0.4736
12496TIP3    H258904   3.439   4.985   5.891  1.3576  0.7223 -0.6936
12497TIP3   OH258905   1.750   2.489  12.846 -0.4899 -0.1311  0.4514
12497TIP3    H158906   1.719   2.576  12.869  2.0876  0.6980  0.9151
12497TIP3    H258907   1.797   2.458  12.924 -0.0213 -1.2696 -0.2626
12498TIP3   OH258908   0.998   4.432  15.156  0.2794 -0.3228 -0.7123
12498TIP3    H158909   0.921   4.392  15.115  1.4724  0.9331 -4.4646
12498TIP3    H258910   1.027   4.368  15.221 -2.0617 -2.2223 -1.4577
12499TIP3   OH258911   6.297   1.649  16.029 -0.2939  0.1023 -0.1426
12499TIP3    H158912   6.288   1.641  16.124 -0.2844 -0.3455 -0.1797
12499TIP3    H258913   6.349   1.729  16.016  3.3774 -2.1100  0.3808
12500TIP3   OH258914   2.256   6.670  13.210  0.3190 -0.1942  0.5204
12500TIP3    H158915   2.194   6.614  13.164  0.2451 -0.2502  0.6836
12500TIP3    H258916   2.341   6.647  13.175 -0.0221  2.0423 -1.9372
12501TIP3   OH258917   1.913   3.197   4.364 -0.8345  0.1098 -0.4930
12501TIP3    H158918   1.947   3.282   4.391  1.1828 -1.0525  0.7124
12501TIP3    H258919   1.866   3.215   4.283  0.1229  2.2708 -0.6026
12502TIP3   OH258920   1.899   1.074  16.851  0.5450 -0.7287 -0.3429
12502TIP3    H158921   1.880   1.075  16.757 -1.3966 -0.3288  0.0311
12502TIP3    H258922   1.824   1.029  16.890  1.0034 -0.2726  1.0910
12503TIP3   OH258923   3.036   4.426   5.102  0.0021 -0.1889 -0.4613
12503TIP3    H158924   3.092   4.357   5.067 -0.7737 -0.9422 -0.2271
12503TIP3    H258925   3.008   4.394   5.188  0.2339  0.7460 -0.0194
12504TIP3   OH258926   5.992   4.961  11.480  0.7805 -0.0225  0.6150
12504TIP3    H158927   5.903   4.986  11.505  0.8587  0.1740  0.6947
12504TIP3    H258928   5.980   4.889  11.417  0.4991  1.3238 -0.9081
12505TIP3   OH258929   6.144   0.579  13.216  0.0020 -0.4688 -0.1031
12505TIP3    H158930   6.138   0.661  13.265  1.9138 -1.1311  1.3013
12505TIP3    H258931   6.108   0.513  13.275  1.8028 -1.1887  0.2221
12506TIP3   OH258932   1.632   4.041   4.254 -0.1831 -0.2846  0.1543
12506TIP3    H158933   1.561   4.030   4.190  0.2104  0.3421 -0.3910
12506TIP3    H258934   1.631   4.134   4.275  1.7679  0.0844 -1.3395
12507TIP3   OH258935   6.045   1.421  11.860 -0.1190 -0.6563  0.1168
12507TIP3    H158936   6.116   1.444  11.920 -0.6555 -0.2137  0.5856
12507TIP3    H258937   5.996   1.502  11.849 -1.5851 -1.3947  1.1809
12508TIP3   OH258938   0.540   4.463   2.217 -0.5439 -0.2200  0.1460
12508TIP3    H158939   0.512   4.492   2.304 -2.9706 -1.5505 -0.1641
12508TIP3    H258940   0.628   4.499   2.207 -1.2727  2.2023  2.0640
12509TIP3   OH258941   6.717   5.574   4.593 -0.1943  0.2992  0.1116
12509TIP3    H158942   6.655   5.643   4.615  0.3034  0.5683  0.6854
12509TIP3    H258943   6.670   5.518   4.531 -0.8148  0.8029  0.1253
12510TIP3   OH258944   0.199   4.565   2.210  0.0975  0.7792  0.1018
12510TIP3    H158945   0.252   4.609   2.277 -0.5530  2.8620 -0.6997
12510TIP3    H258946   0.251   4.573   2.130  0.7489 -1.4595  0.2797
12511TIP3   OH258947   0.550   3.822  15.227 -0.7825  0.3559  0.4384
12511TIP3    H158948   0.565   3.869  15.145  0.2659 -0.2611  0.2810
12511TIP3    H258949   0.528   3.891  15.290 -1.1664  0.8674 -0.2493
12512TIP3   OH258950   1.795   1.560  10.849  0.4441  0.0242  0.6224
12512TIP3    H158951   1.842   1.633  10.809 -1.0453  0.6435 -0.0134
12512TIP3    H258952   1.706   1.592  10.862  0.4541 -0.7529  2.8683
12513TIP3   OH258953   3.621   2.899  11.544  0.3501  0.5035  0.2670
12513TIP3    H158954   3.606   2.815  11.501 -0.0960  1.1542 -0.9046
12513TIP3    H258955   3.583   2.889  11.631 -2.1637  0.3469 -0.7958
12514TIP3   OH258956   3.349   5.657   3.595 -0.1271 -0.6428  0.1184
12514TIP3    H158957   3.306   5.729   3.641  1.3265 -1.2190  2.4460
12514TIP3    H258958   3.282   5.623   3.536 -1.6493  0.9093  0.8904
12515TIP3   OH258959   6.124   5.535  10.366  0.0281 -0.5810 -0.6835
12515TIP3    H158960   6.144   5.594  10.294  0.8162 -0.4233 -0.3360
12515TIP3    H258961   6.084   5.591  10.433  2.2298 -0.1106  0.2986
12516TIP3   OH258962   6.127   1.881  15.950 -0.0349 -0.5603  0.6058
12516TIP3    H158963   6.171   1.799  15.969 -0.4016 -1.1037 -0.8088
12516TIP3    H258964   6.034   1.859  15.947 -0.1323 -0.1049  0.1706
12517TIP3   OH258965   2.021   0.852   2.521  0.8079 -0.3056  0.5124
12517TIP3    H158966   1.995   0.771   2.477  0.4573 -0.6803  1.3811
12517TIP3    H258967   2.117   0.850   2.521  0.7992 -0.6690  0.4424
12518TIP3   OH258968   3.593   3.648   5.079  0.0357  0.0171 -0.4640
12518TIP3    H158969   3.642   3.610   5.006  0.1895 -0.7577  0.0304
12518TIP3    H258970   3.628   3.605   5.156  0.6232  1.6266  0.1843
12519TIP3   OH258971   2.271   3.706   6.698 -0.0254  0.1748  0.4635
12519TIP3    H158972   2.268   3.641   6.769  1.3165  0.5391  0.8573
12519TIP3    H258973   2.359   3.698   6.662 -0.6015  0.2031 -0.9794
12520TIP3   OH258974   1.489   2.306  13.560  0.6126  0.2818  0.5432
12520TIP3    H158975   1.544   2.382  13.543  1.7654 -0.8821 -1.2034
12520TIP3    H258976   1.435   2.298  13.481 -0.0319 -0.2447  1.0352
12521TIP3   OH258977   0.203   3.097   4.226  0.6389  0.2096  1.0726
12521TIP3    H158978   0.253   3.174   4.198  0.2939 -0.3435 -1.1894
12521TIP3    H258979   0.219   3.032   4.158 -2.0654 -0.4355  0.9780
12522TIP3   OH258980   3.454   0.072   3.174 -0.4649 -0.1886 -0.3985
12522TIP3    H158981   3.543   0.106   3.178 -0.9911  1.1771  0.0543
12522TIP3    H258982   3.447   0.012   3.247 -0.3107  0.7083  0.3618
12523TIP3   OH258983   3.318   2.133  11.333 -0.1889  0.1182 -0.0620
12523TIP3    H158984   3.392   2.192  11.352  0.4272 -0.5593 -0.3432
12523TIP3    H258985   3.274   2.175  11.259 -0.0391  0.4822  0.0491
12524TIP3   OH258986   5.425   4.641   0.384  0.5614 -0.5841  0.0767
12524TIP3    H158987   5.492   4.633   0.452  1.3919  0.8046 -0.5561
12524TIP3    H258988   5.459   4.709   0.325 -1.7300  0.6546  0.1404
12525TIP3   OH258989   5.919   0.071   1.656 -0.0845 -0.7685 -0.0716
12525TIP3    H158990   5.976   0.095   1.583  0.0777  0.4798  0.4394
12525TIP3    H258991   5.978   0.056   1.729 -0.3992  0.6397  0.4886
12526TIP3   OH258992   4.017   6.360   4.786  0.0145  0.6705  0.2695
12526TIP3    H158993   4.040   6.453   4.784  1.7945  0.2934  1.3989
12526TIP3    H258994   3.943   6.354   4.846 -0.5111  1.4349 -0.2997
12527TIP3   OH258995   4.609   0.646   6.170  0.1191 -0.2063 -0.0143
12527TIP3    H158996   4.622   0.553   6.154  0.4730 -0.1400 -0.1234
12527TIP3    H258997   4.515   0.661   6.155  0.3279 -0.2596 -1.4544
12528TIP3   OH258998   0.214   1.896  11.254 -0.2385 -0.1214  0.0828
12528TIP3    H158999   0.250   1.972  11.208  1.3461 -0.9169 -0.0065
12528TIP3    H259000   0.160   1.851  11.189  1.5128 -0.9135 -0.8411
12529TIP3   OH259001   0.982   5.928  15.701 -0.4981  0.3198 -0.4665
12529TIP3    H159002   0.923   5.988  15.746  0.0153  0.0282  0.6195
12529TIP3    H259003   1.057   5.919  15.761 -0.2634 -0.8528 -0.9222
12530TIP3   OH259004   0.682   2.252   0.122 -0.2171  0.4092 -0.2446
12530TIP3    H159005   0.716   2.166   0.148  1.0576  0.7369 -0.8064
12530TIP3    H259006   0.607   2.267   0.180 -0.6424 -1.2200 -0.3457
12531TIP3   OH259007   0.513   6.604   4.502 -0.0443 -0.4001 -0.2495
12531TIP3    H159008   0.571   6.536   4.535 -0.2253  0.0147  0.9167
12531TIP3    H259009   0.573   6.673   4.472  0.0937 -0.3651  0.1015
12532TIP3   OH259010   5.699   1.798  17.195 -0.2142  0.2566  0.4812
12532TIP3    H159011   5.709   1.730  17.261 -1.4455  0.6553  1.0958
12532TIP3    H259012   5.670   1.752  17.117  0.5903 -0.1316  0.4091
12533TIP3   OH259013   4.515   2.045   3.229 -0.7135  0.5164  0.0162
12533TIP3    H159014   4.604   2.024   3.200  0.1060 -0.0924  2.8053
12533TIP3    H259015   4.476   1.960   3.250 -1.8702  0.8120 -0.8670
12534TIP3   OH259016   5.171   2.525   1.501  0.3952  0.0271 -0.3182
12534TIP3    H159017   5.112   2.472   1.554  1.8061 -2.6636 -1.3210
12534TIP3    H259018   5.193   2.600   1.557 -0.8086 -0.9893  1.5580
12535TIP3   OH259019   0.326   5.204  11.314 -0.0395  0.3716  0.0373
12535TIP3    H159020   0.322   5.246  11.400 -0.7117  0.0798  0.1598
12535TIP3    H259021   0.395   5.139  11.322  1.4537  1.8847 -0.3613
12536TIP3   OH259022   2.821   1.260  10.261 -0.3811 -0.3062  0.4241
12536TIP3    H159023   2.843   1.178  10.306 -0.0034 -1.0862 -1.1435
12536TIP3    H259024   2.884   1.324  10.294 -0.7940 -0.5801  1.7909
12537TIP3   OH259025   2.706   6.429   2.599  0.4242  0.2680  0.7690
12537TIP3    H159026   2.727   6.492   2.667  0.4797  0.8181  0.2454
12537TIP3    H259027   2.789   6.384   2.582  0.2887 -0.2363  1.4362
12538TIP3   OH259028   5.323   0.111   1.974 -0.0024  0.1863  0.3469
12538TIP3    H159029   5.306   0.205   1.979 -0.8547  0.2767 -3.0212
12538TIP3    H259030   5.389   0.102   1.905 -0.1166 -1.6920  0.4591
12539TIP3   OH259031   6.430   6.280   4.136 -0.2249  0.0057 -0.2768
12539TIP3    H159032   6.392   6.227   4.066  0.0515 -0.3998 -0.1208
12539TIP3    H259033   6.370   6.269   4.210 -0.2871  0.0909 -0.3139
12540TIP3   OH259034   4.381   3.175   2.613 -0.0616 -0.5660  0.4383
12540TIP3    H159035   4.368   3.254   2.561  3.0365  0.8205  1.6226
12540TIP3    H259036   4.472   3.180   2.642 -0.5417 -3.2816  2.6759
12541TIP3   OH259037   4.118   4.386  13.009  0.1605 -0.3125 -0.0233
12541TIP3    H159038   4.100   4.432  12.927  0.3592  0.2487  0.2409
12541TIP3    H259039   4.208   4.412  13.032  0.2685 -0.8263  0.1333
12542TIP3   OH259040   4.479   5.481   4.365 -0.1261 -0.4654  0.0086
12542TIP3    H159041   4.536   5.434   4.304 -0.1900 -1.5370  0.7762
12542TIP3    H259042   4.536   5.548   4.403  0.2251 -0.5585 -0.3410
12543TIP3   OH259043   2.146   5.557   2.752 -0.1827 -0.1113  0.4962
12543TIP3    H159044   2.111   5.560   2.663  0.0983  1.3595  0.4280
12543TIP3    H259045   2.172   5.647   2.771 -0.0900 -0.4416  2.0104
12544TIP3   OH259046   3.542   5.609   2.585 -0.1476  0.3441 -0.1288
12544TIP3    H159047   3.620   5.612   2.530  0.0422  1.6746  0.2130
12544TIP3    H259048   3.575   5.581   2.671 -0.3273 -0.9167 -0.4543
12545TIP3   OH259049   4.946   5.980  11.973  0.7022  0.7046  0.1123
12545TIP3    H159050   5.036   5.961  11.998  0.2588  0.3399  1.4680
12545TIP3    H259051   4.893   5.952  12.048 -0.5411  0.9121 -0.6619
12546TIP3   OH259052   0.640   5.059  14.080 -0.3312 -0.6646  0.1647
12546TIP3    H159053   0.678   5.084  13.996 -0.6292  0.2029  0.2861
12546TIP3    H259054   0.638   5.140  14.131 -2.7291 -0.5834 -0.0045
12547TIP3   OH259055   1.516   1.300   1.797 -0.2101  0.6213  0.1821
12547TIP3    H159056   1.577   1.227   1.781  0.2087  1.3069 -1.4296
12547TIP3    H259057   1.431   1.257   1.809  0.2186 -0.2045  0.3542
12548TIP3   OH259058   4.368   6.164   2.924  0.0258 -0.3870 -0.0563
12548TIP3    H159059   4.341   6.114   2.847  0.0214 -0.6628  0.1232
12548TIP3    H259060   4.370   6.255   2.894 -0.9474 -0.3820 -0.1140
12549TIP3   OH259061   5.822   2.219   4.954 -0.2612  0.1054  0.0451
12549TIP3    H159062   5.739   2.266   4.966 -0.4343 -0.1632 -0.0965
12549TIP3    H259063   5.880   2.284   4.914 -0.1773  0.5180  0.8234
12550TIP3   OH259064   1.757   5.650   3.240  0.1543  0.6434  0.8670
12550TIP3    H159065   1.829   5.710   3.222 -0.9892  2.0741  1.0096
12550TIP3    H259066   1.799   5.575   3.282  1.6578  1.1446  0.2873
12551TIP3   OH259067   3.404   6.326  12.109  0.4925  0.7468 -0.3190
12551TIP3    H159068   3.438   6.412  12.086 -1.5053  1.6336 -0.0679
12551TIP3    H259069   3.309   6.333  12.094 -0.0543 -0.5683  2.3180
12552TIP3   OH259070   5.471   2.097   6.013  0.1567 -0.5917  0.2953
12552TIP3    H159071   5.431   2.159   6.074  1.0449 -0.2029  0.4948
12552TIP3    H259072   5.442   2.011   6.043 -0.5378 -0.3153  0.4221
12553TIP3   OH259073   4.243   6.508  15.458  0.4556  0.3423  0.0688
12553TIP3    H159074   4.162   6.462  15.437 -0.6500  1.6295  1.4917
12553TIP3    H259075   4.261   6.486  15.549  0.9040  1.2462  0.2081
12554TIP3   OH259076   4.558   4.100  12.386  0.2919  0.0783  0.2113
12554TIP3    H159077   4.529   4.190  12.403  0.0137 -0.1392  0.9247
12554TIP3    H259078   4.538   4.085  12.294 -1.2919  0.1440  0.5403
12555TIP3   OH259079   2.309   5.264   6.061  0.1162 -0.4140 -0.2652
12555TIP3    H159080   2.355   5.229   5.985  0.9972  1.0593 -0.4061
12555TIP3    H259081   2.320   5.197   6.128 -2.0376 -2.5006 -1.8672
12556TIP3   OH259082   3.067   1.191  13.238  0.6162 -0.4802 -0.0738
12556TIP3    H159083   3.110   1.112  13.270 -0.8955 -1.1737  0.3029
12556TIP3    H259084   3.093   1.196  13.146  0.0495 -1.9188 -0.3374
12557TIP3   OH259085   0.117   5.413   5.258  0.3320 -0.2810 -0.5338
12557TIP3    H159086   0.129   5.382   5.348 -0.3272 -0.8591 -0.6327
12557TIP3    H259087   0.083   5.502   5.268  1.1513  0.0015 -0.2261
12558TIP3   OH259088   2.087   0.045   4.731  0.1069 -0.2660 -0.4866
12558TIP3    H159089   2.130  -0.037   4.754 -0.9656 -1.0230 -1.1748
12558TIP3    H259090   2.140   0.112   4.774 -0.0267 -1.4336  1.5145
12559TIP3   OH259091   4.023   6.171  11.606 -0.3411 -0.3337  0.5003
12559TIP3    H159092   4.031   6.253  11.655 -0.0896 -0.3835  0.5411
12559TIP3    H259093   3.929   6.154  11.605 -0.3278 -0.4537  1.1689
12560TIP3   OH259094   5.093   3.739   3.450  0.4339 -0.0850 -0.0593
12560TIP3    H159095   5.123   3.707   3.365  0.7811  0.0784  0.0041
12560TIP3    H259096   5.167   3.787   3.486  0.4790 -0.6313  0.5866
12561TIP3   OH259097   3.930   3.903  11.692 -0.2968 -0.0132  0.3464
12561TIP3    H159098   3.859   3.887  11.630  0.2293 -1.8668  0.1934
12561TIP3    H259099   3.889   3.890  11.778 -0.4553  0.1833  0.3002
12562TIP3   OH259100   2.491   2.601  13.214  0.4900  0.2000  0.8781
12562TIP3    H159101   2.461   2.689  13.190  0.3281  0.4199  1.8793
12562TIP3    H259102   2.532   2.567  13.134 -1.3597  0.3595 -0.1550
12563TIP3   OH259103   5.498   0.295   2.437  0.2038 -0.2198 -0.9558
12563TIP3    H159104   5.426   0.286   2.500 -0.6260  1.8881 -1.5319
12563TIP3    H259105   5.458   0.274   2.352  0.6451 -0.5210 -1.0885
12564TIP3   OH259106   1.426   5.752  12.137  0.6130  0.0752  0.1296
12564TIP3    H159107   1.374   5.777  12.062  0.4442  1.5781  0.7275
12564TIP3    H259108   1.498   5.701  12.101  0.7430  1.1124 -1.1009
12565TIP3   OH259109   3.746   3.239   0.570  1.0378 -0.3104 -0.4783
12565TIP3    H159110   3.683   3.225   0.499  0.5973 -1.5636  0.1509
12565TIP3    H259111   3.773   3.151   0.597  1.1953  0.1458  0.9115
12566TIP3   OH259112   6.777   6.062   3.591 -0.2964  0.1613  0.3408
12566TIP3    H159113   6.788   5.967   3.593 -0.3120  0.0680 -2.1878
12566TIP3    H259114   6.761   6.082   3.499 -0.1900  2.6330  0.8272
12567TIP3   OH259115   4.770   3.707   0.780  0.0603  0.4592  0.0863
12567TIP3    H159116   4.759   3.794   0.743 -1.9132  0.5825  0.8442
12567TIP3    H259117   4.790   3.723   0.873 -0.5681  0.1182  0.2849
12568TIP3   OH259118   2.207   2.600   1.125  0.5490  0.0133 -0.5161
12568TIP3    H159119   2.138   2.665   1.109  0.9984  0.8289  0.7494
12568TIP3    H259120   2.288   2.649   1.111  0.9085  0.0960  1.7758
12569TIP3   OH259121   2.068   3.324  11.190  0.3276  0.1234 -0.6486
12569TIP3    H159122   1.994   3.265  11.179  1.6636 -1.7400  0.2143
12569TIP3    H259123   2.135   3.291  11.131  1.0461  0.8283 -0.2434
12570TIP3   OH259124   6.159   1.736   0.585  0.2904  0.6361  0.5272
12570TIP3    H159125   6.107   1.735   0.665  0.4884 -0.8621  0.6416
12570TIP3    H259126   6.105   1.785   0.522 -0.1888  1.1742  1.3420
12571TIP3   OH259127   4.435   0.907   5.787  0.5936  0.4278  0.3877
12571TIP3    H159128   4.437   0.919   5.692  1.3388 -0.8429  0.2383
12571TIP3    H259129   4.416   0.995   5.822 -1.8865  0.4845 -1.0077
12572TIP3   OH259130   2.912   3.536   2.931  0.2454  0.5981 -0.1455
12572TIP3    H159131   2.988   3.482   2.957 -0.1925  0.6550  1.2829
12572TIP3    H259132   2.950   3.606   2.877  1.1728  0.4654  0.3184
12573TIP3   OH259133   1.208   5.878   4.751  0.1043 -0.3668 -0.5763
12573TIP3    H159134   1.165   5.921   4.825 -0.8660 -1.9287 -0.2062
12573TIP3    H259135   1.165   5.914   4.674 -0.1903 -0.1151 -0.2971
12574TIP3   OH259136   3.138   1.436   4.309  0.5192 -0.3315 -0.6892
12574TIP3    H159137   3.119   1.411   4.399 -0.4837  0.0389 -0.7867
12574TIP3    H259138   3.214   1.494   4.315  0.0091  0.2782 -0.0010
12575TIP3   OH259139   5.563   0.418   3.307  0.2318  0.6599  0.1522
12575TIP3    H159140   5.632   0.396   3.370  0.2797  1.6267  0.4351
12575TIP3    H259141   5.605   0.473   3.242  0.9224 -2.7909 -2.4495
12576TIP3   OH259142   3.667   5.218   0.307 -0.4209  0.0339 -0.1125
12576TIP3    H159143   3.740   5.172   0.264 -0.3738  0.3878 -0.4226
12576TIP3    H259144   3.607   5.238   0.235 -2.1950 -2.7313  0.5340
12577TIP3   OH259145   2.580   1.256  16.544 -0.1973  0.2154 -0.0097
12577TIP3    H159146   2.495   1.225  16.514  0.4888 -1.0778 -0.6736
12577TIP3    H259147   2.577   1.244  16.639 -1.1116  1.1003  0.0748
12578TIP3   OH259148   6.083   6.666  13.039  0.1779 -0.0205 -0.0648
12578TIP3    H159149   6.164   6.649  13.086 -0.3368 -2.2864  0.0601
12578TIP3    H259150   6.016   6.673  13.108  0.0183  0.3189 -0.2511
12579TIP3   OH259151   6.631   2.372  15.565 -0.1370  0.4214 -0.3143
12579TIP3    H159152   6.570   2.359  15.637  0.0768  0.9271 -0.0449
12579TIP3    H259153   6.718   2.366  15.605  0.0588 -2.3481 -1.0201
12580TIP3   OH259154   3.892   1.103  16.598 -0.0851 -0.5190  0.8016
12580TIP3    H159155   3.835   1.029  16.581 -0.6674 -0.3449  1.9246
12580TIP3    H259156   3.969   1.088  16.543 -1.5480 -0.3397 -1.3431
12581TIP3   OH259157   3.599   3.653  11.075  0.3202  0.5306  0.3900
12581TIP3    H159158   3.546   3.600  11.016  1.7322 -0.2357 -0.2093
12581TIP3    H259159   3.676   3.677  11.023  1.2927  0.3574  1.7274
12582TIP3   OH259160   3.538   3.289  10.724 -0.4825 -0.3348  0.0494
12582TIP3    H159161   3.620   3.257  10.685  0.2521 -1.4278  2.3911
12582TIP3    H259162   3.483   3.211  10.729 -0.8898 -0.0256  0.3486
12583TIP3   OH259163   6.010   5.354  13.224  0.6922  0.4001  0.1713
12583TIP3    H159164   6.054   5.284  13.175 -0.0195  0.3405 -0.3793
12583TIP3    H259165   5.979   5.414  13.157 -3.4302 -1.4652  0.2777
12584TIP3   OH259166   4.696   0.768  15.679  0.4155 -0.0345  0.2995
12584TIP3    H159167   4.616   0.720  15.658  0.3922  0.1800 -0.0997
12584TIP3    H259168   4.692   0.847  15.625 -0.6922  1.5918  2.6877
12585TIP3   OH259169   4.498   6.212   1.131 -0.6357  0.3260 -0.4307
12585TIP3    H159170   4.458   6.157   1.063  1.4420  0.5902 -1.9290
12585TIP3    H259171   4.512   6.153   1.205 -2.6436 -0.0471 -0.3279
12586TIP3   OH259172   5.064   6.553   5.505 -0.0025 -0.0601  0.0812
12586TIP3    H159173   5.029   6.547   5.593 -1.8441  2.4670 -0.4374
12586TIP3    H259174   5.009   6.495   5.453  1.4901 -2.0611  0.6521
12587TIP3   OH259175   6.644   5.989  10.758  0.3625  0.0932 -0.0395
12587TIP3    H159176   6.560   6.022  10.788  1.3987  2.8279 -0.0412
12587TIP3    H259177   6.706   6.059  10.778  2.3881 -1.2691 -1.3729
12588TIP3   OH259178   0.010   1.173  13.326  0.4877  0.0321  0.2048
12588TIP3    H159179  -0.082   1.182  13.349  0.3928  1.2219 -0.6146
12588TIP3    H259180   0.054   1.243  13.373  0.7340  0.4953 -0.7023
12589TIP3   OH259181   3.963   4.938  17.220 -0.0867 -0.0456  0.3762
12589TIP3    H159182   4.008   5.002  17.274 -1.6206  0.6637  0.8467
12589TIP3    H259183   4.013   4.858  17.230  1.4485  0.8819  0.3425
12590TIP3   OH259184   0.625   3.302  10.684  0.1867 -0.5385  0.2735
12590TIP3    H159185   0.530   3.299  10.674 -0.0279  0.3357  1.8969
12590TIP3    H259186   0.653   3.211  10.669 -0.7576 -0.6024 -1.2844
12591TIP3   OH259187   1.806   4.725   0.566  0.6759  0.2216  0.2096
12591TIP3    H159188   1.873   4.786   0.597  0.8362  0.4871 -0.6400
12591TIP3    H259189   1.834   4.703   0.477 -0.2993  0.2440 -0.1053
12592TIP3   OH259190   3.126   6.699   5.171  0.8227 -0.1624 -0.3239
12592TIP3    H159191   3.055   6.669   5.228  1.9820 -1.5402  0.4093
12592TIP3    H259192   3.206   6.675   5.217  1.7847  1.3238 -1.1814
12593TIP3   OH259193   2.809   6.624   3.399 -0.2516 -0.5628  0.4699
12593TIP3    H159194   2.885   6.578   3.437  1.4579  0.5464 -1.5505
12593TIP3    H259195   2.765   6.557   3.346 -0.5577 -1.1356  1.4271
12594TIP3   OH259196   5.163   5.973  13.120 -0.0886  0.0220 -0.1621
12594TIP3    H159197   5.101   5.905  13.092  1.0332 -1.3410  0.5927
12594TIP3    H259198   5.210   5.996  13.040 -0.4931 -0.0648 -0.4314
12595TIP3   OH259199   3.768   2.058  12.892 -0.2257 -0.4167  0.1653
12595TIP3    H159200   3.777   2.111  12.972  0.5179 -2.9098  1.7752
12595TIP3    H259201   3.829   2.098  12.830  0.3885  0.5728  1.3790
12596TIP3   OH259202   4.054   5.270   2.293 -0.4159  0.6647  0.2725
12596TIP3    H159203   4.006   5.281   2.211  1.4481  0.0703 -0.9327
12596TIP3    H259204   4.068   5.175   2.300  0.6138  0.8345  0.5737
12597TIP3   OH259205   5.998   4.152  16.461 -0.4918  0.0541  0.1085
12597TIP3    H159206   5.941   4.103  16.520 -0.1611 -1.3291 -0.6725
12597TIP3    H259207   6.044   4.214  16.517 -0.4399 -0.9905  1.2481
12598TIP3   OH259208   3.428   3.430   2.328 -0.0792 -0.1859  0.0014
12598TIP3    H159209   3.462   3.500   2.383  3.0203 -2.5699  1.3103
12598TIP3    H259210   3.386   3.369   2.389  0.0394 -1.0000 -0.7131
12599TIP3   OH259211   0.981   3.001  10.303  0.4771  0.2295 -0.1297
12599TIP3    H159212   0.948   3.000  10.393  0.6585  0.4192 -0.0616
12599TIP3    H259213   1.035   2.922  10.296 -1.7174 -1.2657 -0.8913
12600TIP3   OH259214   5.935   0.113  15.105 -0.3355  0.4959  0.5625
12600TIP3    H159215   5.999   0.067  15.159 -0.8896 -0.0921  0.7305
12600TIP3    H259216   5.915   0.052  15.034 -1.7618  0.0868  1.2949
12601TIP3   OH259217   1.525   4.583   3.466 -0.4407  0.3678  0.3029
12601TIP3    H159218   1.477   4.506   3.497  1.7674 -1.0852  0.2853
12601TIP3    H259219   1.588   4.600   3.536  2.3214 -0.8558 -1.7917
12602TIP3   OH259220   2.487   2.161   3.293  0.4156  0.3200  0.3952
12602TIP3    H159221   2.515   2.075   3.322  0.5414 -0.1331 -0.9977
12602TIP3    H259222   2.434   2.196   3.364  0.7071 -0.7382  1.1314
12603TIP3   OH259223   3.850   2.205   3.647 -0.7173 -0.5212 -0.1493
12603TIP3    H159224   3.809   2.237   3.566  1.5526  0.5670 -0.9094
12603TIP3    H259225   3.821   2.266   3.715 -0.9366 -0.1822 -0.5463
12604TIP3   OH259226   1.463   0.934   3.732 -0.1665  0.4046 -0.1337
12604TIP3    H159227   1.489   0.932   3.640 -0.3166 -0.2130 -0.1658
12604TIP3    H259228   1.536   0.974   3.777  1.1421 -1.9008 -0.1255
12605TIP3   OH259229   2.232   5.991   5.514 -0.3687 -0.2499  0.2355
12605TIP3    H159230   2.228   5.939   5.594 -0.6663  0.6720  0.8357
12605TIP3    H259231   2.306   6.050   5.527  0.3618 -0.9533 -0.7069
12606TIP3   OH259232   6.662   4.536  16.477  0.0728 -0.3309  0.2467
12606TIP3    H159233   6.701   4.622  16.492 -1.2471  0.1292  1.0798
12606TIP3    H259234   6.601   4.549  16.404 -0.8878 -0.3201  1.0400
12607TIP3   OH259235   6.406   4.559   4.890 -0.3933  0.3699  0.1700
12607TIP3    H159236   6.475   4.568   4.955  0.9448  2.3892 -1.4875
12607TIP3    H259237   6.405   4.642   4.843 -1.5290 -0.9174 -2.2172
12608TIP3   OH259238   0.891   0.705  14.077 -0.1102  0.0877 -0.1128
12608TIP3    H159239   0.909   0.629  14.133 -0.2748  0.5547  0.5775
12608TIP3    H259240   0.853   0.667  13.998  1.1785 -0.6732 -0.3876
12609TIP3   OH259241   2.926   0.097  12.688 -0.0608  0.5648 -0.2270
12609TIP3    H159242   2.981   0.092  12.766 -0.2691  0.1456 -0.1078
12609TIP3    H259243   2.979   0.058  12.618  0.0134  0.6782 -0.2350
12610TIP3   OH259244   0.822   1.394   4.093  0.2373 -0.5576  0.0877
12610TIP3    H159245   0.822   1.304   4.059 -0.6494 -0.6856  0.3934
12610TIP3    H259246   0.736   1.403   4.134  0.6036  0.2012  0.6868
12611TIP3   OH259247   0.410   0.088   4.365  0.3273 -0.3598  0.0972
12611TIP3    H159248   0.375   0.176   4.379 -0.4755 -0.9500  2.0689
12611TIP3    H259249   0.458   0.093   4.282 -0.0091  1.8285  0.0167
12612TIP3   OH259250   4.319   4.153   6.380  0.5474  0.8628 -0.3744
12612TIP3    H159251   4.343   4.076   6.433  0.1167  0.8238 -0.2279
12612TIP3    H259252   4.396   4.209   6.383  0.7454  0.5876 -0.2004
12613TIP3   OH259253   4.633   3.645  15.633 -0.9592  0.1025  0.7103
12613TIP3    H159254   4.589   3.646  15.718  0.9190 -0.0040  1.7217
12613TIP3    H259255   4.716   3.692  15.649 -0.8298  0.5589 -1.1987
12614TIP3   OH259256   5.190   0.566  13.012  0.4344 -0.9148 -0.0238
12614TIP3    H159257   5.254   0.495  13.012 -0.0124 -1.3964 -3.2852
12614TIP3    H259258   5.195   0.602  12.924 -0.4566  2.1351  1.1063
12615TIP3   OH259259   4.253   1.879  13.768 -0.0111  0.3036 -0.0483
12615TIP3    H159260   4.184   1.931  13.726 -0.4556 -1.1019 -1.1117
12615TIP3    H259261   4.249   1.903  13.860 -2.1047  0.0588 -0.0562
12616TIP3   OH259262   1.606   5.306  16.912 -0.0552 -0.0205 -0.6006
12616TIP3    H159263   1.668   5.244  16.873 -0.8059 -0.3521 -1.2903
12616TIP3    H259264   1.622   5.388  16.865 -0.7496 -0.3415 -1.4150
12617TIP3   OH259265   1.338   6.501   5.353 -0.0459  0.2637 -0.4635
12617TIP3    H159266   1.308   6.546   5.273  0.8910  0.2279 -0.8366
12617TIP3    H259267   1.374   6.570   5.407  0.8346  0.0508 -0.7768
12618TIP3   OH259268   6.778   0.069   1.137 -0.2705  0.5184 -0.0348
12618TIP3    H159269   6.689   0.053   1.105 -0.5019 -0.6916  1.1598
12618TIP3    H259270   6.817  -0.018   1.143  0.0579  0.7951  2.0646
12619TIP3   OH259271   0.054   5.129   5.299 -0.1343 -0.2758 -0.1813
12619TIP3    H159272   0.028   5.046   5.259  0.6548 -0.1625 -0.9536
12619TIP3    H259273  -0.028   5.170   5.325 -0.4697 -1.7612  1.1539
12620TIP3   OH259274   3.064   1.313   3.013  0.3990 -0.2632  0.0068
12620TIP3    H159275   3.037   1.384   3.071  0.2480  0.4812 -0.9524
12620TIP3    H259276   3.103   1.248   3.071 -1.2508 -0.2838  1.1365
12621TIP3   OH259277   1.271   2.235   0.361 -0.5729  0.3664 -0.2202
12621TIP3    H159278   1.278   2.215   0.454 -1.0322  0.9296 -0.0581
12621TIP3    H259279   1.180   2.214   0.338 -0.4422  0.1674 -0.5522
12622TIP3   OH259280   1.376   4.259  12.766  0.2899 -0.5177 -0.4050
12622TIP3    H159281   1.358   4.178  12.719 -2.0820  0.2396 -0.8748
12622TIP3    H259282   1.370   4.328  12.699 -0.7241  0.3265  0.5211
12623TIP3   OH259283   3.030   3.995  11.205  0.7109 -0.0665  0.4028
12623TIP3    H159284   3.062   3.914  11.165 -1.1962 -0.5266 -0.2391
12623TIP3    H259285   3.043   4.061  11.138  1.3715 -0.0309  0.5672
12624TIP3   OH259286   0.888   1.357   2.133 -0.1614  0.1328 -0.1447
12624TIP3    H159287   0.877   1.272   2.176  0.3217  0.5725  0.8706
12624TIP3    H259288   0.912   1.335   2.043  0.7276 -0.8110  0.3105
12625TIP3   OH259289   5.466   4.103   0.698 -0.0234  0.3983 -0.0785
12625TIP3    H159290   5.390   4.157   0.674 -0.4586  0.0407  0.4936
12625TIP3    H259291   5.449   4.018   0.657 -0.3811  0.0323  0.8136
12626TIP3   OH259292   6.515   3.708  12.526  0.4876  0.1646  0.0315
12626TIP3    H159293   6.597   3.665  12.501 -0.0190 -0.4912 -0.5214
12626TIP3    H259294   6.527   3.731  12.618  2.9708  3.9394 -1.1045
12627TIP3   OH259295   1.970   6.685   4.414  0.4588  0.3034  0.6312
12627TIP3    H159296   1.953   6.605   4.365  3.2758 -1.0029  1.6186
12627TIP3    H259297   2.016   6.742   4.353  0.6575  0.1693  0.6565
12628TIP3   OH259298   3.854   4.729   5.105  0.1106  0.5421  0.2733
12628TIP3    H159299   3.789   4.674   5.060 -1.1252  3.1266 -1.1883
12628TIP3    H259300   3.826   4.728   5.197  0.1845 -1.3512  0.3017
12629TIP3   OH259301   5.957   0.549  15.277  0.2293  0.5107 -0.2285
12629TIP3    H159302   6.050   0.537  15.296  0.0156  0.2781  0.7092
12629TIP3    H259303   5.922   0.461  15.268 -0.6012  0.4541  2.9967
12630TIP3   OH259304   4.223   2.369  14.461  0.3607  0.3330 -0.0249
12630TIP3    H159305   4.297   2.412  14.418  0.7644 -0.2602  0.0736
12630TIP3    H259306   4.209   2.418  14.541  1.7518 -0.5826  0.8103
12631TIP3   OH259307   4.081   4.623   5.616 -0.0146 -0.2939 -0.2102
12631TIP3    H159308   4.044   4.711   5.616 -2.4829 -1.3125 -0.0017
12631TIP3    H259309   4.157   4.630   5.557  0.6748  2.2778  0.8813
12632TIP3   OH259310   5.386   3.773   5.672 -0.4513  0.0059 -0.2295
12632TIP3    H159311   5.468   3.755   5.626  1.2068  2.3198  1.6632
12632TIP3    H259312   5.413   3.791   5.762 -2.8665  2.3883  0.0731
12633TIP3   OH259313   2.948   0.993   4.009 -0.0020 -0.3023 -0.1968
12633TIP3    H159314   2.881   1.058   4.032  1.0029  1.4598 -2.1432
12633TIP3    H259315   3.020   1.012   4.069 -0.9937 -1.8892  1.5695
12634TIP3   OH259316   1.224   2.664  15.704  0.0148  0.5625 -0.5296
12634TIP3    H159317   1.269   2.599  15.757  0.3999  0.4996 -0.9315
12634TIP3    H259318   1.132   2.657  15.730  0.4430  1.7471  1.4086
12635TIP3   OH259319   1.979   4.944   4.602  0.2185 -0.2249 -0.8016
12635TIP3    H159320   2.019   4.954   4.688 -1.6524 -1.7269  0.3104
12635TIP3    H259321   2.051   4.951   4.540  1.8791 -0.9318  1.0101
12636TIP3   OH259322   0.022   5.510  12.557  0.0204  0.1249 -0.1855
12636TIP3    H159323   0.017   5.576  12.488  0.1887 -1.3113 -1.6160
12636TIP3    H259324   0.095   5.453  12.530  1.1662  0.4778  2.0408
12637TIP3   OH259325   4.833   1.956   0.875  0.0960  0.1567  0.3119
12637TIP3    H159326   4.740   1.979   0.863  0.3164  1.6286  1.2457
12637TIP3    H259327   4.834   1.903   0.954  0.0581  0.1527  0.3102
12638TIP3   OH259328   6.079   5.129   6.410  0.3655  0.0078  0.1105
12638TIP3    H159329   6.067   5.042   6.372 -0.1292 -0.5375  1.4872
12638TIP3    H259330   6.002   5.142   6.465  0.8196  0.9833  0.5240
12639TIP3   OH259331   1.123   3.406  16.830 -0.3903  0.2904  0.5618
12639TIP3    H159332   1.128   3.368  16.918  0.7581 -0.3391  0.2374
12639TIP3    H259333   1.201   3.373  16.785  0.0114  2.1052 -0.1059
12640TIP3   OH259334   3.189   5.015   2.304 -0.2435  0.2510 -0.3225
12640TIP3    H159335   3.276   4.975   2.312 -2.0331 -3.5780  1.2156
12640TIP3    H259336   3.173   5.053   2.391  0.6710  2.8603 -1.2292
12641TIP3   OH259337   1.132   4.800   0.671  0.0340 -0.5950 -0.1358
12641TIP3    H159338   1.069   4.812   0.600 -0.3408 -1.1041  0.1048
12641TIP3    H259339   1.180   4.720   0.648 -0.0232 -0.7079  0.1265
12642TIP3   OH259340   4.489   4.073   5.206  0.2001  0.3125  0.2011
12642TIP3    H159341   4.488   4.140   5.138 -0.3566 -0.3007 -0.4103
12642TIP3    H259342   4.503   3.991   5.159 -0.0914 -0.1077  0.8285
12643TIP3   OH259343   5.808   1.466  17.097  0.3822  0.0502 -0.2462
12643TIP3    H159344   5.839   1.461  17.187  2.4286 -1.2931 -0.9941
12643TIP3    H259345   5.866   1.530  17.055  2.0495 -2.2483 -1.5791
12644TIP3   OH259346   4.326   2.114   3.501  0.1807 -0.2808  0.7935
12644TIP3    H159347   4.408   2.115   3.453 -0.4064  1.0078 -0.2216
12644TIP3    H259348   4.295   2.024   3.494  0.9829 -0.5202  0.2828
12645TIP3   OH259349   5.131   1.199  17.165  0.8196 -0.5065  0.1614
12645TIP3    H159350   5.199   1.147  17.209  0.2856 -1.5900 -0.2643
12645TIP3    H259351   5.074   1.133  17.125  0.7736  0.4535 -1.3631
12646TIP3   OH259352   4.865   4.544   4.589  0.3763  0.2209 -0.5337
12646TIP3    H159353   4.902   4.498   4.514  1.9235 -1.8807  1.4246
12646TIP3    H259354   4.941   4.578   4.636 -0.2281 -1.9877  2.1956
12647TIP3   OH259355   0.825   6.056  13.141  0.2942  0.1080 -0.1693
12647TIP3    H159356   0.735   6.057  13.175  0.1124  0.3512 -0.6422
12647TIP3    H259357   0.815   6.077  13.048  0.7544 -0.8428 -0.4400
12648TIP3   OH259358   6.195   0.442   2.648  0.5529 -0.0854 -0.2628
12648TIP3    H159359   6.238   0.523   2.677  0.5446 -0.0629 -0.3138
12648TIP3    H259360   6.132   0.470   2.583  1.5329 -0.2817 -1.3145
12649TIP3   OH259361   6.111   4.828   2.650 -0.6893  0.3941 -0.0238
12649TIP3    H159362   6.137   4.891   2.583  2.0408 -2.4957 -1.8422
12649TIP3    H259363   6.037   4.781   2.612  0.1265 -0.4652 -0.5820
12650TIP3   OH259364   1.165   1.006  13.945  0.1585  0.0649 -0.4562
12650TIP3    H159365   1.212   1.090  13.945  1.3014 -0.5687  0.0382
12650TIP3    H259366   1.134   0.997  14.035  0.7544 -0.4397 -0.3010
12651TIP3   OH259367   4.442   0.022   0.130 -0.1895  0.0709 -0.4020
12651TIP3    H159368   4.448   0.053   0.220 -0.3096 -0.7446 -0.1178
12651TIP3    H259369   4.522  -0.029   0.116 -0.3972 -0.1946 -0.6152
12652TIP3   OH259370   5.978   1.644  16.946 -0.4604 -0.2791  0.4336
12652TIP3    H159371   6.062   1.597  16.951 -0.0719  0.4699  0.9264
12652TIP3    H259372   5.987   1.717  17.006 -1.0853  0.4214 -0.3073
12653TIP3   OH259373   1.992   3.051  12.522  0.6180  0.0811 -0.0381
12653TIP3    H159374   2.009   2.995  12.446  0.0228 -1.4612  0.9324
12653TIP3    H259375   2.077   3.057  12.566  0.4152 -1.1677  0.5622
12654TIP3   OH259376   1.280   6.448  13.003 -0.1395 -0.3744 -0.5316
12654TIP3    H159377   1.201   6.494  12.975 -0.7458 -0.7254  0.5528
12654TIP3    H259378   1.327   6.428  12.922  0.2916  2.3819 -1.0104
12655TIP3   OH259379   1.286   4.998   5.533 -0.3945 -0.8543  0.3712
12655TIP3    H159380   1.252   5.028   5.449  1.3328  2.2392  0.6771
12655TIP3    H259381   1.381   5.013   5.526 -0.2462 -0.5234  2.8586
12656TIP3   OH259382   5.121   0.498   3.429  0.1703  0.6659 -0.0929
12656TIP3    H159383   5.092   0.421   3.478 -0.1321 -0.6467 -2.2628
12656TIP3    H259384   5.117   0.569   3.492 -0.2086 -0.9656  1.7852
12657TIP3   OH259385   3.897   6.735   1.748 -0.2054 -0.4204 -0.3975
12657TIP3    H159386   3.814   6.690   1.734 -0.0629 -0.6286 -0.5720
12657TIP3    H259387   3.954   6.702   1.679  0.0699 -0.3870 -0.1870
12658TIP3   OH259388   2.396   4.186  12.538  0.0808 -0.2998 -0.0736
12658TIP3    H159389   2.452   4.229  12.473 -1.4179 -0.2664 -1.3893
12658TIP3    H259390   2.456   4.136  12.593  1.4252 -0.0130 -1.2521
12659TIP3   OH259391   5.952   4.548  15.352  0.3734 -0.5755 -0.1205
12659TIP3    H159392   5.888   4.593  15.409 -0.9182 -2.1804 -0.2620
12659TIP3    H259393   6.029   4.605  15.353 -1.5478  2.1703 -1.0849
12660TIP3   OH259394   0.100   2.004   2.988 -0.2673  0.0262  0.6649
12660TIP3    H159395   0.065   1.920   3.018 -0.7148  0.1259  0.4267
12660TIP3    H259396   0.066   2.014   2.900 -0.0839  0.3865  0.6330
12661TIP3   OH259397   1.786   3.758  10.850  0.4527  0.7684  0.2677
12661TIP3    H159398   1.783   3.828  10.784 -0.5884 -2.2781 -3.0998
12661TIP3    H259399   1.876   3.726  10.847 -0.3337 -1.4086 -2.0495
12662TIP3   OH259400   6.371   5.106   2.715 -0.0906  0.3157 -0.7706
12662TIP3    H159401   6.375   5.199   2.692  1.0124  0.6909  0.7821
12662TIP3    H259402   6.304   5.070   2.658 -0.9878  2.2003 -0.9608
12663TIP3   OH259403   1.132   2.328   5.418 -0.0353 -0.2377 -0.4605
12663TIP3    H159404   1.195   2.399   5.417  0.8987 -0.9702  2.2187
12663TIP3    H259405   1.142   2.285   5.333  1.4502  1.0340 -0.9373
12664TIP3   OH259406   3.666   5.199   6.037 -0.2103  0.1375 -0.8038
12664TIP3    H159407   3.577   5.179   6.010  0.2245 -1.4031 -1.1470
12664TIP3    H259408   3.690   5.128   6.097  0.4805  0.9965 -0.0523
12665TIP3   OH259409   0.477   5.849   1.425  0.2760  0.2458  0.1363
12665TIP3    H159410   0.471   5.793   1.502  1.0403  1.7313  1.3077
12665TIP3    H259411   0.392   5.892   1.419  0.2975  0.3065  0.2807
12666TIP3   OH259412   1.088   1.724  16.442 -0.5803 -0.3804 -0.0404
12666TIP3    H159413   0.993   1.727  16.434 -0.5650 -0.4715 -0.2402
12666TIP3    H259414   1.106   1.760  16.530 -0.8151 -0.6149  0.1013
12667TIP3   OH259415   2.396   5.671   5.497 -0.1653  0.3611 -0.1184
12667TIP3    H159416   2.367   5.610   5.428 -3.4955  0.3084  1.2264
12667TIP3    H259417   2.457   5.730   5.453  1.4795 -2.6296 -1.9548
12668TIP3   OH259418   3.603   5.665   1.216  0.2476 -0.1369 -0.0053
12668TIP3    H159419   3.525   5.628   1.175 -0.2721  1.3934 -0.4581
12668TIP3    H259420   3.604   5.627   1.304  0.1330 -1.7361 -0.6935
12669TIP3   OH259421   6.745   2.718   4.694 -0.6151 -0.2157  0.5110
12669TIP3    H159422   6.720   2.690   4.606  0.6057  0.4036 -0.0434
12669TIP3    H259423   6.794   2.644   4.730 -1.3578 -0.5803  0.7891
12670TIP3   OH259424   2.562   0.885   0.250 -0.5036  0.0424  0.3729
12670TIP3    H159425   2.652   0.910   0.268 -0.6516  1.3450 -0.6039
12670TIP3    H259426   2.509   0.943   0.304 -0.7529 -0.8463  1.0876
12671TIP3   OH259427   5.161   5.123  15.926  0.3565  0.3788  0.1246
12671TIP3    H159428   5.091   5.184  15.947  0.0123 -0.8413  2.7522
12671TIP3    H259429   5.118   5.037  15.924  1.5636 -0.2579  0.7082
12672TIP3   OH259430   0.911   3.174   2.132  0.1449  0.2556  1.1077
12672TIP3    H159431   0.868   3.106   2.081  2.6773 -2.4086  2.4081
12672TIP3    H259432   0.947   3.234   2.067  0.1873 -1.0763 -0.1055
12673TIP3   OH259433   3.462   5.022   4.383 -0.3478 -0.3488  0.0430
12673TIP3    H159434   3.536   5.034   4.444 -0.2237  3.2803 -0.6892
12673TIP3    H259435   3.391   4.990   4.438 -0.2557  2.9005  2.2192
12674TIP3   OH259436   4.731   0.903   0.299 -0.8124 -0.0205 -0.1304
12674TIP3    H159437   4.803   0.877   0.357 -0.2801  0.6444 -0.4856
12674TIP3    H259438   4.730   0.999   0.304 -0.5149  0.0623 -1.5117
12675TIP3   OH259439   5.028   4.102  16.553 -0.0025 -0.3576 -0.4514
12675TIP3    H159440   5.039   4.069  16.463 -1.1383  0.9733 -1.0945
12675TIP3    H259441   4.941   4.141  16.553  1.5426  3.2337  0.0897
12676TIP3   OH259442   5.230   6.610   6.059 -0.2698  0.2011  0.3988
12676TIP3    H159443   5.136   6.604   6.042 -0.6006 -3.0338  2.7915
12676TIP3    H259444   5.271   6.579   5.978 -1.4030 -1.5645  0.4612
12677TIP3   OH259445   2.236   2.974   1.305 -0.1354  0.3828  0.3491
12677TIP3    H159446   2.261   3.056   1.347 -0.9560  0.4426  0.7436
12677TIP3    H259447   2.206   2.918   1.377 -2.2642  0.7471 -0.2090
12678TIP3   OH259448   0.807   3.884  11.031 -0.6364 -0.2977  0.1308
12678TIP3    H159449   0.871   3.864  11.099 -0.2835 -0.2020 -0.1694
12678TIP3    H259450   0.860   3.894  10.951 -0.9514  0.4259  0.0088
12679TIP3   OH259451   2.702   4.790   4.736 -0.4344  0.2284  0.0388
12679TIP3    H159452   2.734   4.708   4.701 -0.0449  0.2989  0.2278
12679TIP3    H259453   2.650   4.765   4.813 -1.3963  0.0644 -0.6515
12680TIP3   OH259454   6.145   4.557  15.118  0.1704  0.3066  0.1644
12680TIP3    H159455   6.169   4.559  15.211 -1.7563  0.5782  0.6605
12680TIP3    H259456   6.100   4.473  15.107  0.0293  0.4604 -0.4409
12681TIP3   OH259457   0.809   2.288  11.209  0.1420  0.6326  0.4777
12681TIP3    H159458   0.801   2.222  11.140 -0.2750 -0.8853  1.9541
12681TIP3    H259459   0.756   2.362  11.177  0.8803  0.4067 -1.3333
12682TIP3   OH259460   5.751   6.561   3.602 -0.3511  0.1890 -0.1891
12682TIP3    H159461   5.676   6.620   3.595 -0.2003  0.2284 -1.7021
12682TIP3    H259462   5.800   6.575   3.521  1.6696  0.6716  1.0755
12683TIP3   OH259463   0.785   1.107   3.980 -0.0893 -0.1017 -0.1953
12683TIP3    H159464   0.749   1.057   3.907 -0.6501  1.4822 -1.0158
12683TIP3    H259465   0.713   1.112   4.044 -1.8234  3.9708 -2.2798
12684TIP3   OH259466   5.220   3.905  14.609 -0.8510  0.4825 -0.5183
12684TIP3    H159467   5.305   3.940  14.638 -0.8385  0.1117 -0.1056
12684TIP3    H259468   5.222   3.813  14.636 -1.8791  0.7709  0.5553
12685TIP3   OH259469   6.500   0.054  10.726 -0.1472 -0.1354 -0.3679
12685TIP3    H159470   6.577   0.084  10.775 -0.9659 -0.7034  1.2737
12685TIP3    H259471   6.504  -0.041  10.731 -0.4552 -0.1917 -1.1012
12686TIP3   OH259472   6.279   1.249  14.123  0.1239  0.4730 -0.6357
12686TIP3    H159473   6.279   1.254  14.028 -1.2444  0.4882 -0.6557
12686TIP3    H259474   6.233   1.167  14.143 -0.3879  0.9021  0.0060
12687TIP3   OH259475   4.933   0.146   0.584 -0.4619 -0.1514 -0.3981
12687TIP3    H159476   4.944   0.122   0.676 -1.9197 -1.4433 -0.5379
12687TIP3    H259477   4.869   0.218   0.586 -2.6931 -2.0809 -0.5749
12688TIP3   OH259478   2.069   4.186  12.459  0.2961  0.6005  0.0831
12688TIP3    H159479   2.158   4.194  12.494  1.0875  2.0312 -2.0832
12688TIP3    H259480   2.037   4.276  12.455 -0.2749  0.3403 -1.4824
12689TIP3   OH259481   0.559   3.409  13.215  0.2085 -0.3159  0.1032
12689TIP3    H159482   0.499   3.400  13.141 -0.1793  0.4409  0.3247
12689TIP3    H259483   0.645   3.387  13.179  0.1475  0.8657 -0.7715
12690TIP3   OH259484   2.247   4.288   4.641  0.2890  0.2394 -0.3977
12690TIP3    H159485   2.290   4.207   4.616  0.3058 -0.3222  1.3540
12690TIP3    H259486   2.225   4.276   4.734 -3.5046  0.5596 -1.1861
12691TIP3   OH259487   1.566   4.197   1.143 -0.3761  0.3556  0.5426
12691TIP3    H159488   1.538   4.128   1.202  0.0225 -0.2460  0.0310
12691TIP3    H259489   1.581   4.153   1.059 -2.2334  1.4243 -0.3791
12692TIP3   OH259490   4.655   4.531   0.751 -0.1205 -0.0178  0.2333
12692TIP3    H159491   4.733   4.573   0.717 -1.4665  2.7958  0.5275
12692TIP3    H259492   4.630   4.468   0.683  1.4464  0.2098 -0.5725
12693TIP3   OH259493   1.451   1.172  13.725  0.0067  0.2242 -0.4912
12693TIP3    H159494   1.408   1.119  13.658  0.8983 -1.1435 -0.0025
12693TIP3    H259495   1.422   1.261  13.707 -0.9259 -0.3192 -1.7878
12694TIP3   OH259496   4.516   5.987  11.999 -0.1311  0.0708 -0.2063
12694TIP3    H159497   4.580   6.009  11.931 -0.3848 -0.8615 -0.7573
12694TIP3    H259498   4.434   6.024  11.967 -0.0536  0.4691  0.0577
12695TIP3   OH259499   1.647   4.116  13.577  0.1064  0.0174  0.5654
12695TIP3    H159500   1.586   4.051  13.541  2.5676 -2.0004 -0.0838
12695TIP3    H259501   1.610   4.139  13.662 -2.6031  0.3406 -0.6595
12696TIP3   OH259502   0.921   0.549  12.220  0.6061 -0.2893  0.3841
12696TIP3    H159503   0.983   0.514  12.156  2.7729 -0.1439  2.3694
12696TIP3    H259504   0.873   0.473  12.251 -1.0357 -0.2758 -1.9204
12697TIP3   OH259505   2.983   2.220   0.066 -0.7767 -0.2271 -0.1736
12697TIP3    H159506   2.936   2.153   0.116  0.6843 -2.2336 -1.3937
12697TIP3    H259507   2.958   2.204  -0.025 -1.4786  1.7986 -0.3527
12698TIP3   OH259508   3.298   3.124  12.602  0.3304  0.3362 -0.3903
12698TIP3    H159509   3.285   3.139  12.696 -1.1958 -0.9506 -0.3745
12698TIP3    H259510   3.375   3.068  12.597  1.5228  1.9123 -0.0306
12699TIP3   OH259511   1.806   2.454  16.071  0.2679  0.3734  0.4600
12699TIP3    H159512   1.799   2.366  16.108 -0.7387  0.3528  0.2406
12699TIP3    H259513   1.723   2.467  16.025  0.1554  1.6684  1.0034
12700TIP3   OH259514   2.376   3.839   1.215 -0.5276  0.1089  0.0142
12700TIP3    H159515   2.303   3.821   1.274 -0.4026  2.8426  1.0557
12700TIP3    H259516   2.369   3.932   1.196  2.1040  0.1896 -0.7042
12701TIP3   OH259517   6.269   3.525  15.173 -0.2184  0.2003 -0.6546
12701TIP3    H159518   6.216   3.473  15.112 -1.3442  1.0325 -0.4059
12701TIP3    H259519   6.211   3.596  15.200  0.4218  0.0871  1.0486
12702TIP3   OH259520   5.537   5.691  13.733 -0.0986 -0.0771  0.0215
12702TIP3    H159521   5.595   5.617  13.751  1.6446  1.1696 -0.2506
12702TIP3    H259522   5.454   5.652  13.709  1.5136 -2.0181 -2.6922
12703TIP3   OH259523   6.159   0.492  12.284  0.1589  0.1988  0.4416
12703TIP3    H159524   6.240   0.540  12.301 -1.7539  3.6591  0.1331
12703TIP3    H259525   6.168   0.461  12.193  1.2757  0.2212  0.5357
12704TIP3   OH259526   6.446   0.889  10.787 -0.5649 -0.2879 -0.0768
12704TIP3    H159527   6.540   0.907  10.797 -0.6917  0.5925 -0.4623
12704TIP3    H259528   6.433   0.806  10.833 -0.0057  0.6566  1.8335
12705TIP3   OH259529   2.072   5.425   2.237 -0.2106 -0.4353 -0.1803
12705TIP3    H159530   2.011   5.351   2.234  2.3927 -2.6161 -1.8459
12705TIP3    H259531   2.112   5.418   2.324 -1.2315  0.1228  0.3495
12706TIP3   OH259532   3.451   3.756  13.692  0.0201 -0.1732  0.0780
12706TIP3    H159533   3.370   3.737  13.739 -0.7843  2.6185 -0.0607
12706TIP3    H259534   3.458   3.687  13.627 -0.8746 -1.9071  1.7886
12707TIP3   OH259535   3.613   2.670  16.293  0.6785 -0.4395 -0.0060
12707TIP3    H159536   3.628   2.750  16.343  1.2594  1.4587 -3.1016
12707TIP3    H259537   3.555   2.617  16.350 -0.0753  2.3212  1.9110
12708TIP3   OH259538   3.196   5.935  16.958 -0.1258  0.1135  0.2413
12708TIP3    H159539   3.105   5.907  16.958  0.3172 -1.4633  1.4598
12708TIP3    H259540   3.210   5.973  17.045  0.0944  1.3603 -0.3315
12709TIP3   OH259541   1.247   3.888   2.558  0.0868  0.4146  0.1825
12709TIP3    H159542   1.208   3.850   2.479  0.2287 -0.4197  0.5015
12709TIP3    H259543   1.334   3.848   2.562 -0.3971 -0.5207  1.4579
12710TIP3   OH259544   5.322   4.709   3.624 -0.3941  0.3429 -0.2780
12710TIP3    H159545   5.233   4.743   3.634 -0.3964  0.0795  0.6621
12710TIP3    H259546   5.353   4.745   3.541 -1.0808  1.0985 -0.2063
12711TIP3   OH259547   4.363   0.236  15.653 -0.7544 -0.3125 -1.0166
12711TIP3    H159548   4.307   0.184  15.595 -1.3680  0.4577 -1.1161
12711TIP3    H259549   4.419   0.171  15.695 -2.0190 -1.1579 -0.5802
12712TIP3   OH259550   1.859   2.205  13.097 -0.0255 -0.4760 -0.5618
12712TIP3    H159551   1.796   2.186  13.166  0.1343 -0.6692 -0.4691
12712TIP3    H259552   1.850   2.133  13.035  0.4742 -0.7710 -0.2851
12713TIP3   OH259553   2.800   4.869   2.087  0.1160 -0.3606  0.4799
12713TIP3    H159554   2.808   4.913   2.002 -0.7083 -0.7325  0.1999
12713TIP3    H259555   2.825   4.935   2.151  0.6035 -0.0321 -0.0492
12714TIP3   OH259556   4.571   2.708  13.719  0.2805  0.2488 -0.2187
12714TIP3    H159557   4.530   2.753  13.792  1.7721  0.2508  0.6362
12714TIP3    H259558   4.519   2.628  13.708 -0.4694  0.6622  0.2796
12715TIP3   OH259559   4.287   0.238   4.055 -0.4975 -0.7619  0.2535
12715TIP3    H159560   4.314   0.328   4.040  1.6251 -1.2830  0.8690
12715TIP3    H259561   4.265   0.235   4.148  1.4609 -1.3765  0.7130
12716TIP3   OH259562   6.624   3.815   4.132  0.2441  0.2805 -0.1430
12716TIP3    H159563   6.580   3.897   4.154  1.7204  1.1663 -0.4253
12716TIP3    H259564   6.710   3.841   4.100  1.1322 -1.4189  0.7404
12717TIP3   OH259565   0.549   6.215  16.546  0.1664 -0.2200  0.4657
12717TIP3    H159566   0.525   6.307  16.558  1.2631  0.4479 -2.2216
12717TIP3    H259567   0.467   6.168  16.560 -0.3566  1.1145  2.1317
12718TIP3   OH259568   4.244   5.743   6.075  0.6288 -0.2056  0.0460
12718TIP3    H159569   4.226   5.793   6.154 -2.2824 -1.9890  0.6024
12718TIP3    H259570   4.284   5.661   6.106  0.6645 -0.3720 -0.4280
12719TIP3   OH259571   4.810   5.756   0.009  0.0456  0.3276 -0.2659
12719TIP3    H159572   4.838   5.745   0.100 -1.2172 -0.7737  0.0121
12719TIP3    H259573   4.742   5.822   0.012 -0.3145 -0.0355 -0.3375
12720TIP3   OH259574   3.527   5.037  15.448 -0.6289 -0.8874 -0.0054
12720TIP3    H159575   3.443   5.071  15.479 -0.3860 -1.0899  0.8788
12720TIP3    H259576   3.586   5.112  15.451 -0.4707 -1.0286  0.5422
12721TIP3   OH259577   0.738   4.862   3.759  0.3579  0.0111  0.0973
12721TIP3    H159578   0.748   4.769   3.780 -0.9391 -1.1175 -3.7649
12721TIP3    H259579   0.726   4.905   3.844 -0.3895 -3.5241  1.8879
12722TIP3   OH259580   1.207   3.617  14.816  0.0267  0.2617 -0.4767
12722TIP3    H159581   1.193   3.709  14.842 -0.9236 -0.0910  0.3062
12722TIP3    H259582   1.131   3.597  14.761  0.6063  0.1550 -1.2460
12723TIP3   OH259583   0.133   1.357  16.754  0.2657 -0.2450  0.5406
12723TIP3    H159584   0.105   1.265  16.762  0.5829 -0.4139 -0.2574
12723TIP3    H259585   0.228   1.353  16.757  0.2681  0.1026  0.8957
12724TIP3   OH259586   4.024   1.401  13.302 -0.4519  0.0328 -0.4237
12724TIP3    H159587   3.956   1.465  13.283 -0.6826 -0.3390 -0.8639
12724TIP3    H259588   4.002   1.325  13.247 -0.4136 -0.5790  0.3941
12725TIP3   OH259589   2.511   2.673  14.699 -0.1017  0.3641  0.4672
12725TIP3    H159590   2.479   2.585  14.721 -0.6454  0.8826  1.7854
12725TIP3    H259591   2.464   2.697  14.620 -0.3723 -0.2994  0.4243
12726TIP3   OH259592   1.537   6.080  12.017 -0.4965 -0.3191 -0.1814
12726TIP3    H159593   1.451   6.096  11.979 -0.2207 -0.7543 -0.9900
12726TIP3    H259594   1.590   6.154  11.987 -1.0394  0.9398  1.8005
12727TIP3   OH259595   4.485   1.001  11.107 -0.4509 -0.1106  0.2539
12727TIP3    H159596   4.400   0.962  11.084  0.8083 -1.3604 -2.5626
12727TIP3    H259597   4.544   0.926  11.113  0.8154  0.9008  0.4327
12728TIP3   OH259598   0.439   3.000   0.862  0.4319  0.2320  0.0322
12728TIP3    H159599   0.469   3.018   0.951  1.5876  2.2590 -0.7501
12728TIP3    H259600   0.379   3.073   0.842  1.0835  0.4163 -1.2724
12729TIP3   OH259601   6.305   1.305  16.988 -0.3151 -0.0989 -0.5715
12729TIP3    H159602   6.304   1.305  17.084 -1.1378 -0.9606 -0.5610
12729TIP3    H259603   6.397   1.312  16.964 -0.0929 -0.0337  0.2939
12730TIP3   OH259604   5.151   1.390  11.995  0.2600  0.1297  0.1801
12730TIP3    H159605   5.141   1.408  12.089  1.0145 -1.7943  0.6493
12730TIP3    H259606   5.082   1.326  11.975  1.0643 -0.6160 -0.2320
12731TIP3   OH259607   0.203   5.015  15.239  0.4258 -0.6428  0.3578
12731TIP3    H159608   0.135   4.998  15.305 -1.0521 -2.0557 -1.4705
12731TIP3    H259609   0.215   5.110  15.241 -3.4570 -0.0308 -1.0037
12732TIP3   OH259610   3.255   5.807  15.802 -1.0427 -0.0292  0.0772
12732TIP3    H159611   3.301   5.783  15.722 -1.0082 -0.6324  0.2806
12732TIP3    H259612   3.306   5.767  15.873 -2.1419 -1.1121  0.2699
12733TIP3   OH259613   1.283   0.299  13.842 -0.7297 -0.5604  0.1379
12733TIP3    H159614   1.255   0.244  13.916 -3.5463  2.4642  1.4762
12733TIP3    H259615   1.264   0.388  13.871  1.4597  0.9690 -2.9071
12734TIP3   OH259616   0.478   1.903  13.719  0.5828 -0.1615  0.3202
12734TIP3    H159617   0.385   1.918  13.700  0.2446 -3.2473 -0.8050
12734TIP3    H259618   0.525   1.970  13.670 -0.9344 -0.1405 -1.1188
12735TIP3   OH259619   5.832   5.183   4.563 -0.3924 -0.4499 -0.0273
12735TIP3    H159620   5.834   5.278   4.549  1.5506 -0.4365  0.1829
12735TIP3    H259621   5.748   5.156   4.528 -0.2702  1.1274 -1.6449
12736TIP3   OH259622   2.927   6.294   2.597 -0.3024 -0.1970  0.3756
12736TIP3    H159623   2.935   6.264   2.507 -3.5703  0.8213 -0.3250
12736TIP3    H259624   3.017   6.312   2.625  0.7651 -0.6200 -2.6289
12737TIP3   OH259625   4.642   1.410   4.456 -0.7103 -0.2178  0.0335
12737TIP3    H159626   4.616   1.354   4.383 -0.2026  1.4573 -1.4667
12737TIP3    H259627   4.566   1.467   4.471 -0.0949  0.7634 -0.5148
12738TIP3   OH259628   3.332   1.623   4.266 -0.1326  0.3809  0.0204
12738TIP3    H159629   3.319   1.668   4.183 -1.1037  0.8378  0.4122
12738TIP3    H259630   3.425   1.636   4.286  0.5209 -1.3090 -1.8882
12739TIP3   OH259631   5.886   6.588   3.359  0.2483  0.0650  0.2698
12739TIP3    H159632   5.927   6.620   3.279  0.2077  0.7547  0.5271
12739TIP3    H259633   5.865   6.496   3.340 -0.2619  0.3794 -0.6992
12740TIP3   OH259634   3.239   1.513  11.406 -0.0817 -0.7470  0.0036
12740TIP3    H159635   3.228   1.574  11.479  0.5950 -0.5513 -0.0546
12740TIP3    H259636   3.163   1.455  11.411  0.7257 -1.6774  1.7529
12741TIP3   OH259637   1.570   6.029   6.014 -0.5476  0.2483  0.2758
12741TIP3    H159638   1.641   5.965   6.020 -0.3574  0.3250 -0.9633
12741TIP3    H259639   1.537   6.020   5.924 -0.4170  2.0012  0.0370
12742TIP3   OH259640   4.776   4.612  12.779 -0.1778 -0.1124 -0.1834
12742TIP3    H159641   4.731   4.584  12.699 -0.1385 -3.1059  0.7792
12742TIP3    H259642   4.705   4.645  12.836 -0.4248  0.3207 -0.7305
12743TIP3   OH259643   4.331   1.732   3.728  0.5883  0.3692  0.2514
12743TIP3    H159644   4.257   1.709   3.785 -1.2898  3.8510 -0.6300
12743TIP3    H259645   4.380   1.797   3.778  0.3886  1.5231 -1.0283
12744TIP3   OH259646   6.313   5.392  16.192  0.4424 -0.0132  0.3034
12744TIP3    H159647   6.229   5.345  16.193  0.0113  0.7472 -0.4024
12744TIP3    H259648   6.356   5.363  16.111 -0.7421  2.4043 -1.2451
12745TIP3   OH259649   2.309   0.603   5.113 -0.2262 -0.0132 -0.6283
12745TIP3    H159650   2.380   0.579   5.053  0.6260 -0.3163  0.4896
12745TIP3    H259651   2.278   0.687   5.080  2.7467  1.6782  0.6808
12746TIP3   OH259652   1.713   0.747  16.219  0.2985 -0.4429  0.2746
12746TIP3    H159653   1.664   0.822  16.185  0.3411 -1.0362 -1.1028
12746TIP3    H259654   1.756   0.709  16.143  3.0883  0.1511  1.4846
12747TIP3   OH259655   3.796   3.275  17.224  0.0561  0.1352 -0.0313
12747TIP3    H159656   3.700   3.279  17.226  0.1201  1.7151  0.1271
12747TIP3    H259657   3.818   3.290  17.132  0.0984 -2.1302 -0.4340
12748TIP3   OH259658   3.360   6.764   6.206 -0.3374 -0.2310 -0.4755
12748TIP3    H159659   3.425   6.696   6.227 -2.4903 -1.2697  3.3155
12748TIP3    H259660   3.287   6.716   6.166 -0.2216  0.4509 -1.5267
12749TIP3   OH259661   6.437   3.964   4.367 -0.2415 -0.4005  0.2413
12749TIP3    H159662   6.493   3.999   4.297 -2.5380  0.4929 -1.1947
12749TIP3    H259663   6.446   4.028   4.437 -0.4035  0.3853 -0.4437
12750TIP3   OH259664   1.260   4.742   1.062 -0.1724 -0.0631 -0.1070
12750TIP3    H159665   1.279   4.762   0.971 -0.8410  3.5643  0.4975
12750TIP3    H259666   1.340   4.700   1.094  0.9378  0.7673 -1.7153
12751TIP3   OH259667   0.112   2.357   0.190 -0.0063 -0.1762  0.5219
12751TIP3    H159668   0.136   2.312   0.271 -0.1773 -0.6215  0.3296
12751TIP3    H259669   0.161   2.439   0.192  2.3988 -1.5416 -0.3862
12752TIP3   OH259670   2.354   3.054  13.906  0.1368 -0.6218 -0.4394
12752TIP3    H159671   2.260   3.070  13.898  0.0348 -1.1994 -0.4067
12752TIP3    H259672   2.381   3.029  13.818  0.3573  0.0335 -0.5633
12753TIP3   OH259673   6.394   0.785   2.626  0.5489  0.1228 -0.1983
12753TIP3    H159674   6.339   0.756   2.698  0.2605 -0.0926 -0.5009
12753TIP3    H259675   6.483   0.779   2.659  0.4823 -0.8976 -0.1781
12754TIP3   OH259676   3.592   1.067   5.872  0.2612  0.3915  0.3268
12754TIP3    H159677   3.553   1.004   5.811  0.4156  0.3552  0.2632
12754TIP3    H259678   3.600   1.019   5.954 -0.5209  0.6361  0.5525
12755TIP3   OH259679   0.675   5.929   5.601  0.6626 -0.3011 -0.8859
12755TIP3    H159680   0.758   5.961   5.636 -0.6606  0.9439  1.2247
12755TIP3    H259681   0.646   5.999   5.542  0.0520  0.2727  0.0875
12756TIP3   OH259682   4.637   2.210  17.098 -0.1778 -0.2640  0.3526
12756TIP3    H159683   4.652   2.304  17.108  1.2397 -0.5421  1.1023
12756TIP3    H259684   4.631   2.196  17.004  1.9784  0.2550  0.1115
12757TIP3   OH259685   5.560   2.595  13.755  0.2130  0.8761 -0.1023
12757TIP3    H159686   5.557   2.640  13.839 -0.0040  0.4197  0.1346
12757TIP3    H259687   5.495   2.640  13.701 -0.3542  0.5385  0.2918
12758TIP3   OH259688   5.349   6.772  13.116 -0.3896  0.8233  0.6292
12758TIP3    H159689   5.413   6.768  13.045 -1.0086  0.6739  0.0709
12758TIP3    H259690   5.383   6.839  13.175  0.2878  0.7318  0.3429
12759TIP3   OH259691   0.214   3.186   0.836 -0.3071  0.0737 -0.1462
12759TIP3    H159692   0.238   3.272   0.802 -0.2924  0.5951  1.1418
12759TIP3    H259693   0.124   3.197   0.868 -0.8160 -0.7693 -1.2360
12760TIP3   OH259694   1.789   6.605  14.159 -0.1563 -0.1391  0.6984
12760TIP3    H159695   1.707   6.615  14.209 -1.4518 -1.3032 -1.1573
12760TIP3    H259696   1.802   6.510  14.152 -0.0060  0.0059 -1.2004
12761TIP3   OH259697   5.758   6.473  12.063  0.0310  0.0205  1.2347
12761TIP3    H159698   5.719   6.560  12.073  1.2799  0.5227  1.8038
12761TIP3    H259699   5.705   6.431  11.994 -1.9162  0.4347  2.4215
12762TIP3   OH259700   2.886   4.229  13.536  0.2200  0.4047 -0.1226
12762TIP3    H159701   2.856   4.197  13.621 -1.2409 -2.4634 -1.6471
12762TIP3    H259702   2.812   4.281  13.502  0.4912  0.8760  0.0047
12763TIP3   OH259703   0.882   4.756   4.215  0.6202  0.1049 -0.0261
12763TIP3    H159704   0.832   4.717   4.287  1.5793  0.1878  0.7041
12763TIP3    H259705   0.869   4.851   4.226  0.8887  0.1256  0.1460
12764TIP3   OH259706   6.704   6.638  13.079  0.1365  0.5743  0.4203
12764TIP3    H159707   6.721   6.716  13.026  0.3664 -0.6871 -1.4275
12764TIP3    H259708   6.782   6.628  13.134  1.5417 -0.1652 -1.6585
12765TIP3   OH259709   1.669   3.036   5.171  0.0974 -0.0868 -0.6155
12765TIP3    H159710   1.644   3.108   5.229 -0.1563 -1.1856  0.6777
12765TIP3    H259711   1.655   3.070   5.083 -1.4135  0.9441  0.0010
12766TIP3   OH259712   1.532   6.425   5.660  0.3526  1.1696  0.0115
12766TIP3    H159713   1.559   6.493   5.598  3.5023 -0.3232 -0.3363
12766TIP3    H259714   1.613   6.382   5.685 -1.0207  0.7016  4.0232
12767TIP3   OH259715   4.404   0.842  12.127  0.3253 -0.4014  0.0743
12767TIP3    H159716   4.472   0.846  12.194  0.8730  1.1281 -0.5489
12767TIP3    H259717   4.450   0.861  12.045 -0.5341 -1.1919 -0.6070
12768TIP3   OH259718   0.789   6.698   1.290 -0.2014 -0.4580  0.0490
12768TIP3    H159719   0.839   6.638   1.345  0.6680 -1.0404 -1.3321
12768TIP3    H259720   0.836   6.782   1.297  0.1266 -0.6274 -0.0882
12769TIP3   OH259721   2.496   6.159   5.543  0.1510  0.1716 -0.5301
12769TIP3    H159722   2.534   6.244   5.565  1.1279 -0.4588  0.2108
12769TIP3    H259723   2.545   6.129   5.467  1.7523 -1.0427  0.9552
12770TIP3   OH259724   1.612   1.965   4.258  0.4053 -0.5325 -0.2741
12770TIP3    H159725   1.678   2.027   4.227  1.4128  0.1789  3.1916
12770TIP3    H259726   1.533   1.988   4.209  0.9176  3.0794  0.5045
12771TIP3   OH259727   4.530   6.736  13.627  0.3170 -0.6869 -0.1925
12771TIP3    H159728   4.525   6.663  13.688 -0.5807 -1.4591 -1.1731
12771TIP3    H259729   4.543   6.813  13.682 -1.6603 -1.2183  1.0767
12772TIP3   OH259730   0.035   5.676  15.082 -0.5642  0.3023  0.7583
12772TIP3    H159731   0.127   5.671  15.107 -0.7700  2.7204  2.1089
12772TIP3    H259732   0.017   5.769  15.072 -2.0825 -0.2922 -2.6499
12773TIP3   OH259733   5.341   4.864   2.544 -0.0391 -0.0332 -0.6212
12773TIP3    H159734   5.428   4.830   2.522 -0.3540 -1.0726 -0.2767
12773TIP3    H259735   5.301   4.795   2.597 -0.3511  1.2634  0.8472
12774TIP3   OH259736   4.940   2.075   0.506 -0.4332  0.2780 -0.1543
12774TIP3    H159737   4.920   2.149   0.449  1.1582  0.0908 -0.9996
12774TIP3    H259738   4.997   2.019   0.453  0.3832 -0.3225  1.3212
12775TIP3   OH259739   6.392   1.762  16.757 -0.8776  0.0520 -0.2586
12775TIP3    H159740   6.427   1.783  16.843  1.4941  0.2860 -1.2311
12775TIP3    H259741   6.364   1.846  16.721 -0.0829  0.2312 -0.4656
12776TIP3   OH259742   6.269   2.174   1.891  0.3117  0.4240  0.1703
12776TIP3    H159743   6.278   2.188   1.985  1.9717 -1.0411  0.2486
12776TIP3    H259744   6.174   2.167   1.877  0.1795 -2.8577  2.3044
12777TIP3   OH259745   6.189   6.315  13.051  0.1316 -0.9397  0.6175
12777TIP3    H159746   6.197   6.241  12.990 -0.0076 -1.7772  1.6041
12777TIP3    H259747   6.207   6.277  13.137  2.3901  0.6285  0.8799
12778TIP3   OH259748   6.030   5.515  12.665  0.0467  0.5892 -0.0011
12778TIP3    H159749   6.095   5.504  12.735 -0.2356  0.0019  0.1758
12778TIP3    H259750   5.950   5.476  12.701  0.0969 -0.4032 -0.9399
12779TIP3   OH259751   2.765   6.512   1.663 -0.1046  0.5496 -0.0971
12779TIP3    H159752   2.680   6.482   1.632 -0.1505 -1.6648  2.0454
12779TIP3    H259753   2.749   6.544   1.752  0.9655  1.8382 -0.3479
12780TIP3   OH259754   1.686   0.091  14.341 -0.3133  0.1272  0.0546
12780TIP3    H159755   1.770   0.118  14.304 -0.1990  0.9651  0.9022
12780TIP3    H259756   1.705   0.070  14.432 -1.1649  1.1293  0.4812
12781TIP3   OH259757   2.079   0.678  12.746 -0.2912  0.0060 -0.0869
12781TIP3    H159758   2.054   0.626  12.670 -0.1250 -0.0485 -0.1045
12781TIP3    H259759   2.033   0.638  12.820  0.0104 -0.2975 -0.0650
12782TIP3   OH259760   6.668   6.383  15.186 -0.4778 -0.2798  0.3080
12782TIP3    H159761   6.687   6.419  15.272  1.1083 -0.6066  0.1059
12782TIP3    H259762   6.742   6.325  15.166 -0.5972  0.1278 -1.4577
12783TIP3   OH259763   4.254   2.658  13.373  0.5228  0.2674  0.0288
12783TIP3    H159764   4.243   2.625  13.284 -1.6141 -0.2541  0.4766
12783TIP3    H259765   4.181   2.622  13.423  0.7888  1.8374  1.6378
12784TIP3   OH259766   5.294   0.822  13.436  0.3342  0.3361  0.3290
12784TIP3    H159767   5.349   0.893  13.403 -0.7995  1.1888  0.2408
12784TIP3    H259768   5.325   0.744  13.389 -0.0374  1.2089 -1.4084
12785TIP3   OH259769   0.662   3.326   3.299 -0.0024 -0.1562  0.2912
12785TIP3    H159770   0.603   3.251   3.308 -0.3925  0.3079  1.7354
12785TIP3    H259771   0.702   3.335   3.385  1.6083  0.0266 -0.4624
12786TIP3   OH259772   2.115   3.606   0.892 -0.9021 -0.2518 -0.1100
12786TIP3    H159773   2.078   3.630   0.977  0.0362 -0.1610  0.2847
12786TIP3    H259774   2.183   3.541   0.914 -0.3429  0.1138 -0.7417
12787TIP3   OH259775   3.375   1.117   2.451 -0.0804 -0.6764  0.3151
12787TIP3    H159776   3.284   1.130   2.476 -0.8693  0.5624 -3.0137
12787TIP3    H259777   3.381   1.026   2.424 -0.4869 -0.5749 -0.1066
12788TIP3   OH259778   2.032   4.046  10.799  0.3000 -0.5057  0.5202
12788TIP3    H159779   1.989   4.014  10.719 -1.1398 -0.2596  1.1720
12788TIP3    H259780   2.113   4.087  10.768  1.1400 -2.8388 -0.5531
12789TIP3   OH259781   6.234   5.098  11.445 -0.1638  0.1584 -0.7722
12789TIP3    H159782   6.162   5.039  11.467  0.3461 -0.3532 -0.4594
12789TIP3    H259783   6.223   5.115  11.351 -0.5201 -0.1521 -0.7867
12790TIP3   OH259784   3.260   6.776  15.867 -0.2481  0.3426  0.2808
12790TIP3    H159785   3.198   6.837  15.828  2.9307  3.6920  0.1543
12790TIP3    H259786   3.231   6.765  15.957 -1.1216  1.7445  0.1845
12791TIP3   OH259787   0.287   3.810  11.358  0.5383 -0.1898  0.0133
12791TIP3    H159788   0.261   3.749  11.290 -0.5372  0.6032 -0.2990
12791TIP3    H259789   0.327   3.883  11.311 -1.2788  0.9124  0.0922
12792TIP3   OH259790   6.461   0.644  11.253 -0.2057  0.0716  0.0879
12792TIP3    H159791   6.445   0.646  11.159 -1.1440  1.5527  0.2603
12792TIP3    H259792   6.373   0.644  11.292  0.1814  1.2817  0.9771
12793TIP3   OH259793   5.537   4.011  13.481  0.3240  0.3652 -0.0916
12793TIP3    H159794   5.601   3.947  13.514 -0.3346 -0.0827  0.3148
12793TIP3    H259795   5.454   3.984  13.519  0.1939  2.0159  0.7974
12794TIP3   OH259796   0.377   6.158  15.464  0.3394 -0.2146  0.6241
12794TIP3    H159797   0.293   6.185  15.502  0.4291 -1.3210  1.6231
12794TIP3    H259798   0.382   6.064  15.481  1.9395 -0.1006  0.8435
12795TIP3   OH259799   6.102   5.483   4.112 -0.3685 -0.0009  0.1590
12795TIP3    H159800   6.100   5.578   4.113  0.4692  0.0117  1.3855
12795TIP3    H259801   6.088   5.459   4.020  0.5604  1.3228 -0.3228
12796TIP3   OH259802   0.640   5.197   1.473 -0.2230  0.4670  0.4827
12796TIP3    H159803   0.612   5.187   1.383 -1.3438 -0.7627  0.9573
12796TIP3    H259804   0.563   5.176   1.526  0.4135  1.1579  1.7297
12797TIP3   OH259805   3.350   4.225  15.826  0.2429 -0.6205 -0.4337
12797TIP3    H159806   3.256   4.243  15.819  0.5652  1.3908  0.1925
12797TIP3    H259807   3.380   4.216  15.736 -0.5211 -1.0806 -0.6399
12798TIP3   OH259808   4.124   2.169  11.855 -0.1610  0.2023  0.5023
12798TIP3    H159809   4.066   2.097  11.881 -0.8219  0.8948  0.9346
12798TIP3    H259810   4.162   2.139  11.772 -0.9921 -0.3287  0.3106
12799TIP3   OH259811   1.825   0.784  15.274 -0.0338  0.2684  0.4305
12799TIP3    H159812   1.897   0.770  15.335  1.2074 -0.2139 -1.0875
12799TIP3    H259813   1.861   0.844  15.208 -0.6295 -0.8333 -0.9364
12800TIP3   OH259814   0.052   6.261  12.126 -0.0511  0.3527 -0.5494
12800TIP3    H159815  -0.018   6.197  12.115 -1.2559  1.1641  2.0116
12800TIP3    H259816   0.010   6.346  12.115  0.9301  0.7959 -0.9456
12801TIP3   OH259817   0.344   0.239   2.802 -0.2956 -0.5189 -0.2422
12801TIP3    H159818   0.401   0.195   2.739 -1.6026 -1.7109 -0.6111
12801TIP3    H259819   0.343   0.331   2.774 -1.3428 -1.1409 -2.3288
12802TIP3   OH259820   5.520   0.974  14.280 -0.0355  0.0820 -0.4006
12802TIP3    H159821   5.525   0.895  14.333  0.0638  1.4444  1.7256
12802TIP3    H259822   5.440   0.965  14.229  0.4732 -1.7825 -0.9042
12803TIP3   OH259823   1.542   2.501  13.896  0.1146  0.5533  0.0455
12803TIP3    H159824   1.482   2.512  13.822 -0.0896  0.4944  0.2007
12803TIP3    H259825   1.534   2.584  13.945  0.7790  0.8739 -0.3829
12804TIP3   OH259826   3.770   2.466   6.062 -0.0949 -0.3639  0.3234
12804TIP3    H159827   3.704   2.535   6.054 -1.1548 -1.1195  2.2624
12804TIP3    H259828   3.854   2.511   6.053 -0.7680  1.1862  1.6142
12805TIP3   OH259829   6.627   3.044   1.146  0.3037  0.1351 -0.4539
12805TIP3    H159830   6.673   2.984   1.205  1.6186  0.2852 -1.2996
12805TIP3    H259831   6.559   2.990   1.106 -1.9977  0.5478  2.7483
12806TIP3   OH259832   3.445   3.993   3.181 -0.3993  0.1399 -0.0278
12806TIP3    H159833   3.517   3.941   3.145 -1.5070 -1.6206  0.2239
12806TIP3    H259834   3.457   3.987   3.276 -0.5454  0.3279  0.0012
12807TIP3   OH259835   4.154   3.659  12.879 -0.0070  0.5975  0.4327
12807TIP3    H159836   4.221   3.726  12.863  0.0678  0.5303  0.4623
12807TIP3    H259837   4.171   3.630  12.968  2.0096 -1.7603 -0.6657
12808TIP3   OH259838   5.358   4.982  12.852  0.0229 -0.3399  0.2120
12808TIP3    H159839   5.447   4.987  12.886  0.1664 -0.2287 -0.1807
12808TIP3    H259840   5.368   4.982  12.757 -0.4052 -0.1536  0.1647
12809TIP3   OH259841   1.517   6.662  14.261 -0.0239 -0.6244  0.3157
12809TIP3    H159842   1.549   6.752  14.265 -0.2962 -0.5462  0.7668
12809TIP3    H259843   1.461   6.660  14.184 -1.6231  0.1175  1.4344
12810TIP3   OH259844   3.141   4.243  15.199  0.2805  0.1368  0.1029
12810TIP3    H159845   3.181   4.328  15.218  0.6373  0.1060 -0.4817
12810TIP3    H259846   3.135   4.240  15.103  2.8710 -1.6774 -0.0384
12811TIP3   OH259847   4.795   2.950  12.322 -0.2063 -0.1067 -0.1333
12811TIP3    H159848   4.883   2.963  12.287 -0.5715 -1.0080 -1.4119
12811TIP3    H259849   4.753   3.036  12.318  0.0905 -0.0050 -0.9783
12812TIP3   OH259850   0.727   3.053   6.685 -0.7514  0.2324  0.2886
12812TIP3    H159851   0.713   2.999   6.762 -0.0312 -1.0239 -0.4348
12812TIP3    H259852   0.659   3.120   6.689  0.4779  1.3525  3.0164
12813TIP3   OH259853   6.007   0.726  14.105  0.2177  0.0434  1.0170
12813TIP3    H159854   5.978   0.636  14.119 -0.0642 -0.1110 -0.5084
12813TIP3    H259855   5.927   0.778  14.111 -0.2693 -0.2628 -2.0865
12814TIP3   OH259856   0.124   6.632  13.608 -0.2634  0.1886  0.0033
12814TIP3    H159857   0.208   6.609  13.650  0.4834 -0.7921 -1.9642
12814TIP3    H259858   0.141   6.717  13.567 -0.4925  0.3860  0.3202
12815TIP3   OH259859   2.694   0.389  16.649 -0.1032 -0.3393  0.6579
12815TIP3    H159860   2.772   0.333  16.650  0.5969  0.6362  0.8147
12815TIP3    H259861   2.681   0.410  16.557  2.6134  3.3330  0.9922
12816TIP3   OH259862   3.255   2.759   0.370  0.2758 -0.0701 -0.0741
12816TIP3    H159863   3.203   2.695   0.418  0.0373 -2.3016 -3.1116
12816TIP3    H259864   3.213   2.843   0.388 -1.6111 -1.2369  1.1278
12817TIP3   OH259865   5.915   5.828   2.248 -0.1148 -0.3950  0.2884
12817TIP3    H159866   5.994   5.789   2.210  0.0505 -0.5593  0.7987
12817TIP3    H259867   5.858   5.753   2.267 -1.4238 -0.1284 -2.3539
12818TIP3   OH259868   0.344   1.852   3.769 -0.6183 -0.0921  0.1581
12818TIP3    H159869   0.307   1.930   3.808 -3.2458 -1.6029  0.8322
12818TIP3    H259870   0.411   1.823   3.831  0.8234  1.9121 -0.4074
12819TIP3   OH259871   4.474   3.188   4.552 -0.4399  0.5882  0.0139
12819TIP3    H159872   4.397   3.203   4.607 -0.6341  2.6262 -0.7368
12819TIP3    H259873   4.480   3.268   4.498  1.8967  0.2404 -0.2967
12820TIP3   OH259874   3.537   5.976   4.919 -0.4092 -0.3049 -0.1894
12820TIP3    H159875   3.590   6.053   4.938  0.8434 -1.0577 -0.5548
12820TIP3    H259876   3.535   5.971   4.824 -0.1295 -0.9504 -0.1663
12821TIP3   OH259877   2.226   5.159  16.121  0.1181  0.2815 -0.4343
12821TIP3    H159878   2.239   5.160  16.026 -0.2834  0.5335 -0.4864
12821TIP3    H259879   2.185   5.243  16.141 -0.4569 -0.0658 -0.1278
12822TIP3   OH259880   6.403   3.426   1.064  0.1236 -0.0629  0.3632
12822TIP3    H159881   6.409   3.347   1.118 -0.8411 -0.1441  0.3718
12822TIP3    H259882   6.361   3.491   1.122  0.7084  0.3931  0.2844
12823TIP3   OH259883   2.268   0.152  11.120 -0.0438  0.4839  0.4592
12823TIP3    H159884   2.315   0.158  11.037  1.6160  1.1015  1.4341
12823TIP3    H259885   2.201   0.220  11.115  0.3845  0.8554 -0.1612
12824TIP3   OH259886   2.970   5.567  16.067  0.8684 -0.2078 -0.0174
12824TIP3    H159887   2.901   5.512  16.102 -0.7608  1.6909 -0.1549
12824TIP3    H259888   3.038   5.567  16.135  0.8582 -2.2607  0.0131
12825TIP3   OH259889   0.176   1.270  13.028 -0.0113 -0.0907 -0.2665
12825TIP3    H159890   0.183   1.288  12.934 -0.2454 -0.6603 -0.3913
12825TIP3    H259891   0.213   1.182  13.038 -0.4116 -0.2175  0.1100
12826TIP3   OH259892   4.391   2.983   5.851  0.0260  0.5704  0.0345
12826TIP3    H159893   4.300   3.007   5.835  0.0778  1.2014  0.6372
12826TIP3    H259894   4.441   3.058   5.821  0.0978  2.0224  3.4938
12827TIP3   OH259895   5.118   0.039   5.598  0.6974  0.8081 -0.0725
12827TIP3    H159896   5.106  -0.046   5.556  1.0219  1.1744 -0.9233
12827TIP3    H259897   5.057   0.039   5.671  1.0251 -0.3401  0.2068
12828TIP3   OH259898   1.395   4.699  16.828 -0.2133 -0.1263  0.4016
12828TIP3    H159899   1.423   4.739  16.745 -0.2410  0.5566  0.7173
12828TIP3    H259900   1.323   4.753  16.858 -1.4414 -1.4890 -0.0578
12829TIP3   OH259901   1.114   2.058   3.148 -0.0483 -0.4701  1.2444
12829TIP3    H159902   1.100   2.002   3.072  0.1288  0.9802  0.1248
12829TIP3    H259903   1.026   2.075   3.182 -0.4636  1.8148 -0.8126
12830TIP3   OH259904   1.916   1.033   2.822 -0.1605  0.2670  0.3029
12830TIP3    H159905   1.958   1.118   2.835 -0.8602  0.5968  0.4430
12830TIP3    H259906   1.977   0.984   2.768  0.9308  0.3347  1.4626
12831TIP3   OH259907   2.834   1.568   4.653  0.6423 -0.2594  0.5590
12831TIP3    H159908   2.757   1.587   4.600 -0.1105  0.2184  1.7875
12831TIP3    H259909   2.802   1.574   4.743  2.0554 -0.3318  1.0709
12832TIP3   OH259910   1.879   4.374  12.732  0.6309  0.0749  0.0624
12832TIP3    H159911   1.909   4.298  12.782 -0.1451 -0.9545 -0.9947
12832TIP3    H259912   1.784   4.370  12.736  0.5905  1.2554  0.3674
12833TIP3   OH259913   2.725   0.061   3.564  0.0273  0.3090  0.1306
12833TIP3    H159914   2.817   0.087   3.561  0.6555 -1.7368  0.8598
12833TIP3    H259915   2.716  -0.002   3.493 -0.5537 -0.2494  0.6974
12834TIP3   OH259916   3.749   5.073   6.697  0.2943 -0.0240 -0.4618
12834TIP3    H159917   3.757   4.986   6.657  0.8218 -0.1588 -0.0680
12834TIP3    H259918   3.839   5.101   6.712  0.2100  1.3602 -2.2196
12835TIP3   OH259919   6.577   1.286   5.341  0.7984 -0.2652 -0.0426
12835TIP3    H159920   6.515   1.312   5.274  0.1594 -1.9672 -0.1367
12835TIP3    H259921   6.639   1.228   5.296  2.7068  1.6756 -0.0399
12836TIP3   OH259922   5.509   2.949  15.006 -0.4433 -0.0994  0.1945
12836TIP3    H159923   5.523   2.959  14.912  0.8467 -2.0783  0.1222
12836TIP3    H259924   5.580   2.999  15.046 -1.8973  2.0096  0.1589
12837TIP3   OH259925   5.742   6.471  12.371  0.0223 -0.1207 -0.4859
12837TIP3    H159926   5.695   6.407  12.317 -0.8486 -0.4956  0.6822
12837TIP3    H259927   5.721   6.446  12.461 -0.8281  2.1627 -0.0162
12838TIP3   OH259928   2.808   3.636  14.345 -0.4919 -0.8828 -0.0153
12838TIP3    H159929   2.893   3.648  14.303 -0.8109 -0.9534 -0.6869
12838TIP3    H259930   2.818   3.556  14.398  0.5451  0.3600  1.6983
12839TIP3   OH259931   3.892   4.089   4.653  0.6873 -0.0560 -0.2948
12839TIP3    H159932   3.975   4.070   4.698  0.5562  2.5784  1.1200
12839TIP3    H259933   3.889   4.184   4.646 -1.9766 -0.1394 -0.8005
12840TIP3   OH259934   0.535   5.583  13.607 -0.2444  0.3071  0.6261
12840TIP3    H159935   0.538   5.531  13.687 -0.9711 -0.4001  0.1970
12840TIP3    H259936   0.480   5.659  13.629 -1.8899 -0.7672  0.2897
12841TIP3   OH259937   5.895   4.866  12.951 -0.3156  0.5571 -0.4747
12841TIP3    H159938   5.965   4.892  13.011  0.2299 -0.6261 -0.5692
12841TIP3    H259939   5.934   4.874  12.864  0.0239 -0.9406 -0.4882
12842TIP3   OH259940   5.280   0.762  17.230  0.1386  0.4372  0.4466
12842TIP3    H159941   5.371   0.791  17.221  0.3087  0.2172  1.3386
12842TIP3    H259942   5.273   0.737  17.322 -0.2536 -1.4839 -0.0900
12843TIP3   OH259943   4.796   2.046   3.270 -0.3638 -0.2085 -0.0876
12843TIP3    H159944   4.840   2.031   3.187  0.0831  0.0171  0.1083
12843TIP3    H259945   4.851   2.110   3.315 -0.9176  0.1141  0.1323
12844TIP3   OH259946   1.600   1.102   2.025  0.1874 -0.2396  0.1447
12844TIP3    H159947   1.640   1.104   1.938  3.0179 -1.0732  1.3808
12844TIP3    H259948   1.619   1.189   2.062 -1.0164  0.1161 -0.0538
12845TIP3   OH259949   1.478   0.679  12.366  0.0273  0.2026 -0.3088
12845TIP3    H159950   1.534   0.738  12.416  0.3626 -0.3408 -0.0447
12845TIP3    H259951   1.532   0.601  12.350 -0.5290 -0.1751 -0.3624
12846TIP3   OH259952   3.013   4.284  14.659  0.5536 -0.2907 -0.0435
12846TIP3    H159953   3.107   4.269  14.655  0.7622  0.6235  1.0009
12846TIP3    H259954   3.004   4.373  14.695 -0.6772  0.3177 -1.7857
12847TIP3   OH259955   3.117   5.559   1.413 -0.0968 -0.2718 -0.4461
12847TIP3    H159956   3.103   5.618   1.338 -2.0812  1.2207  1.0413
12847TIP3    H259957   3.202   5.586   1.449  0.1128  0.0827 -1.1965
12848TIP3   OH259958   3.751   6.169  11.566  0.3265  0.0213  0.1963
12848TIP3    H159959   3.701   6.241  11.604  0.3723 -0.0322  0.3614
12848TIP3    H259960   3.712   6.155  11.480 -0.0356 -0.1130  0.3806
12849TIP3   OH259961   4.151   5.398  12.342 -0.6648  0.3846 -0.0796
12849TIP3    H159962   4.229   5.362  12.298 -1.1937 -0.2842 -0.4885
12849TIP3    H259963   4.124   5.471  12.287  0.3903  1.3948  0.7264
12850TIP3   OH259964   2.295   1.378   3.444  0.1182  0.0320 -0.0283
12850TIP3    H159965   2.313   1.428   3.523  0.4622  0.0751 -0.1330
12850TIP3    H259966   2.380   1.372   3.399  0.1269 -0.8359  0.1003
12851TIP3   OH259967   1.095   4.577   3.558 -0.3163 -0.2565 -0.2085
12851TIP3    H159968   1.045   4.522   3.498  0.1786 -0.5120 -0.3878
12851TIP3    H259969   1.086   4.666   3.524 -0.1095 -0.3899 -0.6130
12852TIP3   OH259970   6.741   0.370   2.068 -0.3208 -0.0373  0.2058
12852TIP3    H159971   6.656   0.413   2.075 -1.1734 -1.5733 -0.2885
12852TIP3    H259972   6.728   0.303   2.000  0.6801 -1.6191  1.5201
12853TIP3   OH259973   4.819   4.209  16.759 -0.5256 -0.2411  0.1517
12853TIP3    H159974   4.860   4.218  16.845 -2.0624 -0.4647  0.9224
12853TIP3    H259975   4.764   4.287  16.750 -0.4658 -0.2758 -0.5875
12854TIP3   OH259976   1.532   4.645   2.348 -0.3743  0.6286  0.6353
12854TIP3    H159977   1.459   4.693   2.386  1.0216  1.2679  2.5870
12854TIP3    H259978   1.579   4.609   2.423  1.3669  0.3033 -0.5841
12855TIP3   OH259979   2.193   4.324   0.854 -0.0952 -0.0786  0.0948
12855TIP3    H159980   2.107   4.306   0.894 -0.1409 -0.5076 -0.1958
12855TIP3    H259981   2.255   4.274   0.906 -0.0473  0.0486  0.1617
12856TIP3   OH259982   4.190   6.743   5.570 -0.3230  0.5158  0.3691
12856TIP3    H159983   4.281   6.720   5.587 -0.5107  0.6974  1.7014
12856TIP3    H259984   4.195   6.821   5.514  0.3505  1.3220  1.5387
12857TIP3   OH259985   2.110   2.363  12.465 -0.2607 -0.2187 -0.7396
12857TIP3    H159986   2.169   2.424  12.420  0.6248 -0.4122  0.1273
12857TIP3    H259987   2.110   2.393  12.555  0.5050 -1.7240 -0.2208
12858TIP3   OH259988   5.920   2.220   0.610  0.4251  0.4148 -0.2631
12858TIP3    H159989   5.978   2.202   0.536  1.2848  1.9853  0.0006
12858TIP3    H259990   5.874   2.138   0.625  1.5435 -0.4396 -1.3962
12859TIP3   OH259991   0.324   0.736  15.152 -0.0381  0.2220 -0.3602
12859TIP3    H159992   0.320   0.659  15.095 -1.7987  1.1011 -1.4689
12859TIP3    H259993   0.304   0.702  15.239 -2.0248 -0.4051 -1.0294
12860TIP3   OH259994   2.407   4.110  13.942 -0.2905 -0.4565 -0.3027
12860TIP3    H159995   2.457   4.189  13.963  0.2657 -0.5520 -1.1955
12860TIP3    H259996   2.348   4.097  14.016 -0.8225  1.1529 -0.4390
12861TIP3   OH259997   1.383   3.338  15.538 -0.0244  0.1859 -0.2169
12861TIP3    H159998   1.461   3.346  15.593 -0.1554 -0.2725  0.0429
12861TIP3    H259999   1.325   3.408  15.569  0.7951  1.3592 -1.2861
12862TIP3   OH260000   0.981   5.877   2.331 -1.1174 -0.2057  0.0864
12862TIP3    H160001   0.957   5.969   2.322 -1.4194 -0.1856  1.0566
12862TIP3    H260002   1.043   5.875   2.403 -0.5419 -0.6721 -0.4111
12863TIP3   OH260003   1.480   6.601  11.274  0.4081 -0.2748 -0.1134
12863TIP3    H160004   1.418   6.531  11.253  0.1969 -0.3740  0.8185
12863TIP3    H260005   1.560   6.576  11.227 -0.1744 -0.2671 -1.1323
12864TIP3   OH260006   3.946   0.493  14.570 -0.3959  0.2751 -0.6150
12864TIP3    H160007   3.913   0.582  14.584  0.1476  0.2629  0.8003
12864TIP3    H260008   3.885   0.454  14.508 -3.0692  0.2485  1.9689
12865TIP3   OH260009   5.207   0.605   2.137  0.0004  0.1399 -0.5741
12865TIP3    H160010   5.257   0.526   2.119  0.0183  0.4408 -1.8864
12865TIP3    H260011   5.128   0.596   2.084 -1.2452 -0.2141  1.2936
12866TIP3   OH260012   6.687   4.155  14.082 -0.2708  0.2448 -0.0387
12866TIP3    H160013   6.735   4.162  14.000  1.4765  0.5535  1.0018
12866TIP3    H260014   6.726   4.221  14.140 -1.9382  0.5100  0.8190
12867TIP3   OH260015   6.652   2.440  12.015 -0.0054  0.4378 -0.0551
12867TIP3    H160016   6.648   2.349  11.985  0.8061  0.2098  0.5004
12867TIP3    H260017   6.581   2.484  11.969 -0.6868 -0.5829  0.0175
12868TIP3   OH260018   4.038   4.898  12.022 -0.4440  0.2809 -0.0408
12868TIP3    H160019   4.101   4.934  11.960  0.5949 -2.1309 -0.4120
12868TIP3    H260020   4.082   4.903  12.107 -0.4381  0.1762 -0.0374
12869TIP3   OH260021   2.040   1.281   3.413 -0.0138  0.2810 -0.3667
12869TIP3    H160022   2.007   1.240   3.493  1.7915 -1.3941 -0.4265
12869TIP3    H260023   2.118   1.328   3.442 -0.5519  1.4314 -0.7858
12870TIP3   OH260024   2.295   2.567   4.349  0.0279  0.6613  0.2386
12870TIP3    H160025   2.368   2.512   4.377 -0.6395 -0.5382 -0.3277
12870TIP3    H260026   2.249   2.590   4.429  0.5337  0.7075  0.5153
12871TIP3   OH260027   4.010   5.593   1.712  0.8539  0.1078  0.0236
12871TIP3    H160028   3.951   5.643   1.766  1.8605  0.7264  0.5643
12871TIP3    H260029   3.966   5.587   1.627  0.0576  0.6050  0.3976
12872TIP3   OH260030   4.920   0.605  10.410 -0.3607  0.0324 -0.5755
12872TIP3    H160031   4.981   0.629  10.340 -0.3852  0.1908 -0.5424
12872TIP3    H260032   4.972   0.607  10.490 -0.7750  1.7583 -0.3323
12873TIP3   OH260033   5.281   3.224  11.010  0.7420  0.1285 -0.0300
12873TIP3    H160034   5.269   3.184  10.924 -0.2812 -0.5372  0.4180
12873TIP3    H260035   5.299   3.316  10.991  1.6344 -0.2408 -1.0042
12874TIP3   OH260036   0.564   2.049   2.731  0.9233 -0.2458 -0.2872
12874TIP3    H160037   0.510   1.972   2.717  1.2479 -0.9358  2.0553
12874TIP3    H260038   0.633   2.020   2.790  0.7792  1.9505  1.0296
12875TIP3   OH260039   5.436   3.902   5.920 -0.0714  0.2695 -0.6273
12875TIP3    H160040   5.421   3.980   5.973 -0.8202  0.7564 -1.5320
12875TIP3    H260041   5.531   3.897   5.909  0.2656 -1.0520  2.5349
12876TIP3   OH260042   4.645   5.393  16.841  0.5321 -0.2956  0.2699
12876TIP3    H160043   4.569   5.356  16.795  0.6321  0.2659 -0.3569
12876TIP3    H260044   4.717   5.334  16.820  0.5094 -0.2120 -0.0413
12877TIP3   OH260045   5.996   4.974  12.352  0.4839 -0.1762 -0.0668
12877TIP3    H160046   6.002   5.058  12.307 -1.4287 -0.5528 -1.0882
12877TIP3    H260047   5.952   4.994  12.435  2.7960  0.3003  1.0767
12878TIP3   OH260048   0.970   6.352  13.766 -0.1276  0.0232 -0.3515
12878TIP3    H160049   0.938   6.283  13.825 -0.2151  1.6994  1.6169
12878TIP3    H260050   1.005   6.419  13.824 -0.2928  1.7754 -2.2133
12879TIP3   OH260051   5.653   4.702  11.877 -0.4732 -0.1054 -0.2719
12879TIP3    H160052   5.593   4.740  11.813 -1.1745 -1.6992 -0.6020
12879TIP3    H260053   5.630   4.745  11.960 -0.4065  1.0513 -0.8415
12880TIP3   OH260054   1.313   3.116   4.859  0.1465 -0.4178 -0.8381
12880TIP3    H160055   1.389   3.069   4.826  0.5079 -1.4272  1.3412
12880TIP3    H260056   1.238   3.073   4.819  0.4955 -2.5387  0.7190
12881TIP3   OH260057   5.518   0.931  15.118 -0.4539 -0.3716  0.1689
12881TIP3    H160058   5.501   0.857  15.177 -4.2155  0.7815  0.6838
12881TIP3    H260059   5.514   1.008  15.175  0.2376  0.4555 -0.8837
12882TIP3   OH260060   4.019   1.852  11.636 -0.0161 -0.4060  0.2664
12882TIP3    H160061   4.098   1.896  11.607 -0.0916 -1.0186 -0.9140
12882TIP3    H260062   4.043   1.759  11.638 -0.8338 -0.6507 -0.6060
12883TIP3   OH260063   4.204   3.661  13.149 -0.3216  0.5721 -0.5304
12883TIP3    H160064   4.167   3.748  13.134  0.8730  1.1643 -0.0287
12883TIP3    H260065   4.137   3.615  13.200 -1.0389  1.1222 -0.9725
12884TIP3   OH260066   2.370   3.390   3.248 -0.2312  0.2577 -0.0805
12884TIP3    H160067   2.409   3.313   3.289  0.7770  0.2310 -1.0626
12884TIP3    H260068   2.408   3.392   3.160 -2.7379 -0.0029 -1.2067
12885TIP3   OH260069   6.370   6.382  16.938 -0.1806  0.3246 -0.1969
12885TIP3    H160070   6.312   6.308  16.956 -0.4838 -0.6391 -4.4263
12885TIP3    H260071   6.456   6.343  16.927 -0.0770  0.7600 -0.9913
12886TIP3   OH260072   5.901   0.217   3.735 -0.3890  0.0721 -0.2494
12886TIP3    H160073   5.820   0.255   3.702  0.6536  1.5807 -1.1634
12886TIP3    H260074   5.877   0.129   3.763 -2.4012  0.6100 -0.2031
12887TIP3   OH260075   3.603   0.255  13.951  0.5263  0.0603  0.3674
12887TIP3    H160076   3.662   0.318  13.991  0.2889  1.8662 -2.0489
12887TIP3    H260077   3.630   0.251  13.859 -0.4592 -2.2079  0.1390
12888TIP3   OH260078   4.493   6.418   3.960 -0.2680 -0.2110 -0.3622
12888TIP3    H160079   4.578   6.408   4.005  0.3082 -0.1041 -1.4115
12888TIP3    H260080   4.429   6.420   4.031  0.7110  0.8451  0.5339
12889TIP3   OH260081   5.687   2.371  12.394  0.0361 -0.4908 -0.1105
12889TIP3    H160082   5.678   2.448  12.336  2.0109 -0.7942 -0.8432
12889TIP3    H260083   5.596   2.347  12.414 -0.6517  1.0153 -1.2317
12890TIP3   OH260084   2.986   0.738   4.327  0.3852 -0.2857  0.8382
12890TIP3    H160085   2.955   0.671   4.388 -0.9353  1.1675  1.7965
12890TIP3    H260086   2.943   0.717   4.244  0.8341 -1.2475  0.8429
12891TIP3   OH260087   5.454   1.698  13.503  0.1259  0.1180  0.3981
12891TIP3    H160088   5.449   1.611  13.543  0.7239  0.8472  2.1022
12891TIP3    H260089   5.376   1.703  13.448 -0.8028 -0.8604  1.5739
12892TIP3   OH260090   0.813   0.373  13.767  0.0489  0.6524 -0.1422
12892TIP3    H160091   0.891   0.421  13.738 -0.4261  0.8392 -1.1498
12892TIP3    H260092   0.826   0.285  13.733  0.1501  0.5004  0.2943
12893TIP3   OH260093   1.730   4.924  11.489 -0.0725 -0.0620  0.5009
12893TIP3    H160094   1.723   4.967  11.404  1.2300 -0.3473  0.2498
12893TIP3    H260095   1.745   4.996  11.551  0.2491  0.0175  0.3290
12894TIP3   OH260096   4.295   6.748   1.676 -0.0923  0.2417  0.3969
12894TIP3    H160097   4.387   6.721   1.680 -0.3110 -0.3624  1.3261
12894TIP3    H260098   4.286   6.787   1.589  1.5275  2.0500  0.9897
12895TIP3   OH260099   4.759   6.302   0.365  0.1165  0.3913 -0.2840
12895TIP3    H160100   4.730   6.392   0.380 -0.8924  0.0984 -0.4069
12895TIP3    H260101   4.833   6.290   0.425 -0.3352  1.0075  0.4113
12896TIP3   OH260102   5.923   3.063  12.534 -0.0777 -0.1207  0.1095
12896TIP3    H160103   5.836   3.023  12.524 -0.8497  1.8173 -1.0807
12896TIP3    H260104   5.980   3.010  12.478 -1.0762  0.3590 -1.3994
12897TIP3   OH260105   0.743   2.178  11.936  0.2019 -0.4876  0.0748
12897TIP3    H160106   0.734   2.126  11.856  1.5701 -1.2834  0.4075
12897TIP3    H260107   0.657   2.218  11.949 -0.0393 -0.3577 -1.7751
12898TIP3   OH260108   2.716   6.425  13.147 -0.4643 -0.2389 -0.1143
12898TIP3    H160109   2.779   6.360  13.116 -0.6570 -1.0424  1.1219
12898TIP3    H260110   2.752   6.509  13.118  0.8009 -0.7474 -0.0488
12899TIP3   OH260111   3.253   3.672   0.932  0.4696 -0.4359  0.2503
12899TIP3    H160112   3.170   3.707   0.963  0.6616  0.3414 -0.1043
12899TIP3    H260113   3.238   3.650   0.840  1.0966  1.1745 -0.2538
12900TIP3   OH260114   5.763   0.599  16.033  0.9792 -0.1392  0.2165
12900TIP3    H160115   5.701   0.575  15.963  1.5785  0.3234 -0.4702
12900TIP3    H260116   5.725   0.560  16.112 -1.0796  1.5321  0.1124
12901TIP3   OH260117   5.478   6.783  16.530 -0.0026 -0.6527  0.0871
12901TIP3    H160118   5.460   6.833  16.610  0.8489  0.1984 -0.2438
12901TIP3    H260119   5.393   6.773  16.487 -0.5189 -1.3724  1.2417
12902TIP3   OH260120   5.400   0.267  12.337  0.4241 -0.4024 -0.0900
12902TIP3    H160121   5.428   0.351  12.300 -0.2384 -0.3710 -0.5341
12902TIP3    H260122   5.346   0.291  12.412 -0.4706 -0.4057 -0.7244
12903TIP3   OH260123   3.576   5.906  17.163 -0.0995 -0.0190 -0.2478
12903TIP3    H160124   3.564   5.866  17.248 -0.8165 -1.6040 -1.0787
12903TIP3    H260125   3.511   5.977  17.160 -1.2583 -1.0676 -0.1415
12904TIP3   OH260126   5.980   2.025   5.529  0.4688  0.0994 -0.3356
12904TIP3    H160127   6.020   1.977   5.456  0.8997  1.7121 -1.1687
12904TIP3    H260128   5.912   2.078   5.489  0.8418  1.1524  0.3880
12905TIP3   OH260129   5.022   3.089   3.492  0.6094 -0.2329 -0.4785
12905TIP3    H160130   4.977   3.022   3.544 -1.3489  2.2996  1.1816
12905TIP3    H260131   5.113   3.085   3.521 -0.0586 -0.2444  1.7088
12906TIP3   OH260132   1.549   6.398   0.715  0.4676  0.0231 -0.5373
12906TIP3    H160133   1.482   6.404   0.647  1.8765  2.6611 -1.7677
12906TIP3    H260134   1.501   6.412   0.797 -1.1595 -2.6559 -0.9563
12907TIP3   OH260135   2.901   5.370   1.418 -0.2236  0.3017  0.6541
12907TIP3    H160136   2.915   5.302   1.484 -0.3141 -0.3083  0.0507
12907TIP3    H260137   2.970   5.434   1.435  0.8314 -0.7169  0.2264
12908TIP3   OH260138   5.184   2.982  11.808 -0.3079  0.3150  0.5751
12908TIP3    H160139   5.223   3.030  11.881  0.5601  0.0732  0.2784
12908TIP3    H260140   5.116   3.040  11.774 -0.5127  0.5505  1.3878
12909TIP3   OH260141   0.527   1.074   5.333 -0.7153  0.6390 -0.4244
12909TIP3    H160142   0.508   1.002   5.274 -1.8343  0.1500  0.5036
12909TIP3    H260143   0.507   1.153   5.283 -0.1022  0.2921 -1.2238
12910TIP3   OH260144   0.596   0.825  12.898  0.5191  0.6634 -0.1679
12910TIP3    H160145   0.682   0.809  12.936 -0.2590 -0.2932  1.2637
12910TIP3    H260146   0.554   0.885  12.960 -0.2091  0.3321 -0.3392
12911TIP3   OH260147   0.949   4.343  11.107  0.6422 -0.0643  0.5151
12911TIP3    H160148   0.980   4.383  11.025  1.5918 -0.3859  0.7189
12911TIP3    H260149   0.992   4.258  11.110  1.1834  0.2508  1.7215
12912TIP3   OH260150   1.146   5.598  14.763  0.5901 -0.1893 -0.0288
12912TIP3    H160151   1.149   5.626  14.855 -3.4888  1.5593 -0.3209
12912TIP3    H260152   1.117   5.507  14.767 -1.1758  0.3760  0.3874
12913TIP3   OH260153   1.387   0.025   1.992  0.1567 -0.1862 -0.7086
12913TIP3    H160154   1.453   0.029   2.061 -0.1456  0.2989 -0.4460
12913TIP3    H260155   1.398   0.108   1.945 -0.8698  0.2823 -0.1169
12914TIP3   OH260156   0.649   3.020   3.952  0.0840  0.7307  0.3156
12914TIP3    H160157   0.606   2.964   4.016 -0.9956 -0.2729 -1.2415
12914TIP3    H260158   0.739   2.988   3.948 -0.6317 -1.2013 -0.8801
12915TIP3   OH260159   4.840   5.952   3.766  0.0791  0.8430  0.2982
12915TIP3    H160160   4.849   5.982   3.857 -0.7757  2.1011 -0.0232
12915TIP3    H260161   4.850   5.857   3.771 -0.4637  0.8511  1.7779
12916TIP3   OH260162   6.032   5.139   2.308  0.0666  0.4288  0.6588
12916TIP3    H160163   6.028   5.105   2.218  0.8302 -1.0490  1.1820
12916TIP3    H260164   5.940   5.149   2.333 -0.1622 -0.9164  0.3781
12917TIP3   OH260165   1.275   1.792  14.484  0.4039  0.0521  0.3570
12917TIP3    H160166   1.292   1.715  14.430  0.0019  0.2370 -0.0377
12917TIP3    H260167   1.213   1.844  14.433 -0.3766 -0.0127  1.2249
12918TIP3   OH260168   5.264   3.134  13.013  0.1954  0.0332 -0.1411
12918TIP3    H160169   5.203   3.153  13.084 -0.3129 -0.0571 -0.5535
12918TIP3    H260170   5.238   3.047  12.982  0.7581 -0.1567 -0.0844
12919TIP3   OH260171   3.520   5.333  15.274  0.1609 -0.3870  0.4853
12919TIP3    H160172   3.499   5.287  15.192  0.6212 -1.1706  0.8048
12919TIP3    H260173   3.436   5.339  15.320 -0.2111  0.5571 -0.2844
12920TIP3   OH260174   4.925   4.215   0.172  0.4900  0.2571 -0.3128
12920TIP3    H160175   4.976   4.279   0.222  0.5910 -0.6496  0.7755
12920TIP3    H260176   4.989   4.150   0.145 -0.0014 -0.6982  0.7538
12921TIP3   OH260177   0.286   0.084  15.762  0.7408 -0.3701 -0.4557
12921TIP3    H160178   0.370   0.049  15.731  0.2580 -0.3472 -1.8534
12921TIP3    H260179   0.222   0.017  15.740  0.2922 -0.0825 -0.0412
12922TIP3   OH260180   4.502   4.658   1.674  0.1012 -0.0478  0.3285
12922TIP3    H160181   4.413   4.690   1.690  0.6606  0.4402  2.6727
12922TIP3    H260182   4.528   4.699   1.592 -1.3520  0.8697  0.3037
12923TIP3   OH260183   6.102   1.528   0.410  0.0096 -0.8347 -0.0274
12923TIP3    H160184   6.127   1.584   0.483 -0.3939 -1.1652  0.3687
12923TIP3    H260185   6.032   1.576   0.366  0.6058 -0.3968 -0.5094
12924TIP3   OH260186   0.913   2.192  16.493 -0.0376 -0.1474 -0.3476
12924TIP3    H160187   0.911   2.258  16.423 -1.1692 -0.7717 -0.8953
12924TIP3    H260188   0.833   2.142  16.482 -0.3822 -0.0599  1.5917
12925TIP3   OH260189   5.918   6.411  14.291  0.5067  0.0260 -0.3651
12925TIP3    H160190   5.927   6.317  14.279  0.6652  0.0027 -0.0620
12925TIP3    H260191   5.961   6.429  14.374 -0.8203  0.1587  0.3092
12926TIP3   OH260192   1.479   2.684  16.987  0.5395  0.0644  0.0559
12926TIP3    H160193   1.465   2.650  17.075  1.5217  0.0029  0.1944
12926TIP3    H260194   1.559   2.640  16.957  0.5870  0.5920 -0.6013
12927TIP3   OH260195   4.407   5.163  15.853  0.1980 -0.5522  0.6457
12927TIP3    H160196   4.478   5.176  15.790  0.3941 -2.4224  0.4609
12927TIP3    H260197   4.422   5.230  15.919  0.2871  1.1134 -1.0211
12928TIP3   OH260198   0.059   2.109   1.912  0.4698 -0.3953  0.0694
12928TIP3    H160199   0.114   2.123   1.834 -0.0052 -0.2867 -0.2440
12928TIP3    H260200   0.113   2.054   1.969  1.0174 -0.0602 -0.1223
12929TIP3   OH260201   1.021   0.649   3.976  0.1341 -0.0494  0.6382
12929TIP3    H160202   1.016   0.631   4.070  0.0051  1.2650  0.8924
12929TIP3    H260203   0.930   0.644   3.946 -0.0559  1.3594  0.9442
12930TIP3   OH260204   1.784   5.167  11.662  0.5564  0.5664 -0.0461
12930TIP3    H160205   1.839   5.196  11.735 -1.3540  0.2913  1.5459
12930TIP3    H260206   1.715   5.233  11.656 -1.9184 -1.7338  1.4355
12931TIP3   OH260207   4.776   6.511  15.187  0.5893 -0.3803  0.4175
12931TIP3    H160208   4.710   6.472  15.130 -2.4870  3.4460  1.1151
12931TIP3    H260209   4.829   6.565  15.128 -0.8602  1.3980  0.6875
12932TIP3   OH260210   3.860   3.643   4.274 -0.0218 -0.0120 -0.4326
12932TIP3    H160211   3.908   3.560   4.273 -0.2015 -0.1482  0.7300
12932TIP3    H260212   3.927   3.710   4.267  0.2579 -0.2252  0.1426
12933TIP3   OH260213   3.521   4.611  13.023 -0.1040  0.2418 -0.2729
12933TIP3    H160214   3.500   4.678  13.088  1.3018 -0.2095  0.6769
12933TIP3    H260215   3.492   4.649  12.940  2.0152  2.7317  0.0322
12934TIP3   OH260216   0.056   5.190   1.889 -0.4703  0.0174 -0.1320
12934TIP3    H160217   0.124   5.188   1.957 -0.6934 -0.4670  0.0744
12934TIP3    H260218  -0.013   5.244   1.926 -0.2624  0.3908 -0.2843
12935TIP3   OH260219   3.196   3.007   6.445  0.4944  0.3713 -0.8438
12935TIP3    H160220   3.261   3.016   6.514  0.6802 -0.6993 -0.8710
12935TIP3    H260221   3.122   3.060   6.474  0.6639  0.1178  0.0555
12936TIP3   OH260222   3.902   2.677   3.949 -0.1984  0.4732 -0.4592
12936TIP3    H160223   3.916   2.582   3.941 -0.2264  0.5473 -1.3969
12936TIP3    H260224   3.974   2.716   3.900  0.5288  0.9737  0.9730
12937TIP3   OH260225   6.068   1.128  10.849 -0.3775  0.6929  0.8925
12937TIP3    H160226   5.974   1.117  10.860 -0.2003 -1.8511  0.2156
12937TIP3    H260227   6.106   1.096  10.931 -0.0413  0.7117  0.7458
12938TIP3   OH260228   6.468   5.269  11.748 -0.1537  0.1611 -0.0914
12938TIP3    H160229   6.428   5.297  11.831  3.5315  1.4181  1.3615
12938TIP3    H260230   6.470   5.174  11.753 -1.8547  0.1153  0.2796
12939TIP3   OH260231   3.966   5.059  12.853 -0.3210 -0.1758  0.8953
12939TIP3    H160232   4.039   5.047  12.793 -0.4025  1.5743  0.4072
12939TIP3    H260233   3.888   5.038  12.802 -0.2721 -0.3959  0.9121
12940TIP3   OH260234   5.299   1.300   2.088  0.2112 -0.4834 -0.0761
12940TIP3    H160235   5.259   1.361   2.026 -0.6037 -1.1840 -0.2417
12940TIP3    H260236   5.236   1.228   2.096  0.5048 -0.6147  1.2242
12941TIP3   OH260237   3.566   3.313  15.534 -0.1719  0.4748  0.5753
12941TIP3    H160238   3.637   3.317  15.470 -0.1655 -0.2151  0.5365
12941TIP3    H260239   3.487   3.334  15.484 -0.3219 -1.1707  0.0803
12942TIP3   OH260240   6.625   0.239  14.148  0.0196 -0.4549  0.5082
12942TIP3    H160241   6.707   0.274  14.115 -0.2094 -0.1790  0.2222
12942TIP3    H260242   6.624   0.262  14.241 -0.0135  0.0773  0.3767
12943TIP3   OH260243   5.480   3.850  16.761 -0.4946 -0.1739 -0.2476
12943TIP3    H160244   5.528   3.933  16.768  0.4127 -0.8382  1.6752
12943TIP3    H260245   5.395   3.876  16.724 -0.1194  1.5792  0.0386
12944TIP3   OH260246   0.755   3.439   3.850 -0.2505  0.0452 -0.0482
12944TIP3    H160247   0.673   3.452   3.898 -0.7077 -0.6620 -0.6300
12944TIP3    H260248   0.810   3.386   3.908 -0.8672 -0.9505 -0.3596
12945TIP3   OH260249   5.052   5.650  15.893  0.4103 -0.0307  0.1065
12945TIP3    H160250   5.068   5.674  15.802 -1.5511 -0.4608 -0.3567
12945TIP3    H260251   5.137   5.616  15.924  0.6033 -1.6331 -2.1066
12946TIP3   OH260252   2.161   3.994   3.400  0.4605 -0.5450  0.1660
12946TIP3    H160253   2.067   3.986   3.387  0.3232  1.0828  0.0149
12946TIP3    H260254   2.198   3.983   3.312  0.4664 -1.8055  0.3207
12947TIP3   OH260255   2.274   1.038   6.103  0.1709  0.2860 -0.0169
12947TIP3    H160256   2.333   0.967   6.077 -1.4691 -2.6173  3.6364
12947TIP3    H260257   2.314   1.073   6.183 -1.0174  0.9012  0.3200
12948TIP3   OH260258   0.798   2.121  14.157  0.3946  0.0076 -0.1742
12948TIP3    H160259   0.790   2.028  14.179 -0.3550 -0.2854 -1.6486
12948TIP3    H260260   0.850   2.123  14.077  0.8535  0.9044  0.1320
12949TIP3   OH260261   4.945   5.960   0.342 -0.6087 -0.2351 -0.1829
12949TIP3    H160262   5.008   5.901   0.300 -1.9073 -1.3865 -0.5395
12949TIP3    H260263   4.991   6.044   0.347  1.4384 -1.3646  0.7519
12950TIP3   OH260264   0.278   0.160  12.137 -0.5543  0.0468  0.9153
12950TIP3    H160265   0.288   0.074  12.096  2.2818  0.5989  0.3614
12950TIP3    H260266   0.281   0.142  12.231  1.7487 -0.3209  0.8038
12951TIP3   OH260267   3.804   0.158  16.716  0.1231  0.0849  0.6414
12951TIP3    H160268   3.795   0.189  16.626 -1.5146 -0.8049  0.4743
12951TIP3    H260269   3.874   0.093  16.712 -2.8539 -3.2457 -0.9574
12952TIP3   OH260270   6.662   4.575  15.044 -0.1671  0.4753 -0.0284
12952TIP3    H160271   6.570   4.587  15.020 -0.2637  2.7223  1.2996
12952TIP3    H260272   6.696   4.511  14.981 -2.0316  1.3790 -2.0056
12953TIP3   OH260273   3.062   5.943  12.979 -0.1603 -0.3673 -0.0729
12953TIP3    H160274   2.988   5.937  12.920 -0.9320  1.4968  0.6599
12953TIP3    H260275   3.051   5.869  13.039 -1.1061 -0.4311 -0.3193
12954TIP3   OH260276   0.191   3.250   5.199  0.3419  0.4938  0.8266
12954TIP3    H160277   0.286   3.236   5.204  0.1577 -1.7315 -0.7548
12954TIP3    H260278   0.182   3.341   5.172  2.0719  0.5046  0.1702
12955TIP3   OH260279   2.208   4.756  16.439  0.2804  0.1865 -0.0330
12955TIP3    H160280   2.222   4.841  16.395 -1.0864  0.5694  0.2513
12955TIP3    H260281   2.167   4.701  16.372  1.6038 -0.4128 -0.3637
12956TIP3   OH260282   0.234   1.689  14.261 -0.4172  0.1831 -0.5225
12956TIP3    H160283   0.228   1.613  14.202 -0.8394  0.6555 -1.0915
12956TIP3    H260284   0.252   1.763  14.202  0.1898  0.4956  0.0505
12957TIP3   OH260285   2.776   5.170   5.012 -0.2992  0.1850 -0.3717
12957TIP3    H160286   2.762   5.260   4.982  2.1390  1.1019  1.0410
12957TIP3    H260287   2.754   5.116   4.936  1.5574  2.1893 -2.4497
12958TIP3   OH260288   6.640   2.521  12.811 -0.2291 -0.1658 -0.1455
12958TIP3    H160289   6.628   2.473  12.893 -0.0255  0.6205  0.3445
12958TIP3    H260290   6.580   2.596  12.818 -0.5860 -0.3695 -0.9313
12959TIP3   OH260291   0.535   5.698   5.511 -0.5480 -0.1508 -0.5141
12959TIP3    H160292   0.449   5.715   5.472 -0.4668 -1.9075 -1.5355
12959TIP3    H260293   0.572   5.785   5.526 -2.9780  0.6594  1.0510
12960TIP3   OH260294   2.551   1.686  13.303 -0.0854 -0.0202  0.1786
12960TIP3    H160295   2.597   1.682  13.387 -0.6320 -1.9419  0.4196
12960TIP3    H260296   2.484   1.753  13.316 -0.9316 -1.1059  1.7036
12961TIP3   OH260297   0.672   0.293   0.373  0.6313  0.3297 -0.0457
12961TIP3    H160298   0.678   0.229   0.302  2.3553  1.8879 -1.3611
12961TIP3    H260299   0.629   0.245   0.445  2.0518 -2.3521 -0.8996
12962TIP3   OH260300   1.762   4.465   6.114 -0.0179 -0.5922  0.1312
12962TIP3    H160301   1.714   4.438   6.036 -2.2514 -0.5607  1.4486
12962TIP3    H260302   1.727   4.552   6.135  1.2595 -0.1834  0.6028
12963TIP3   OH260303   5.105   1.164  16.553 -0.1142  0.1127 -0.2312
12963TIP3    H160304   5.017   1.189  16.527  0.5595  0.9858 -1.7867
12963TIP3    H260305   5.095   1.082  16.600 -1.6941 -0.0491 -0.8399
12964TIP3   OH260306   3.633   2.756   4.392  0.4062  0.0079 -0.0249
12964TIP3    H160307   3.552   2.759   4.342  1.7740  0.4083 -2.2901
12964TIP3    H260308   3.620   2.685   4.455 -1.4375 -0.3556 -0.8026
12965TIP3   OH260309   3.187   0.290   5.529 -0.1093  0.2548  0.4106
12965TIP3    H160310   3.145   0.364   5.485 -3.0461 -1.6564 -0.1549
12965TIP3    H260311   3.114   0.233   5.553  1.9064 -1.3404  2.9307
12966TIP3   OH260312   5.761   3.744  13.142  0.3999  0.5746  0.0555
12966TIP3    H160313   5.721   3.827  13.164 -0.3028  0.0274  0.8622
12966TIP3    H260314   5.721   3.720  13.058  0.7031  1.0992 -0.2444
12967TIP3   OH260315   6.299   2.084   5.296  0.8956 -0.0755  0.4079
12967TIP3    H160316   6.291   2.166   5.345  4.3557  1.1042 -0.8539
12967TIP3    H260317   6.339   2.023   5.358  1.1546  0.1120  0.4269
12968TIP3   OH260318   4.111   6.366   2.433 -0.1519 -0.0763 -0.4307
12968TIP3    H160319   4.080   6.314   2.358  0.3055 -0.2503 -0.5032
12968TIP3    H260320   4.061   6.447   2.428  0.9433  0.5319 -1.8153
12969TIP3   OH260321   5.242   0.890  12.591 -0.6341  0.5715 -0.0964
12969TIP3    H160322   5.185   0.841  12.532 -2.3580  1.3138  0.9101
12969TIP3    H260323   5.222   0.982  12.573 -0.4457  0.8171  0.9243
12970TIP3   OH260324   0.010   6.185   1.551  0.5895  0.1623  0.4256
12970TIP3    H160325   0.083   6.204   1.492  1.4225 -0.7248  1.1511
12970TIP3    H260326   0.007   6.090   1.555 -0.5999  0.1888  0.4367
12971TIP3   OH260327   0.257   1.616  12.469 -0.1381  0.0169 -0.1613
12971TIP3    H160328   0.191   1.556  12.501 -1.0293  0.1329 -1.7223
12971TIP3    H260329   0.331   1.605  12.529 -0.5504 -2.0987 -0.0022
12972TIP3   OH260330   5.528   2.490  15.556 -0.3103 -0.8470  0.1413
12972TIP3    H160331   5.538   2.414  15.613  0.7048 -0.0552  1.0336
12972TIP3    H260332   5.617   2.526  15.548 -0.2997 -1.3427 -2.4975
12973TIP3   OH260333   3.337   5.454   4.405 -0.5945 -0.5078 -0.1008
12973TIP3    H160334   3.429   5.474   4.387 -0.5914  0.3564  0.7993
12973TIP3    H260335   3.309   5.399   4.332  0.9091 -1.6049  0.1409
12974TIP3   OH260336   2.264   0.268  14.465 -0.3504  0.1014  0.0346
12974TIP3    H160337   2.287   0.176  14.452 -0.3420  0.2732 -1.2369
12974TIP3    H260338   2.312   0.315  14.397 -2.7429  0.7004 -1.3158
12975TIP3   OH260339   4.401   1.618  12.958 -0.1963 -0.5503  0.0871
12975TIP3    H160340   4.311   1.641  12.933  0.4152  0.3122 -1.3308
12975TIP3    H260341   4.392   1.532  13.001 -1.6202 -0.7521 -0.5790
12976TIP3   OH260342   0.526   1.760   0.939  0.4605 -0.2970  0.4875
12976TIP3    H160343   0.432   1.764   0.919  1.0626 -1.0693 -2.8261
12976TIP3    H260344   0.546   1.666   0.937  1.5570 -0.0537 -0.1183
12977TIP3   OH260345   0.444   4.880  15.786 -0.2310 -0.4018 -0.5584
12977TIP3    H160346   0.502   4.810  15.819  0.6664  0.5349 -0.1260
12977TIP3    H260347   0.435   4.860  15.693 -1.9785 -2.4949  0.0216
12978TIP3   OH260348   1.449   1.259   3.602 -1.0179  0.4850 -0.5627
12978TIP3    H160349   1.541   1.272   3.628 -0.5932 -1.3217 -1.0617
12978TIP3    H260350   1.407   1.227   3.682 -0.9925  0.3812 -0.5908
12979TIP3   OH260351   4.914   0.228   2.861  0.4348 -0.8937 -0.0127
12979TIP3    H160352   4.843   0.291   2.848 -0.8164 -2.4087 -0.6494
12979TIP3    H260353   4.943   0.241   2.951  1.1714  1.5702 -0.5744
12980TIP3   OH260354   3.060   0.152   5.011 -0.5309 -0.2212  0.0047
12980TIP3    H160355   3.070   0.080   5.074  1.5503 -0.9080 -1.0457
12980TIP3    H260356   3.132   0.211   5.032  2.2624 -2.0976 -3.7786
12981TIP3   OH260357   6.570   3.515   0.058 -0.0342 -0.3910  0.5323
12981TIP3    H160358   6.582   3.526  -0.036  3.5793 -1.3686  0.8107
12981TIP3    H260359   6.536   3.426   0.068  1.0699 -0.8527  0.2307
12982TIP3   OH260360   2.853   5.170  16.543 -0.5321  0.4968 -0.3392
12982TIP3    H160361   2.947   5.154  16.534 -0.7795 -0.7621 -0.8697
12982TIP3    H260362   2.846   5.256  16.583  0.8613  0.4211  0.0677
12983TIP3   OH260363   2.079   3.039   0.915 -0.0272 -0.0821  0.0656
12983TIP3    H160364   2.005   3.027   0.855  0.6079 -1.9481 -0.4060
12983TIP3    H260365   2.093   3.133   0.918 -0.9467  0.1335 -1.6590
12984TIP3   OH260366   3.273   6.615  14.189 -0.4519  0.0180 -0.1399
12984TIP3    H160367   3.352   6.663  14.212 -0.0661 -1.0002  0.7446
12984TIP3    H260368   3.286   6.590  14.097 -0.6183  1.4985 -0.5719
12985TIP3   OH260369   1.906   1.214   0.481  0.1249  0.8300  0.0120
12985TIP3    H160370   1.854   1.158   0.538  0.4671 -0.5715 -1.0400
12985TIP3    H260371   1.958   1.154   0.429  0.3622  2.1221 -1.2729
12986TIP3   OH260372   1.250   3.446  13.770  0.8266  0.2165  0.0415
12986TIP3    H160373   1.295   3.510  13.826  1.0382  0.7522 -0.7335
12986TIP3    H260374   1.256   3.483  13.682 -0.4173 -0.1103 -0.1906
12987TIP3   OH260375   2.609   2.629  15.095  0.3377 -0.3019 -0.7385
12987TIP3    H160376   2.652   2.544  15.093  0.0068 -0.5135  0.5797
12987TIP3    H260377   2.677   2.692  15.069  1.6762 -0.5429  2.0463
12988TIP3   OH260378   6.098   0.401  14.439  0.1934  0.5943  0.0421
12988TIP3    H160379   6.134   0.315  14.459 -1.7708 -0.3846 -0.5512
12988TIP3    H260380   6.121   0.417  14.347 -2.3532 -0.8143 -0.8789
12989TIP3   OH260381   2.461   0.249   5.840 -0.3803  0.0155  0.1834
12989TIP3    H160382   2.385   0.301   5.867 -0.7999 -0.6822  0.3451
12989TIP3    H260383   2.493   0.208   5.920  0.5516  0.7979  0.2253
12990TIP3   OH260384   3.659   0.956   1.506 -0.5405  0.5381 -0.0603
12990TIP3    H160385   3.590   0.939   1.442  1.9157 -1.5522 -2.2434
12990TIP3    H260386   3.637   0.899   1.580 -1.3137  0.0803 -0.6272
12991TIP3   OH260387   1.602   6.419   1.869  0.3647  0.0076  1.0957
12991TIP3    H160388   1.627   6.425   1.961  0.3862  0.0149  1.0895
12991TIP3    H260389   1.519   6.467   1.863 -0.7552 -1.8252  1.5300
12992TIP3   OH260390   1.817   0.060   1.215  0.5730  0.6038 -0.5280
12992TIP3    H160391   1.857  -0.021   1.247 -0.0996  0.4916  0.0487
12992TIP3    H260392   1.788   0.105   1.294 -1.1891  0.2796 -0.9685
12993TIP3   OH260393   5.960   2.282  10.683 -0.1920 -0.0025  0.0763
12993TIP3    H160394   5.974   2.270  10.589  1.6121  1.5401  0.1026
12993TIP3    H260395   6.007   2.364  10.703  2.0601 -1.9010  2.8872
12994TIP3   OH260396   1.022   4.151  12.901 -0.3831 -0.9671  0.1350
12994TIP3    H160397   0.935   4.153  12.862 -0.9212 -0.1292  1.3451
12994TIP3    H260398   1.016   4.209  12.977  0.9319 -1.7306  0.8512
12995TIP3   OH260399   3.037   0.074  13.979  0.1070  0.4182  0.2371
12995TIP3    H160400   2.971   0.133  14.015 -1.2493 -0.3741 -0.9100
12995TIP3    H260401   3.113   0.130  13.963 -0.8916  1.6942 -0.1105
12996TIP3   OH260402   0.413   3.032  11.036 -0.1368  0.2143  0.1392
12996TIP3    H160403   0.506   3.017  11.018 -0.0611  0.2957  0.4490
12996TIP3    H260404   0.408   3.035  11.132 -0.8731 -2.4777  0.2276
12997TIP3   OH260405   4.091   5.153   3.593  0.0835  0.0504  0.0954
12997TIP3    H160406   4.033   5.229   3.604  1.7637  1.3395  0.2759
12997TIP3    H260407   4.159   5.183   3.533  1.7103 -0.7681  1.4778
12998TIP3   OH260408   6.289   4.322   2.441  0.5035 -0.0169  0.3323
12998TIP3    H160409   6.275   4.255   2.508 -0.7783 -0.4992 -0.3978
12998TIP3    H260410   6.309   4.272   2.361  0.0638  0.4882 -0.0965
12999TIP3   OH260411   1.593   6.536   0.420 -0.2626  0.0127  0.6416
12999TIP3    H160412   1.573   6.451   0.380  0.5666  0.1276 -0.0373
12999TIP3    H260413   1.509   6.566   0.454 -0.6538 -0.8733  0.4910
13000TIP3   OH260414   5.310   4.173   1.905 -0.7567 -0.4264  0.3143
13000TIP3    H160415   5.377   4.202   1.843 -0.7541  0.0325  0.5324
13000TIP3    H260416   5.229   4.212   1.871 -0.9656 -1.2399 -0.1267
13001TIP3   OH260417   5.434   4.434  16.828 -0.3216  0.0980 -1.1191
13001TIP3    H160418   5.378   4.424  16.905  0.7898 -0.9874 -0.4413
13001TIP3    H260419   5.489   4.510  16.848  1.2672 -1.2962  0.0078
13002TIP3   OH260420   5.786   4.266  11.906  0.5923  0.7060  0.4275
13002TIP3    H160421   5.847   4.272  11.833  2.4969 -0.3684  1.8913
13002TIP3    H260422   5.718   4.206  11.877 -0.4524  2.8226 -1.6551
13003TIP3   OH260423   2.817   0.243   1.497 -0.3364  0.1861 -0.0019
13003TIP3    H160424   2.762   0.305   1.544 -0.3534 -0.6777  1.1434
13003TIP3    H260425   2.757   0.176   1.465  0.0151 -0.7654  1.2631
13004TIP3   OH260426   3.236   3.160   5.071  0.1735  0.3250 -0.2890
13004TIP3    H160427   3.214   3.155   5.164 -2.2224  2.0897 -0.7161
13004TIP3    H260428   3.328   3.187   5.070  0.3653 -0.1861  1.5575
13005TIP3   OH260429   5.129   1.541   2.416  0.1563  0.2821  0.4701
13005TIP3    H160430   5.139   1.634   2.437  3.2247  0.2466 -0.6085
13005TIP3    H260431   5.148   1.535   2.322 -3.3559 -1.0142 -0.2691
13006TIP3   OH260432   2.390   2.775  11.537  0.4116  0.0369  0.9272
13006TIP3    H160433   2.409   2.689  11.576 -1.4713 -0.0146  1.7870
13006TIP3    H260434   2.308   2.763  11.490 -0.0850  1.4567  1.3910
13007TIP3   OH260435   0.487   0.374   4.519 -0.3708 -0.1045  0.7411
13007TIP3    H160436   0.560   0.407   4.467 -0.0800  1.1032  1.8696
13007TIP3    H260437   0.409   0.407   4.475 -0.2489 -1.6051 -0.6076
13008TIP3   OH260438   6.210   3.393  12.600  0.5666  0.6873  0.2274
13008TIP3    H160439   6.161   3.342  12.665 -0.9924  0.2320 -1.2650
13008TIP3    H260440   6.175   3.482  12.609  1.8231  1.0830  1.4069
13009TIP3   OH260441   1.141   3.077  16.428  0.0383 -0.6845  0.3437
13009TIP3    H160442   1.077   3.067  16.499  0.7995 -0.2935  1.0838
13009TIP3    H260443   1.206   3.008  16.444  0.5973 -0.1364  0.4331
13010TIP3   OH260444   1.669   1.889  16.372  0.0313  0.5467 -0.3257
13010TIP3    H160445   1.673   1.888  16.277 -0.5042 -0.4144 -0.3337
13010TIP3    H260446   1.600   1.952  16.393 -0.0411  0.5502 -0.5780
13011TIP3   OH260447   1.125   0.698  14.302  0.4468  0.2419 -0.5415
13011TIP3    H160448   1.051   0.737  14.257  0.2196  1.2699  0.6969
13011TIP3    H260449   1.182   0.772  14.324  1.1004 -0.3653 -0.1366
13012TIP3   OH260450   2.370   5.297  14.162 -0.1836  0.5300  0.1063
13012TIP3    H160451   2.340   5.214  14.126  0.6745 -0.2468  1.1441
13012TIP3    H260452   2.301   5.323  14.223 -1.4049  1.6048 -1.6623
13013TIP3   OH260453   1.884   2.530   0.991  0.2249  0.5607  0.0364
13013TIP3    H160454   1.873   2.521   0.897 -1.5658 -0.6690  0.3401
13013TIP3    H260455   1.975   2.505   1.007 -0.2054 -1.8449 -1.0646
13014TIP3   OH260456   6.225   0.023   5.727 -0.5136  0.1411 -0.0677
13014TIP3    H160457   6.227  -0.055   5.782 -1.2241  0.7672  0.8660
13014TIP3    H260458   6.229  -0.010   5.637  2.3920 -0.8267  0.3658
13015TIP3   OH260459   4.434   3.264  15.366  0.1502 -0.3309 -0.0609
13015TIP3    H160460   4.524   3.238  15.347 -0.0445 -0.9463 -0.1342
13015TIP3    H260461   4.389   3.262  15.282 -0.1200 -0.7513  0.0936
13016TIP3   OH260462   2.756   1.435   3.029 -0.3909 -0.0702  1.1117
13016TIP3    H160463   2.826   1.433   3.094 -1.3263 -0.4225  2.1138
13016TIP3    H260464   2.739   1.342   3.010  0.3471  0.0395 -0.1481
13017TIP3   OH260465   3.236   3.104  13.267 -0.2978 -0.2158 -0.0910
13017TIP3    H160466   3.307   3.159  13.300 -0.3157 -0.4897  0.4060
13017TIP3    H260467   3.174   3.098  13.339  0.1610 -1.6692  0.1885
13018TIP3   OH260468   1.031   4.706  12.844 -0.6343  0.8102  0.6171
13018TIP3    H160469   1.124   4.687  12.835 -0.4225  1.8128  0.6858
13018TIP3    H260470   0.989   4.620  12.841  0.1888  0.4419 -0.5898
13019TIP3   OH260471   6.509   2.193  13.630  0.1902 -0.0987 -0.1023
13019TIP3    H160472   6.510   2.285  13.604  2.0085  0.5276  1.9677
13019TIP3    H260473   6.418   2.166  13.619 -0.6004  2.2663  0.2759
13020TIP3   OH260474   3.572   5.656  14.664  0.2661 -0.4324 -0.3989
13020TIP3    H160475   3.609   5.744  14.664  0.8727 -0.6818 -0.4673
13020TIP3    H260476   3.570   5.630  14.572 -1.7211  0.2459 -0.5686
13021TIP3   OH260477   0.963   5.333  11.251  0.0073 -0.4416  0.2762
13021TIP3    H160478   0.898   5.330  11.321  0.0879  0.5018  0.3901
13021TIP3    H260479   0.916   5.303  11.174 -0.8954  1.3422  0.1088
13022TIP3   OH260480   5.763   3.133  16.508 -0.3391  0.5484  0.0961
13022TIP3    H160481   5.772   3.227  16.496 -0.4828  0.6127  0.4962
13022TIP3    H260482   5.687   3.109  16.455 -1.3108  0.9208  1.2798
13023TIP3   OH260483   0.972   3.475   1.093 -0.1751  0.4129 -0.2953
13023TIP3    H160484   0.936   3.559   1.122 -0.7645  0.0738 -0.0350
13023TIP3    H260485   0.896   3.417   1.087  0.4052 -0.4842  0.8494
13024TIP3   OH260486   4.009   1.731   5.678 -0.2547 -0.8530  0.3901
13024TIP3    H160487   4.043   1.689   5.599  0.7271  0.6960 -0.0307
13024TIP3    H260488   4.065   1.699   5.748 -1.0246 -2.1024  0.4634
13025TIP3   OH260489   5.841   0.311  17.169  0.1293  0.1818  0.6170
13025TIP3    H160490   5.912   0.345  17.115  0.6187 -1.7383  0.0285
13025TIP3    H260491   5.883   0.254  17.233 -0.7185  0.3319  1.3285
13026TIP3   OH260492   2.988   5.443   2.402 -0.1988 -0.2129  0.4539
13026TIP3    H160493   3.075   5.410   2.378  0.0611 -0.7104  1.9867
13026TIP3    H260494   2.993   5.456   2.497 -1.9180 -0.6141  0.6161
13027TIP3   OH260495   5.991   2.113   1.858 -0.2212 -0.2570  0.2302
13027TIP3    H160496   5.930   2.187   1.870 -0.4552 -0.4342  0.1350
13027TIP3    H260497   5.997   2.103   1.763  0.8529  0.5007  0.2114
13028TIP3   OH260498   3.401   1.959  13.787  0.0664 -0.0734  0.9638
13028TIP3    H160499   3.429   1.893  13.724 -0.5312 -0.4170  1.0499
13028TIP3    H260500   3.339   2.014  13.739  0.8083  0.6342  0.8006
13029TIP3   OH260501   2.250   1.736   3.300 -0.5693 -0.4216 -0.4180
13029TIP3    H160502   2.282   1.802   3.361 -0.3781 -2.5598  1.8850
13029TIP3    H260503   2.155   1.747   3.301 -0.4612  0.6274 -1.0271
13030TIP3   OH260504   6.360   1.763  17.051 -0.2101 -0.0675 -0.0178
13030TIP3    H160505   6.444   1.741  17.092  0.5184 -0.4358 -1.6675
13030TIP3    H260506   6.338   1.686  16.997 -0.3800  0.9830 -1.4911
13031TIP3   OH260507   0.898   2.508   1.134  0.1774  0.1374  0.0932
13031TIP3    H160508   0.877   2.482   1.044 -3.5862  0.2726  0.8570
13031TIP3    H260509   0.945   2.591   1.124 -1.2971  0.7955 -1.6994
13032TIP3   OH260510   4.119   3.646  11.935  0.7391  0.8842  0.0878
13032TIP3    H160511   4.166   3.704  11.875 -1.1036  2.1100 -0.2470
13032TIP3    H260512   4.030   3.681  11.936 -0.1735 -1.3615  0.6710
13033TIP3   OH260513   3.777   5.033   1.124 -0.6423  0.1795  0.4908
13033TIP3    H160514   3.827   5.107   1.088  1.0036 -0.5463  1.2311
13033TIP3    H260515   3.837   4.992   1.186 -0.6110 -3.2169 -1.6559
13034TIP3   OH260516   6.786   2.337  17.058 -0.1389 -0.0624  0.1949
13034TIP3    H160517   6.709   2.389  17.081 -0.8158 -1.0025  0.0802
13034TIP3    H260518   6.808   2.363  16.969  0.1358  0.7531  0.4956
13035TIP3   OH260519   6.111   4.255  12.514  0.0697 -0.3946  0.2299
13035TIP3    H160520   6.108   4.178  12.457  2.1799 -0.7651  0.5932
13035TIP3    H260521   6.185   4.306  12.481 -0.4262  0.7756  0.9080
13036TIP3   OH260522   2.316   0.865   1.070 -0.1398  0.1541  0.3220
13036TIP3    H160523   2.306   0.960   1.067  0.4084  0.2158  0.2499
13036TIP3    H260524   2.229   0.830   1.053  0.2540  0.6246 -3.0376
13037TIP3   OH260525   2.756   3.543  14.703 -0.2144  0.5751  0.2829
13037TIP3    H160526   2.695   3.495  14.647  0.7243  2.0179 -2.0136
13037TIP3    H260527   2.704   3.569  14.778 -1.5769 -1.0993 -0.0390
13038TIP3   OH260528   0.108   6.109  15.929  0.1397 -0.3728  0.1094
13038TIP3    H160529   0.146   6.158  16.003  0.3125 -1.3315  0.6662
13038TIP3    H260530   0.141   6.020  15.940 -1.9366 -1.1342  0.3437
13039TIP3   OH260531   4.102   1.128   2.573 -0.5342  0.2104  0.2203
13039TIP3    H160532   4.106   1.214   2.614  0.6200 -0.7307  2.1777
13039TIP3    H260533   4.149   1.138   2.490 -0.6565  1.5282  0.3084
13040TIP3   OH260534   0.756   3.199  13.440 -0.4141 -0.1972  0.6645
13040TIP3    H160535   0.821   3.230  13.503 -1.0818  0.3988  1.0771
13040TIP3    H260536   0.672   3.220  13.481 -0.8575  2.1618 -1.3828
13041TIP3   OH260537   6.259   5.209   6.222 -0.3730  0.1275  0.4588
13041TIP3    H160538   6.271   5.114   6.233  1.7358  0.2335 -0.6428
13041TIP3    H260539   6.183   5.230   6.276 -0.6133 -2.1323  1.0468
13042TIP3   OH260540   2.500   1.470   2.928 -0.7258 -0.2809 -0.4828
13042TIP3    H160541   2.589   1.457   2.961 -1.1492  0.1429  0.8531
13042TIP3    H260542   2.512   1.492   2.835  0.6905  1.7790  0.1419
13043TIP3   OH260543   1.001   0.651   1.332 -0.1982 -0.0423  0.3869
13043TIP3    H160544   0.975   0.577   1.386 -1.9494 -0.7539 -1.3522
13043TIP3    H260545   0.918   0.688   1.301  0.7255  0.9158 -1.0079
13044TIP3   OH260546   4.699   6.092  15.958  0.7443 -0.1679  0.6887
13044TIP3    H160547   4.634   6.023  15.972  1.6960 -1.6319 -1.7454
13044TIP3    H260548   4.648   6.173  15.957 -0.9382 -1.2117 -0.3262
13045TIP3   OH260549   0.425   5.891  12.932 -0.0459 -0.0308 -0.0362
13045TIP3    H160550   0.507   5.849  12.958 -0.3018 -1.1586 -1.0136
13045TIP3    H260551   0.362   5.864  12.999  0.9511  3.0016  2.2356
13046TIP3   OH260552   3.441   6.444  13.674  0.3700 -0.1585  0.8738
13046TIP3    H160553   3.531   6.474  13.663  0.1615 -0.2733 -1.3685
13046TIP3    H260554   3.390   6.503  13.619 -0.8359 -0.5790  1.5401
13047TIP3   OH260555   3.739   1.969   3.352 -0.1124  0.2667 -0.4063
13047TIP3    H160556   3.795   1.897   3.322 -1.3381  0.0744 -2.3771
13047TIP3    H260557   3.798   2.044   3.358  0.3609  0.1437 -2.7224
13048TIP3   OH260558   0.340   6.515   1.346 -0.1336 -0.3410  0.4051
13048TIP3    H160559   0.328   6.610   1.344  1.7011 -0.1005 -0.0506
13048TIP3    H260560   0.334   6.488   1.255 -0.3666 -0.6201  0.5035
13049TIP3   OH260561   0.208   3.887   1.867  0.0505  0.5865 -0.9802
13049TIP3    H160562   0.175   3.974   1.846 -0.6826  0.4637 -0.3409
13049TIP3    H260563   0.205   3.881   1.962  1.6849  0.4716 -0.9195
13050TIP3   OH260564   5.299   1.433  14.509  0.4693  1.1620 -0.2753
13050TIP3    H160565   5.257   1.369  14.451  1.6688  0.1959 -0.1163
13050TIP3    H260566   5.382   1.453  14.465  1.6221  0.0320  1.3178
13051TIP3   OH260567   0.957   6.288   4.248 -0.3971 -0.3491 -0.4049
13051TIP3    H160568   1.013   6.305   4.324 -1.0706 -0.3485  0.0910
13051TIP3    H260569   0.868   6.287   4.283 -0.8088  0.7930 -1.3669
13052TIP3   OH260570   1.309   5.516  15.795 -0.3511 -0.1855 -0.7474
13052TIP3    H160571   1.343   5.586  15.741  0.1111 -1.0262 -1.5465
13052TIP3    H260572   1.214   5.520  15.782 -0.1459 -1.2758 -2.7278
13053TIP3   OH260573   5.572   5.943   3.955  0.6403  0.0606  0.3642
13053TIP3    H160574   5.607   6.027   3.985 -1.2282  1.8900 -2.3009
13053TIP3    H260575   5.526   5.964   3.873 -1.0439 -3.3300  0.3416
13054TIP3   OH260576   5.268   6.688  11.243 -0.3639  0.2720  0.4234
13054TIP3    H160577   5.303   6.750  11.306  0.5028 -0.3258  0.5305
13054TIP3    H260578   5.173   6.700  11.247 -0.1325  2.5836 -0.5920
13055TIP3   OH260579   6.235   0.040  16.849  0.1495 -0.3310  0.3541
13055TIP3    H160580   6.219   0.066  16.759 -0.0419  0.2213  0.5488
13055TIP3    H260581   6.318   0.082  16.872 -0.4633  0.6023  0.8638
13056TIP3   OH260582   0.746   3.945  10.627  0.3994  0.2654  0.4548
13056TIP3    H160583   0.794   3.863  10.613 -0.5241 -0.4890  1.6399
13056TIP3    H260584   0.731   3.980  10.538 -0.1250 -1.3893 -0.1247
13057TIP3   OH260585   4.828   5.016  12.291 -0.0806  0.2711 -0.2134
13057TIP3    H160586   4.843   4.973  12.376  0.6148  0.3192 -0.3034
13057TIP3    H260587   4.751   5.071  12.305 -0.0944  0.1182  0.3308
13058TIP3   OH260588   1.012   2.796  12.942 -0.6163  0.7592 -0.1650
13058TIP3    H160589   0.963   2.773  12.863 -2.9241 -0.6709  1.5932
13058TIP3    H260590   1.002   2.719  12.998  0.9674  1.7613  1.5116
13059TIP3   OH260591   1.445   3.921  12.416  0.1643  0.2783  0.0201
13059TIP3    H160592   1.408   3.835  12.435 -1.3955  0.9564  0.0831
13059TIP3    H260593   1.459   3.961  12.502  2.5148 -0.5489  0.0778
13060TIP3   OH260594   2.308   4.612   0.035  0.0028 -0.2611 -0.6309
13060TIP3    H160595   2.283   4.634   0.125  1.0904 -3.4057  0.5203
13060TIP3    H260596   2.225   4.591  -0.009 -0.6265  2.1765 -0.6426
13061TIP3   OH260597   6.527   6.777  13.572 -0.5321 -0.2349  0.2792
13061TIP3    H160598   6.535   6.689  13.611  3.4342 -0.2576 -0.3422
13061TIP3    H260599   6.580   6.833  13.630 -2.3129  1.5969  0.1732
13062TIP3   OH260600   3.832   1.571  14.971  0.1800  0.3257  0.1250
13062TIP3    H160601   3.790   1.640  15.023 -0.3806  0.2690 -0.2471
13062TIP3    H260602   3.770   1.499  14.973  0.6132 -0.0463  0.2207
13063TIP3   OH260603   5.406   5.097  13.202 -0.9298 -0.6464  0.1591
13063TIP3    H160604   5.475   5.037  13.231 -0.6648 -0.5398 -0.2347
13063TIP3    H260605   5.434   5.124  13.114 -2.6544 -2.4271 -0.9762
13064TIP3   OH260606   1.370   6.720  14.920 -0.1948  0.4468 -0.3402
13064TIP3    H160607   1.422   6.695  14.844 -0.4988 -0.1284 -0.3709
13064TIP3    H260608   1.417   6.792  14.960 -0.1179  0.8627 -1.1717
13065TIP3   OH260609   0.538   5.298  16.050 -1.0971  0.3231  0.2380
13065TIP3    H160610   0.511   5.209  16.028  2.2231 -0.5008 -0.9059
13065TIP3    H260611   0.616   5.285  16.104 -0.5753  2.5439  0.0363
13066TIP3   OH260612   0.480   0.956   0.625  0.1429  0.4624  0.6890
13066TIP3    H160613   0.562   0.941   0.672 -0.1920 -0.3598  1.0018
13066TIP3    H260614   0.505   0.951   0.532  0.4460  0.2416  0.7826
13067TIP3   OH260615   3.780   2.811   3.014  0.2517  0.0482  0.5090
13067TIP3    H160616   3.729   2.730   3.016 -0.3863  0.2764 -3.2894
13067TIP3    H260617   3.870   2.783   3.029 -0.0056 -1.3334 -0.3954
13068TIP3   OH260618   4.189   0.394   2.609 -0.2362 -0.5253  0.1348
13068TIP3    H160619   4.248   0.417   2.681  0.5067  0.9725 -0.9427
13068TIP3    H260620   4.107   0.438   2.631  0.2594  0.6739 -0.3664
13069TIP3   OH260621   5.458   5.428   5.338  0.4039  0.2374  0.3680
13069TIP3    H160622   5.410   5.410   5.257  2.1582  0.8214 -0.8196
13069TIP3    H260623   5.549   5.408   5.317  0.5406 -2.1875  3.0074
13070TIP3   OH260624   0.801   6.034  12.407  0.1973  0.5073  0.4018
13070TIP3    H160625   0.747   6.109  12.432 -1.8658  0.5218 -3.7815
13070TIP3    H260626   0.857   6.067  12.336  1.5403 -1.1061  0.6660
13071TIP3   OH260627   2.840   5.421  16.704  0.7653  0.1249 -0.3287
13071TIP3    H160628   2.761   5.475  16.699 -1.0588 -2.3858  0.0472
13071TIP3    H260629   2.866   5.425  16.796  0.6249  0.3563 -0.2965
13072TIP3   OH260630   3.117   3.233   5.342 -0.3849  0.0982 -0.1646
13072TIP3    H160631   3.038   3.190   5.309 -0.8356  1.3739 -0.7715
13072TIP3    H260632   3.090   3.322   5.363  0.9453  0.6384 -0.6572
13073TIP3   OH260633   0.393   6.392  13.183  0.2387  0.0344 -0.3969
13073TIP3    H160634   0.319   6.408  13.241 -0.3992 -1.5826 -0.7156
13073TIP3    H260635   0.376   6.304  13.148  1.8865 -0.0099 -1.1029
13074TIP3   OH260636   6.773   3.749  14.054 -0.4724  0.1108 -0.3551
13074TIP3    H160637   6.749   3.657  14.058  0.6408 -0.1415  1.0944
13074TIP3    H260638   6.725   3.790  14.126 -1.3030  0.7480 -1.2639
13075TIP3   OH260639   1.468   3.744  16.536 -0.5015  0.2841 -0.3003
13075TIP3    H160640   1.512   3.692  16.468 -1.0012 -1.2079  0.4889
13075TIP3    H260641   1.417   3.808  16.486 -0.8468 -0.7779 -1.3586
13076TIP3   OH260642   3.400   2.035   4.061  0.0516 -0.3128  0.0953
13076TIP3    H160643   3.413   2.032   4.155  3.9235 -0.2552 -0.3585
13076TIP3    H260644   3.432   2.121   4.034 -2.4948  0.3172 -1.1416
13077TIP3   OH260645   3.585   3.646   0.526 -0.8964  0.2289  0.1709
13077TIP3    H160646   3.513   3.585   0.511 -0.2865  0.0725 -2.3500
13077TIP3    H260647   3.564   3.722   0.472  0.3359  0.5981  0.1882
13078TIP3   OH260648   1.896   2.147  16.313  0.8771 -0.4383 -0.4660
13078TIP3    H160649   1.970   2.184  16.362  0.3035  0.5775 -0.3622
13078TIP3    H260650   1.926   2.060  16.288  2.5663  0.3985 -1.4575
13079TIP3   OH260651   2.484   0.742   2.937 -0.2238 -0.0900  0.1580
13079TIP3    H160652   2.403   0.692   2.946 -0.1899 -0.1146  0.3371
13079TIP3    H260653   2.467   0.823   2.984  0.0820 -0.3687  0.7566
13080TIP3   OH260654   1.163   2.723   2.904 -0.7370 -0.2150 -0.7484
13080TIP3    H160655   1.217   2.660   2.952 -0.3238  0.5032 -0.2547
13080TIP3    H260656   1.080   2.678   2.890  0.0996 -1.4514 -1.7981
13081TIP3   OH260657   1.321   0.620  11.927  0.4444  0.2442 -0.1431
13081TIP3    H160658   1.310   0.603  11.834 -1.2964  0.7011 -0.0256
13081TIP3    H260659   1.347   0.712  11.932 -1.0762  0.6784 -0.0843
13082TIP3   OH260660   4.122   0.477  12.035 -0.0927  0.1902  0.6691
13082TIP3    H160661   4.146   0.542  12.100  3.0058  1.4751 -1.6525
13082TIP3    H260662   4.115   0.526  11.953  1.3948 -2.2296 -0.9663
13083TIP3   OH260663   2.368   5.714   0.099  0.3992 -0.1860 -0.2539
13083TIP3    H160664   2.397   5.640   0.047  1.4592 -0.4582  0.7008
13083TIP3    H260665   2.385   5.688   0.190 -1.6033  0.1910  0.2540
13084TIP3   OH260666   4.079   5.905  12.261  0.3250  0.2449 -0.6856
13084TIP3    H160667   4.120   5.992  12.261  0.8102  0.0315  0.6405
13084TIP3    H260668   4.075   5.881  12.168  0.9390  1.3317 -1.0116
13085TIP3   OH260669   1.564   6.166   2.032  0.0521  0.6364  0.0680
13085TIP3    H160670   1.623   6.108   2.081  0.8024  2.4381  1.3464
13085TIP3    H260671   1.595   6.254   2.053 -0.6817  1.4965 -2.3476
13086TIP3   OH260672   5.304   5.388  13.241  0.5948 -0.3272 -0.6099
13086TIP3    H160673   5.318   5.313  13.183  0.3295  0.1214 -1.2634
13086TIP3    H260674   5.279   5.460  13.182  0.1585  0.0943  0.0759
13087TIP3   OH260675   5.953   2.752  15.638  0.0273 -0.0775 -0.1154
13087TIP3    H160676   5.912   2.794  15.714  0.3450  0.3955 -0.2013
13087TIP3    H260677   5.985   2.825  15.585  0.3123 -0.4234 -0.4221
13088TIP3   OH260678   4.035   5.043   6.647  0.0347 -0.1561  0.4061
13088TIP3    H160679   3.980   4.996   6.585 -0.7762  0.3726  0.7144
13088TIP3    H260680   4.123   5.007   6.633 -0.1518 -0.1111 -0.9677
13089TIP3   OH260681   2.451   6.474   2.106  0.7145  0.3138 -0.5383
13089TIP3    H160682   2.431   6.407   2.171 -0.8890  0.3510 -0.9617
13089TIP3    H260683   2.463   6.554   2.157 -0.2716  0.2911 -0.2596
13090TIP3   OH260684   6.540   3.167  15.750 -0.5574  0.1825  0.4512
13090TIP3    H160685   6.524   3.220  15.829 -1.2029  0.5685  0.0654
13090TIP3    H260686   6.535   3.077  15.781 -1.1843  0.3268  0.7854
13091TIP3   OH260687   2.394   0.743  15.466 -0.2699  0.4734 -0.0635
13091TIP3    H160688   2.377   0.739  15.560 -1.8301 -0.2009 -0.3555
13091TIP3    H260689   2.481   0.783  15.459  1.3269 -2.4811  1.7852
13092TIP3   OH260690   2.206   0.688  13.465  0.1853  0.4118 -0.4244
13092TIP3    H160691   2.283   0.683  13.407 -0.1947 -2.1447 -0.8012
13092TIP3    H260692   2.207   0.605  13.512 -2.9616 -0.1538 -1.2390
13093TIP3   OH260693   5.716   2.091  13.806  0.0740  0.3341 -0.1984
13093TIP3    H160694   5.788   2.038  13.773  0.9680  2.3975 -1.6855
13093TIP3    H260695   5.757   2.157  13.862 -0.7144  1.1102 -0.5149
13094TIP3   OH260696   0.435   0.867   5.092  0.2390  0.8087 -0.1044
13094TIP3    H160697   0.381   0.812   5.035 -0.0685  0.4698  0.5145
13094TIP3    H260698   0.513   0.814   5.109 -0.6038  0.0474  1.4964
13095TIP3   OH260699   0.437   4.549   0.124 -0.2547 -0.1936  0.3948
13095TIP3    H160700   0.518   4.598   0.112 -0.7643  0.4459 -0.4759
13095TIP3    H260701   0.465   4.460   0.147  0.6848  0.0030 -0.0061
13096TIP3   OH260702   1.107   5.714  13.063 -1.2634 -0.4093  0.5957
13096TIP3    H160703   1.054   5.715  13.143 -1.1964 -0.6730  0.6434
13096TIP3    H260704   1.129   5.806  13.049 -1.6124 -0.3127  0.6564
13097TIP3   OH260705   0.049   5.702  12.338 -0.1560 -0.0197  0.6365
13097TIP3    H160706  -0.037   5.732  12.306 -0.9442  0.7636  3.3609
13097TIP3    H260707   0.094   5.783  12.362  0.3560 -0.5889  1.6076
13098TIP3   OH260708   4.370   2.468  13.019  0.3843 -0.1399 -0.0261
13098TIP3    H160709   4.314   2.540  13.049 -0.4335 -0.4560 -0.7945
13098TIP3    H260710   4.365   2.471  12.923 -1.6561 -2.7810 -0.0538
13099TIP3   OH260711   3.955   1.520  10.630  0.1146  0.1085 -0.3424
13099TIP3    H160712   4.021   1.558  10.689  0.0207  0.9306 -0.7770
13099TIP3    H260713   3.966   1.567  10.548  0.5931 -1.3864 -1.1605
13100TIP3   OH260714   3.814   0.904  15.718 -0.0677  0.1215 -0.2320
13100TIP3    H160715   3.737   0.868  15.763 -0.0533 -1.2610 -1.2613
13100TIP3    H260716   3.847   0.972  15.776 -2.4265  1.1575 -0.0278
13101TIP3   OH260717   1.478   0.500   1.387 -0.6597  0.8162  0.5786
13101TIP3    H160718   1.476   0.413   1.347 -0.9465  1.2556 -0.3604
13101TIP3    H260719   1.568   0.510   1.418 -0.3033  0.6798 -0.3983
13102TIP3   OH260720   3.131   4.370   5.976  0.4071 -0.2147 -0.3923
13102TIP3    H160721   3.095   4.327   5.898  1.0930 -0.8008 -0.3947
13102TIP3    H260722   3.160   4.456   5.945  0.8612 -0.5241 -0.8385
13103TIP3   OH260723   0.603   5.518  14.517 -0.5402  0.4056 -0.3431
13103TIP3    H160724   0.547   5.441  14.504 -0.5959  0.1167  1.4583
13103TIP3    H260725   0.646   5.502  14.601  0.6803  1.5985 -0.7306
13104TIP3   OH260726   6.701   5.821  11.668 -0.1139 -0.1794  0.0870
13104TIP3    H160727   6.740   5.904  11.694 -0.7561  0.2158 -0.2177
13104TIP3    H260728   6.770   5.756  11.685  0.8176  0.5668 -0.8161
13105TIP3   OH260729   0.644   3.564   5.553  0.2156 -0.1950  0.2642
13105TIP3    H160730   0.616   3.540   5.641 -0.8692  1.6248  0.4480
13105TIP3    H260731   0.739   3.561   5.556  0.1901  0.0438  1.5493
13106TIP3   OH260732   4.092   0.277  12.317  0.3571  0.1921  0.0801
13106TIP3    H160733   4.087   0.285  12.413 -0.8244  1.6136 -0.0775
13106TIP3    H260734   4.062   0.362  12.285  1.0892 -0.1480 -1.5630
13107TIP3   OH260735   2.001   6.365  13.591 -0.4847  0.0870  0.0392
13107TIP3    H160736   1.916   6.382  13.630 -0.0153  1.6127  0.4460
13107TIP3    H260737   2.056   6.438  13.620  0.3169  0.4099 -2.1404
13108TIP3   OH260738   3.710   6.288  10.944 -0.3497 -1.0244  0.3440
13108TIP3    H160739   3.740   6.357  10.885 -0.3328 -0.1846  1.3248
13108TIP3    H260740   3.700   6.332  11.029  2.2192 -2.8134  1.6272
13109TIP3   OH260741   1.383   2.506   2.937  0.3454 -0.9106  0.2856
13109TIP3    H160742   1.475   2.491   2.958  0.9736  0.6547 -1.2442
13109TIP3    H260743   1.344   2.532   3.020  1.7811  0.6184  0.5095
13110TIP3   OH260744   0.236   1.887  14.069 -0.4324 -0.5373  0.6703
13110TIP3    H160745   0.166   1.952  14.058 -0.7548 -0.9671  0.2019
13110TIP3    H260746   0.315   1.932  14.040 -0.5607 -0.1613  0.8946
13111TIP3   OH260747   6.161   5.790  12.866 -0.4950 -0.0680  0.4550
13111TIP3    H160748   6.252   5.818  12.866 -0.9346  1.4489 -0.6676
13111TIP3    H260749   6.164   5.698  12.840  0.6506  0.2326 -0.5268
13112TIP3   OH260750   3.412   6.128  11.111 -0.0645 -0.1510  0.1484
13112TIP3    H160751   3.323   6.132  11.076 -0.2964  0.3853  0.8045
13112TIP3    H260752   3.422   6.038  11.140 -0.7066  0.0196  0.9050
13113TIP3   OH260753   5.847   6.142   5.995 -0.5648 -0.2353 -0.1358
13113TIP3    H160754   5.845   6.198   5.917  1.5218  1.6180  1.0525
13113TIP3    H260755   5.766   6.163   6.041  0.4284  2.3458  0.5727
13114TIP3   OH260756   1.556   0.561   0.279  0.4889 -0.5888  0.2408
13114TIP3    H160757   1.616   0.494   0.246  1.0058 -0.8343  1.6216
13114TIP3    H260758   1.515   0.520   0.355  0.6392  0.5739  0.9563
13115TIP3   OH260759   2.283   6.784  15.627  0.2716 -0.1068 -0.0220
13115TIP3    H160760   2.229   6.841  15.572 -0.2680 -0.9585 -0.3844
13115TIP3    H260761   2.221   6.721  15.663  0.6046  0.4787  1.6141
13116TIP3   OH260762   5.007   5.870  16.325  0.0847  0.7074  0.3870
13116TIP3    H160763   4.941   5.921  16.373 -1.9833 -1.8382  0.3184
13116TIP3    H260764   4.964   5.847  16.243  0.8096 -1.5835  0.6400
13117TIP3   OH260765   2.092   0.824  17.234 -0.0530 -0.1577 -0.7522
13117TIP3    H160766   2.040   0.799  17.311 -1.3140 -0.2016 -1.5904
13117TIP3    H260767   2.183   0.810  17.260 -0.3056  2.1376  1.5578
13118TIP3   OH260768   0.918   6.472  16.075  0.0822 -0.0648  0.9317
13118TIP3    H160769   0.917   6.540  16.142  1.0706 -0.6611  1.5595
13118TIP3    H260770   0.960   6.397  16.117  1.4261 -0.1942 -0.5917
13119TIP3   OH260771   4.184   2.051  14.810  0.0103 -0.8984 -0.0874
13119TIP3    H160772   4.182   2.059  14.715  1.2886 -0.3162 -0.0676
13119TIP3    H260773   4.196   2.141  14.842 -1.2179 -0.9850  0.6528
13120TIP3   OH260774   1.329   6.339  12.278 -0.3310 -0.3008  0.2429
13120TIP3    H160775   1.310   6.245  12.290 -0.3581 -0.1658  1.3450
13120TIP3    H260776   1.245   6.382  12.296 -0.5359 -0.1193 -1.1163
13121TIP3   OH260777   5.252   6.620  16.402  0.2623  0.4733  0.2946
13121TIP3    H160778   5.287   6.545  16.451  1.1701 -0.8127 -2.2371
13121TIP3    H260779   5.328   6.656  16.357 -0.5705  1.6251 -0.2106
13122TIP3   OH260780   2.834   3.207   2.144 -0.2408  0.0274  0.2270
13122TIP3    H160781   2.897   3.252   2.088 -0.0526 -0.8202 -0.2483
13122TIP3    H260782   2.796   3.139   2.088 -1.6939  0.6310  0.4523
13123TIP3   OH260783   6.197   5.733   5.641  0.3376 -0.0075  0.2701
13123TIP3    H160784   6.245   5.805   5.601  0.5432  0.0472  0.6096
13123TIP3    H260785   6.257   5.700   5.708  0.5217 -0.9219 -0.3314
13124TIP3   OH260786   2.764   2.135  10.974 -0.2480 -0.2503  0.1929
13124TIP3    H160787   2.726   2.193  11.040 -1.1003 -1.0568  0.4153
13124TIP3    H260788   2.711   2.150  10.895 -0.6351 -0.9156  0.3253
13125TIP3   OH260789   0.129   2.213   5.465  0.0460 -0.6279 -0.0359
13125TIP3    H160790   0.110   2.122   5.443  1.0136 -0.8189 -0.0741
13125TIP3    H260791   0.169   2.209   5.551  1.7932 -0.4111 -0.8230
13126TIP3   OH260792   0.757   1.280  16.298 -0.3257 -0.3314 -0.0083
13126TIP3    H160793   0.844   1.240  16.302  0.3964  1.3471  1.9962
13126TIP3    H260794   0.750   1.311  16.207  0.9169 -1.0059 -0.3550
13127TIP3   OH260795   5.276   2.023   3.559  0.4010  0.2146 -0.3476
13127TIP3    H160796   5.315   1.981   3.636  0.8318 -0.3785 -0.8886
13127TIP3    H260797   5.344   2.019   3.493 -0.8983 -1.7386 -1.6291
13128TIP3   OH260798   4.040   5.265  15.278 -0.0676  0.0093  0.5357
13128TIP3    H160799   4.109   5.274  15.212 -1.6381 -0.0006 -1.1445
13128TIP3    H260800   4.084   5.224  15.352  1.5114 -0.9573 -0.8851
13129TIP3   OH260801   0.933   2.695   0.021  0.3852 -0.7181 -0.1300
13129TIP3    H160802   0.855   2.641   0.034 -0.8416  0.7832 -1.1002
13129TIP3    H260803   0.911   2.751  -0.053  2.0943  0.2520  0.0867
13130TIP3   OH260804   2.156   1.780  11.533 -0.4957 -0.0119  0.1096
13130TIP3    H160805   2.223   1.768  11.600 -0.3000 -0.0408 -0.0936
13130TIP3    H260806   2.202   1.818  11.459 -1.0125  1.5550  0.5680
13131TIP3   OH260807   2.898   4.718  12.655  0.3440 -0.6664  0.4468
13131TIP3    H160808   2.964   4.657  12.623  0.3862 -0.0324 -0.7254
13131TIP3    H260809   2.947   4.779  12.711  1.0349  0.5709 -1.4242
13132TIP3   OH260810   4.157   2.686   5.219  0.2445 -0.1501 -0.3191
13132TIP3    H160811   4.130   2.616   5.279 -1.6862  2.1663  1.5940
13132TIP3    H260812   4.116   2.765   5.254 -0.4204  1.4176 -4.3333
13133TIP3   OH260813   6.241   2.642   0.166  0.6823 -0.1636  0.0690
13133TIP3    H160814   6.148   2.624   0.181 -0.4755  3.1551 -2.6241
13133TIP3    H260815   6.269   2.572   0.107 -0.4466 -0.4614 -0.1343
13134TIP3   OH260816   1.520   5.029   2.773  0.4672 -0.5031  0.0637
13134TIP3    H160817   1.611   5.011   2.747  0.6259 -2.5321  1.8406
13134TIP3    H260818   1.502   5.116   2.737  2.4973 -0.8233 -1.8764
13135TIP3   OH260819   5.416   4.356   6.200  0.1923 -0.0234  0.0952
13135TIP3    H160820   5.505   4.371   6.168  0.8058 -2.7465  0.4184
13135TIP3    H260821   5.413   4.400   6.285  1.4930 -0.5515  0.4303
13136TIP3   OH260822   6.546   6.042   2.544  0.3169  0.5368  0.4292
13136TIP3    H160823   6.597   6.106   2.495 -1.2860 -0.4925 -2.7094
13136TIP3    H260824   6.587   5.958   2.524 -0.1663  0.1328  1.1019
13137TIP3   OH260825   0.057   1.558  13.211  0.0202  0.4671 -0.0106
13137TIP3    H160826   0.004   1.611  13.271  1.3638  1.3605  0.4339
13137TIP3    H260827   0.113   1.506  13.269  0.0523 -0.0184 -0.4750
13138TIP3   OH260828   5.273   3.863   0.362  0.1124  0.1294 -0.7857
13138TIP3    H160829   5.198   3.813   0.394 -0.5514  1.4307 -0.2900
13138TIP3    H260830   5.295   3.821   0.278  0.0346 -1.4471 -0.0354
13139TIP3   OH260831   5.335   1.703   3.218  0.1684  0.3343  0.0213
13139TIP3    H160832   5.334   1.718   3.313  0.8042  0.2473  0.0416
13139TIP3    H260833   5.271   1.766   3.183  0.9833  1.3781  0.3636
13140TIP3   OH260834   4.730   3.239  12.628 -0.1897  0.3626 -0.0647
13140TIP3    H160835   4.820   3.216  12.607 -0.4197  0.1483 -0.8235
13140TIP3    H260836   4.709   3.185  12.704  0.0867 -0.1185 -0.3300
13141TIP3   OH260837   0.049   1.166   6.191 -0.0002  0.0867 -0.6420
13141TIP3    H160838  -0.040   1.136   6.205  0.1523  0.0137  0.1553
13141TIP3    H260839   0.065   1.229   6.261  0.4871  0.2954 -0.9337
13142TIP3   OH260840   1.744   0.290   6.090 -0.1460 -0.1407  0.2776
13142TIP3    H160841   1.687   0.240   6.148  2.3428 -2.5132  0.7658
13142TIP3    H260842   1.694   0.300   6.009 -2.3613  0.3734  1.6751
13143TIP3   OH260843   2.693   2.863   1.046  0.1251 -0.2932  0.1964
13143TIP3    H160844   2.600   2.886   1.050 -0.4721 -2.1948 -1.9624
13143TIP3    H260845   2.732   2.933   0.993 -0.4015 -0.3688 -0.3067
13144TIP3   OH260846   6.318   5.814   2.682  0.2520  0.6176  0.3864
13144TIP3    H160847   6.334   5.776   2.595  0.2083 -1.4153  1.2440
13144TIP3    H260848   6.349   5.904   2.674  2.8945 -0.3557 -0.9164
13145TIP3   OH260849   5.479   1.917  15.676  0.4392 -0.5240 -0.3595
13145TIP3    H160850   5.405   1.881  15.627 -0.0912  2.0619 -1.5591
13145TIP3    H260851   5.553   1.861  15.653 -0.2814 -0.6985 -2.3584
13146TIP3   OH260852   1.519   1.167   4.216  0.4215  0.0853  0.0419
13146TIP3    H160853   1.458   1.140   4.148 -0.1377  2.1316 -0.2748
13146TIP3    H260854   1.586   1.217   4.170  0.4545  0.8181  0.8768
13147TIP3   OH260855   5.505   6.514   3.019 -0.2096  0.1776 -0.1753
13147TIP3    H160856   5.516   6.488   2.928  1.1667 -0.2566  0.1004
13147TIP3    H260857   5.579   6.573   3.037 -0.4435  0.2307  0.6592
13148TIP3   OH260858   4.347   5.795  13.808  0.0414 -0.0091  0.0976
13148TIP3    H160859   4.422   5.742  13.781 -0.4179  0.4356 -2.1711
13148TIP3    H260860   4.270   5.742  13.785 -0.4275  1.6312 -2.3562
13149TIP3   OH260861   1.716   2.045   0.642 -0.6433 -0.5838  0.0059
13149TIP3    H160862   1.728   1.991   0.565 -0.2771 -1.1101  0.4302
13149TIP3    H260863   1.781   2.115   0.634  0.2163 -1.3297  0.4513
13150TIP3   OH260864   4.702   2.738  12.195 -0.5121 -0.6112  0.0003
13150TIP3    H160865   4.768   2.680  12.233  0.7391  0.8635  0.0654
13150TIP3    H260866   4.718   2.823  12.234 -1.7555  0.0220 -0.8251
13151TIP3   OH260867   6.274   1.965   0.677 -0.4150  0.0790  0.2467
13151TIP3    H160868   6.209   1.897   0.660 -0.6517  0.1637  0.8135
13151TIP3    H260869   6.243   2.010   0.756 -2.3965  3.4788 -2.3585
13152TIP3   OH260870   6.284   1.451   1.705  0.1778  0.3710 -0.2768
13152TIP3    H160871   6.352   1.405   1.754  0.3235  0.4843 -0.3760
13152TIP3    H260872   6.207   1.394   1.713  0.3122  0.1925 -0.2560
13153TIP3   OH260873   0.514   4.267   0.635 -0.1532 -0.7584  0.4917
13153TIP3    H160874   0.592   4.321   0.648 -0.7050 -0.0262  0.8046
13153TIP3    H260875   0.536   4.184   0.676  1.1197 -1.1576 -0.9552
13154TIP3   OH260876   1.579   5.515   6.044  0.0028 -0.1342 -0.2907
13154TIP3    H160877   1.590   5.562   6.127 -2.0045 -0.1907  0.0379
13154TIP3    H260878   1.650   5.450   6.044  0.3995  0.2785  1.0898
13155TIP3   OH260879   0.670   5.242  16.324  0.6967 -0.1763 -0.3643
13155TIP3    H160880   0.588   5.195  16.338  0.8039 -0.4801 -0.7493
13155TIP3    H260881   0.723   5.222  16.401 -0.1042  1.1189  0.5451
13156TIP3   OH260882   4.796   1.100  12.556  0.4254 -0.5110 -0.3529
13156TIP3    H160883   4.862   1.164  12.528  0.2500 -0.6145 -1.0060
13156TIP3    H260884   4.749   1.144  12.626  2.1757 -0.9961  1.1866
13157TIP3   OH260885   1.176   5.778   4.309  0.0610  0.7682 -0.0142
13157TIP3    H160886   1.142   5.782   4.220  1.7759 -0.8266 -0.7683
13157TIP3    H260887   1.231   5.700   4.311  1.3753  1.6827  1.9694
13158TIP3   OH260888   5.322   1.148  11.257  0.4017  0.4373  0.4352
13158TIP3    H160889   5.262   1.106  11.319  0.3944 -0.2442 -0.0225
13158TIP3    H260890   5.307   1.242  11.268 -1.0502  0.2542  0.0165
13159TIP3   OH260891   3.287   2.828  12.270  0.1291 -0.4812  0.0395
13159TIP3    H160892   3.339   2.905  12.293  1.2817 -1.6407  1.3531
13159TIP3    H260893   3.344   2.754  12.289 -0.2623 -1.6398 -2.9814
13160TIP3   OH260894   1.095   4.547   1.979 -0.3753  0.9986  0.8415
13160TIP3    H160895   1.031   4.590   2.036  0.0488  0.5295  1.6897
13160TIP3    H260896   1.157   4.616   1.957 -0.9943  1.3765  0.2831
13161TIP3   OH260897   1.823   1.940  14.337 -0.1131  0.3510 -0.4167
13161TIP3    H160898   1.894   2.003  14.348 -0.2454  0.4257 -0.0114
13161TIP3    H260899   1.814   1.897  14.422 -1.6762  1.5205  0.0209
13162TIP3   OH260900   6.258   3.170  11.805  0.2509 -0.1579  0.3698
13162TIP3    H160901   6.344   3.175  11.848  0.3740 -1.1113  0.2452
13162TIP3    H260902   6.244   3.076  11.791 -1.6367 -0.1358  2.0198
13163TIP3   OH260903   2.412   5.006   3.922  0.0657 -0.3253  0.0732
13163TIP3    H160904   2.347   4.972   3.984 -1.6932  2.0860 -0.3482
13163TIP3    H260905   2.412   4.942   3.850 -2.4886 -0.0012 -0.2867
13164TIP3   OH260906   3.896   1.609  10.991  0.3408 -0.6965  0.0191
13164TIP3    H160907   3.975   1.555  10.996  0.2454 -0.8012  0.4002
13164TIP3    H260908   3.836   1.570  11.053  0.8413  0.7742  1.4823
13165TIP3   OH260909   2.036   5.023   2.203 -0.4228  0.1232  0.1184
13165TIP3    H160910   2.089   4.993   2.277 -2.2748 -0.5098  1.2568
13165TIP3    H260911   2.047   4.955   2.136 -1.3898 -1.0663  1.1356
13166TIP3   OH260912   3.616   3.099  12.792 -0.5715 -0.0918 -0.2823
13166TIP3    H160913   3.550   3.031  12.779 -0.0761 -0.7321  0.4507
13166TIP3    H260914   3.686   3.055  12.840  0.1165  0.7362 -0.5122
13167TIP3   OH260915   0.527   5.720  16.177 -0.0698 -0.1864  0.0056
13167TIP3    H160916   0.551   5.734  16.085 -1.2616 -1.4761 -0.5155
13167TIP3    H260917   0.580   5.644  16.204 -1.3101 -1.1577 -0.2631
13168TIP3   OH260918   4.984   0.129   2.325  0.3216 -0.5314 -0.1564
13168TIP3    H160919   4.951   0.179   2.251 -0.5058  0.1330  0.6577
13168TIP3    H260920   4.950   0.174   2.402  2.2112 -0.4664  0.6802
13169TIP3   OH260921   2.599   2.876  13.587  0.1178 -0.2871 -0.1669
13169TIP3    H160922   2.656   2.925  13.647  0.7805 -0.0405 -0.9701
13169TIP3    H260923   2.532   2.939  13.561 -0.8369 -0.7248  1.1714
13170TIP3   OH260924   6.126   2.392  10.995 -0.1039 -0.0737 -0.3836
13170TIP3    H160925   6.166   2.338  10.927  1.3364  2.0845 -1.3214
13170TIP3    H260926   6.080   2.461  10.946  0.5374  1.2251  0.8141
13171TIP3   OH260927   4.727   0.551  12.657  0.0096  0.2138 -0.7758
13171TIP3    H160928   4.656   0.565  12.594  0.5861 -0.2436 -1.5420
13171TIP3    H260929   4.806   0.552  12.604  0.4934 -0.3423 -0.0782
13172TIP3   OH260930   2.398   4.429  13.543  0.6233 -0.5691  0.0117
13172TIP3    H160931   2.344   4.368  13.593  1.7493 -1.7754 -0.2256
13172TIP3    H260932   2.335   4.477  13.489 -0.4427 -0.3036  1.4505
13173TIP3   OH260933   5.178   2.842  14.770 -0.0106 -0.1299  0.1116
13173TIP3    H160934   5.124   2.799  14.705 -0.6314  1.4005 -0.3952
13173TIP3    H260935   5.256   2.787  14.776 -1.4681 -2.1867  0.6451
13174TIP3   OH260936   6.600   1.528   2.047 -0.7194  0.0852 -0.1899
13174TIP3    H160937   6.643   1.606   2.011 -1.3817  0.2646 -0.6081
13174TIP3    H260938   6.657   1.500   2.119 -1.0688  1.6198  0.7094
13175TIP3   OH260939   2.330   3.247  15.534 -0.3343 -0.2693  0.4099
13175TIP3    H160940   2.360   3.262  15.444 -1.0001 -1.5479 -0.0257
13175TIP3    H260941   2.411   3.231  15.584  0.4288  4.1488  0.8312
13176TIP3   OH260942   4.009   6.405  11.001 -0.3018  0.3614 -0.3437
13176TIP3    H160943   3.950   6.336  11.032  0.3194  0.9310  2.2239
13176TIP3    H260944   4.085   6.358  10.967 -0.0457 -0.2789  1.0503
13177TIP3   OH260945   5.345   3.596  16.375 -0.1180  0.2232 -0.2142
13177TIP3    H160946   5.271   3.578  16.433 -0.7871  1.6698 -0.5832
13177TIP3    H260947   5.408   3.526  16.393 -1.7266 -1.2429 -0.1574
13178TIP3   OH260948   5.751   6.456  16.515 -0.1251  0.0987  0.4892
13178TIP3    H160949   5.840   6.477  16.543 -0.5122  1.3070  0.8914
13178TIP3    H260950   5.744   6.494  16.428 -0.3893  0.4293  0.6495
13179TIP3   OH260951   1.867   5.887   2.939 -0.1120  0.0014 -0.2830
13179TIP3    H160952   1.929   5.958   2.924  0.6760 -0.3043  1.4671
13179TIP3    H260953   1.792   5.930   2.981  0.5491 -0.2574  1.1848
13180TIP3   OH260954   3.074   0.636  16.709  0.1606  0.3195 -0.0308
13180TIP3    H160955   3.071   0.547  16.745  1.6312  0.6448  0.9303
13180TIP3    H260956   3.003   0.638  16.644 -0.5095 -1.2441  0.6305
13181TIP3   OH260957   3.896   3.549   3.598 -0.1487 -0.1700 -0.1323
13181TIP3    H160958   3.841   3.501   3.660 -0.4589  0.5656  0.1583
13181TIP3    H260959   3.873   3.641   3.610 -0.3963 -0.0338 -1.5053
13182TIP3   OH260960   4.171   4.031   5.822 -0.1925  0.3560 -0.1139
13182TIP3    H160961   4.166   3.938   5.842 -0.5083  0.1906 -0.9797
13182TIP3    H260962   4.113   4.072   5.887 -0.9599 -0.1598 -0.4687
13183TIP3   OH260963   5.135   0.718  15.064 -0.0828 -0.5846 -0.4113
13183TIP3    H160964   5.142   0.788  14.999 -2.1412 -0.2643 -0.3236
13183TIP3    H260965   5.115   0.764  15.146 -0.0757 -1.1926 -0.0671
13184TIP3   OH260966   3.648   1.868  13.211 -0.3427 -0.3802  0.0859
13184TIP3    H160967   3.557   1.896  13.216 -0.6459 -1.4727  0.9697
13184TIP3    H260968   3.680   1.875  13.301  0.6752  0.6910 -0.3331
13185TIP3   OH260969   5.612   0.143  15.036 -0.6211  0.3704 -0.1053
13185TIP3    H160970   5.614   0.052  15.007 -0.1185  0.4562 -0.3497
13185TIP3    H260971   5.605   0.193  14.955  1.1234  0.6263 -0.1075
13186TIP3   OH260972   6.306   3.301   6.966 -0.2963 -0.4028  0.4723
13186TIP3    H160973   6.252   3.335   6.894  1.7195  0.5474 -0.6106
13186TIP3    H260974   6.346   3.378   7.006 -0.1798 -1.0520  1.6440
13187TIP3   OH260975   4.406   3.158  16.392 -0.0291  0.1185 -0.4047
13187TIP3    H160976   4.453   3.178  16.472 -0.7743  1.1112 -0.2002
13187TIP3    H260977   4.461   3.194  16.322  0.6906 -0.8813 -0.3497
13188TIP3   OH260978   3.468   0.559  16.563 -0.0785 -0.0745  0.0365
13188TIP3    H160979   3.411   0.637  16.564  1.6348  1.2760 -1.8480
13188TIP3    H260980   3.448   0.517  16.479  0.6157 -0.4094  0.0368
13189TIP3   OH260981   3.817   5.400  11.862 -0.6846  0.0594  0.6790
13189TIP3    H160982   3.819   5.463  11.790 -2.2463  1.2136  1.6196
13189TIP3    H260983   3.736   5.351  11.849 -1.1631  0.5259  1.8495
13190TIP3   OH260984   5.911   6.763  13.717  0.1647 -0.4292 -0.1049
13190TIP3    H160985   6.000   6.797  13.706  0.2036 -0.1054  1.1185
13190TIP3    H260986   5.913   6.721  13.804 -0.8188 -0.5950 -0.1651
13191TIP3   OH260987   0.328   6.143  14.221 -0.6077  0.2865 -0.2146
13191TIP3    H160988   0.235   6.163  14.216 -0.8352 -0.8009 -0.5001
13191TIP3    H260989   0.345   6.086  14.146  0.6731  1.9133 -1.1886
13192TIP3   OH260990   6.671   6.290  10.543 -0.6242  0.0592 -0.6237
13192TIP3    H160991   6.579   6.263  10.546 -0.0552 -1.8631 -0.1993
13192TIP3    H260992   6.717   6.215  10.507  1.2579 -0.3144  2.4233
13193TIP3   OH260993   6.191   4.205  16.742  0.0083 -0.5326 -0.7355
13193TIP3    H160994   6.267   4.216  16.799  0.2134  1.4203 -1.3543
13193TIP3    H260995   6.150   4.124  16.772  1.8707 -1.1831  0.1333
13194TIP3   OH260996   0.568   1.266   1.880  0.1054  0.2077  0.0204
13194TIP3    H160997   0.606   1.313   1.954  0.3439  1.1504 -0.6998
13194TIP3    H260998   0.475   1.286   1.883 -0.1276 -0.9335  0.9215
13195TIP3   OH260999   4.445   1.160   0.434 -0.3585 -0.2437 -0.2652
13195TIP3    H161000   4.530   1.160   0.478 -0.4770  0.4462 -0.0368
13195TIP3    H261001   4.466   1.159   0.340 -0.0988  0.0857 -0.2107
13196TIP3   OH261002   1.430   5.823  14.864 -0.3268  0.2251  0.2977
13196TIP3    H161003   1.362   5.881  14.898 -0.3760  0.2560  0.1432
13196TIP3    H261004   1.429   5.748  14.925 -1.7104 -0.6028 -0.7126
13197TIP3   OH261005   6.220   2.351  15.400  0.9026  0.3441  0.3968
13197TIP3    H161006   6.251   2.411  15.468 -0.8272  0.3361  1.2281
13197TIP3    H261007   6.130   2.377  15.384  0.9812 -0.2875 -1.2160
13198TIP3   OH261008   4.485   0.634  13.156 -0.5052  0.3017 -0.6401
13198TIP3    H161009   4.558   0.673  13.204 -0.2804  0.8400 -1.4077
13198TIP3    H261010   4.527   0.568  13.099 -0.7644 -0.3075 -0.1286
13199TIP3   OH261011   3.107   2.142  14.161 -0.1696 -0.1041 -0.0905
13199TIP3    H161012   3.146   2.126  14.075 -0.1317 -2.4622  0.3404
13199TIP3    H261013   3.056   2.064  14.179 -1.7873  1.2205  1.1804
13200TIP3   OH261014   3.444   1.410   3.835  0.2227 -0.7132  0.1242
13200TIP3    H161015   3.529   1.371   3.853 -0.2507 -1.7996  0.0244
13200TIP3    H261016   3.398   1.408   3.919 -0.0274 -0.9322 -0.0168
13201TIP3   OH261017   1.129   1.350   3.863  0.4296 -0.4314 -0.0796
13201TIP3    H161018   1.187   1.285   3.823  1.8153  1.1750 -0.7636
13201TIP3    H261019   1.189   1.413   3.903 -0.7385  2.3144 -2.4540
13202TIP3   OH261020   2.503   1.074   2.083 -0.2244 -0.1204  0.1651
13202TIP3    H161021   2.409   1.058   2.087 -0.7303  1.9231 -2.2431
13202TIP3    H261022   2.527   1.057   1.991  1.3987  1.1510  0.3261
13203TIP3   OH261023   5.009   4.551  16.777  0.1701 -0.1120 -0.3910
13203TIP3    H161024   5.090   4.516  16.739 -0.7502 -1.5081 -1.1155
13203TIP3    H261025   4.954   4.571  16.702 -0.5579 -0.1455  0.1295
13204TIP3   OH261026   4.352   6.503   3.548  0.0978  0.5243 -0.0121
13204TIP3    H161027   4.370   6.542   3.633  2.8141 -0.1003 -0.2654
13204TIP3    H261028   4.326   6.578   3.493 -3.8815  0.6352  1.8648
13205TIP3   OH261029   2.821   2.083   2.220 -0.1357 -0.6292  0.1303
13205TIP3    H161030   2.787   2.017   2.280 -1.7051 -1.1999 -1.3508
13205TIP3    H261031   2.758   2.155   2.226  0.0617 -0.4138 -0.3419
13206TIP3   OH261032   0.696   4.387  13.937 -0.0085 -0.0735 -0.0616
13206TIP3    H161033   0.677   4.481  13.937 -1.8221 -0.4343  1.5459
13206TIP3    H261034   0.657   4.354  14.017  1.2460 -2.0977 -0.2555
13207TIP3   OH261035   3.471   3.134   4.340  0.0734  0.2634  0.0875
13207TIP3    H161036   3.418   3.197   4.291 -1.0444  1.7058  3.0082
13207TIP3    H261037   3.505   3.184   4.414  0.7171 -2.0941  1.4299
13208TIP3   OH261038   5.281   6.184   4.603  0.7023 -0.0229  0.3818
13208TIP3    H161039   5.211   6.191   4.669  0.5121 -0.5758  0.2409
13208TIP3    H261040   5.361   6.206   4.651  0.4380  0.5973  0.5503
13209TIP3   OH261041   4.670   2.082  14.382  0.5994 -0.1001 -0.8957
13209TIP3    H161042   4.623   2.156  14.421 -0.1481 -0.8105 -0.4140
13209TIP3    H261043   4.692   2.111  14.294 -0.6242  0.3051 -1.0767
13210TIP3   OH261044   4.049   4.749  10.981 -0.4504 -0.7570  0.5839
13210TIP3    H161045   4.104   4.766  11.057 -0.6169 -1.3993  0.8495
13210TIP3    H261046   4.010   4.834  10.959  0.8488 -0.2497  0.2332
13211TIP3   OH261047   5.622   1.721  15.268 -0.0803  0.2122 -0.2713
13211TIP3    H161048   5.643   1.679  15.184 -2.1063  0.0374 -0.7172
13211TIP3    H261049   5.673   1.802  15.267  2.1554 -1.1278 -0.3844
13212TIP3   OH261050   3.212   2.345  14.306 -0.2613 -0.1594  0.1097
13212TIP3    H161051   3.194   2.258  14.272 -0.3257  0.0560 -0.4215
13212TIP3    H261052   3.128   2.375  14.341 -0.3812 -0.0788 -0.2437
13213TIP3   OH261053   4.496   3.432   0.643  0.0250  0.1045  0.7496
13213TIP3    H161054   4.466   3.429   0.733 -0.4006 -1.6406  0.5667
13213TIP3    H261055   4.490   3.341   0.612  0.4377  0.6246 -0.9374
13214TIP3   OH261056   6.119   1.883   2.440 -0.4696 -0.2842 -0.4528
13214TIP3    H161057   6.061   1.879   2.516 -0.0375  0.5698 -0.0666
13214TIP3    H261058   6.115   1.975   2.412  0.0523 -0.4067 -0.9352
13215TIP3   OH261059   1.460   5.002  16.364  0.3426  0.0397 -0.1402
13215TIP3    H161060   1.474   5.060  16.439 -3.3902 -0.6361  1.1776
13215TIP3    H261061   1.453   5.060  16.289  1.2636  0.9369  0.4582
13216TIP3   OH261062   1.543   3.114   4.636  0.3301  0.3787  0.0388
13216TIP3    H161063   1.519   3.204   4.654  1.1085  0.8664 -1.2708
13216TIP3    H261064   1.579   3.082   4.718  1.7882  1.8650  0.0142
13217TIP3   OH261065   0.463   1.617  17.107  0.3840  0.5665 -0.7676
13217TIP3    H161066   0.407   1.598  17.031 -1.4808 -0.5883  0.8312
13217TIP3    H261067   0.541   1.563  17.093 -0.6138 -0.8239 -1.1289
13218TIP3   OH261068   4.048   6.181   0.106 -0.2550  0.2374 -0.4701
13218TIP3    H161069   4.100   6.169   0.027 -0.7185 -0.1140 -0.7255
13218TIP3    H261070   3.959   6.159   0.080  0.0018 -2.5838  0.8262
13219TIP3   OH261071   1.533   1.112   0.711 -0.0494  0.2429  0.3460
13219TIP3    H161072   1.624   1.093   0.687 -0.5330  0.6890 -1.8786
13219TIP3    H261073   1.504   1.033   0.756  0.4668 -1.1767 -1.7523
13220TIP3   OH261074   3.569   3.791   4.647 -0.2124  0.4476  0.0260
13220TIP3    H161075   3.619   3.850   4.591 -0.3274  1.4931  1.0062
13220TIP3    H261076   3.542   3.845   4.721 -2.0183 -0.3319 -0.0290
13221TIP3   OH261077   3.461   2.984   1.074 -0.1478 -0.0578 -0.5060
13221TIP3    H161078   3.388   2.939   1.116  0.6814 -1.8066 -0.9094
13221TIP3    H261079   3.469   2.942   0.988  1.0443  0.4160 -0.6395
13222TIP3   OH261080   1.316   1.638   5.215 -0.6026 -0.2131 -0.9792
13222TIP3    H161081   1.255   1.565   5.214 -0.3256 -0.6019  2.5836
13222TIP3    H261082   1.313   1.670   5.306  0.5252  3.1220 -2.0487
13223TIP3   OH261083   0.931   5.193  11.554 -0.2979 -0.1509  0.3566
13223TIP3    H161084   1.003   5.144  11.596 -0.0429 -0.5473 -0.5250
13223TIP3    H261085   0.853   5.142  11.575 -0.0184 -1.0332 -0.6625
13224TIP3   OH261086   0.223   5.951   5.187  0.2662 -0.1367  0.8049
13224TIP3    H161087   0.250   5.929   5.098 -0.8524 -0.4751  0.5485
13224TIP3    H261088   0.291   6.010   5.219 -0.4548  1.7071 -1.0177
13225TIP3   OH261089   1.605   6.388   3.357 -0.2488  0.0739 -0.1051
13225TIP3    H161090   1.672   6.439   3.402  0.8468 -0.2021 -1.3989
13225TIP3    H261091   1.535   6.377   3.422  0.2651  1.7046  0.7523
13226TIP3   OH261092   2.628   2.091  15.166  0.0047 -0.4243  0.1865
13226TIP3    H161093   2.575   2.025  15.121  1.1618 -2.1198  1.2375
13226TIP3    H261094   2.568   2.130  15.230 -0.5937 -0.6614 -0.2220
13227TIP3   OH261095   3.277   1.945  15.006 -0.6447  0.4845 -0.0221
13227TIP3    H161096   3.232   1.890  15.070  1.3885 -2.1158 -0.7750
13227TIP3    H261097   3.359   1.970  15.049 -0.8042  1.5508 -0.3216
13228TIP3   OH261098   5.275   2.955  16.260  0.4331 -0.0354 -0.2697
13228TIP3    H161099   5.203   2.975  16.200  0.8947  0.6735 -0.5867
13228TIP3    H261100   5.295   2.863  16.243 -0.6088 -0.3271  0.0488
13229TIP3   OH261101   2.729   4.459  10.759  0.7333 -0.1730  0.1792
13229TIP3    H161102   2.814   4.480  10.798 -0.1391  0.3866  1.8132
13229TIP3    H261103   2.681   4.542  10.761 -1.1728 -1.2915  2.6283
13230TIP3   OH261104   0.705   5.305  13.477 -0.0588 -0.4653 -0.3155
13230TIP3    H161105   0.689   5.221  13.434  0.7426 -0.5366 -0.4818
13230TIP3    H261106   0.774   5.346  13.425  0.6402 -0.3802  0.6628
13231TIP3   OH261107   0.420   6.123   5.228  0.0029 -0.2049 -0.3768
13231TIP3    H161108   0.471   6.110   5.149  0.3989 -0.8589 -0.0198
13231TIP3    H261109   0.478   6.098   5.299 -0.7575 -0.8081  0.0435
13232TIP3   OH261110   4.368   1.952  15.460  0.7823  0.1051  0.4453
13232TIP3    H161111   4.443   1.993  15.504  0.2333  2.7248 -0.9792
13232TIP3    H261112   4.382   1.970  15.367  0.7302 -3.3702 -0.3060
13233TIP3   OH261113   3.808   4.289   3.858 -0.2642  0.3586 -0.0632
13233TIP3    H161114   3.716   4.317   3.859 -0.1013  0.8733  0.5179
13233TIP3    H261115   3.808   4.209   3.912 -0.5756 -0.2985 -1.0222
13234TIP3   OH261116   5.183   0.063  10.573 -0.0752 -0.0115  0.5337
13234TIP3    H161117   5.182  -0.023  10.615 -2.0389 -0.4071 -0.2464
13234TIP3    H261118   5.125   0.054  10.497 -0.1717  1.9344  0.3302
13235TIP3   OH261119   6.091   1.022   4.219  0.1896  0.2696  0.4224
13235TIP3    H161120   6.141   1.065   4.289  1.6388 -0.4155 -0.1577
13235TIP3    H261121   6.080   1.089   4.152  2.8244 -0.3253 -0.6710
13236TIP3   OH261122   0.252   5.505   3.668 -0.2654  0.1845  0.1568
13236TIP3    H161123   0.341   5.522   3.699 -0.3340  0.8898 -0.0256
13236TIP3    H261124   0.263   5.490   3.574 -0.3406  0.2751  0.1342
13237TIP3   OH261125   1.218   1.277  15.797 -0.1412 -0.0676 -0.6800
13237TIP3    H161126   1.210   1.184  15.815 -2.8021  0.3306  0.5326
13237TIP3    H261127   1.185   1.288  15.708 -0.4023 -0.2238 -0.6040
13238TIP3   OH261128   5.542   6.249  12.430 -0.1725 -0.2795  0.5015
13238TIP3    H161129   5.517   6.253  12.522  0.7577 -3.0739  0.9402
13238TIP3    H261130   5.605   6.177  12.426  1.8769  1.5474 -1.8565
13239TIP3   OH261131   5.680   6.563  15.200  0.4083 -0.8814 -0.1026
13239TIP3    H161132   5.702   6.590  15.289  2.3833  0.3560 -0.9383
13239TIP3    H261133   5.587   6.541  15.205  0.4971 -0.9247  2.2806
13240TIP3   OH261134   1.679   1.313  12.973 -0.2482 -0.0034  0.0649
13240TIP3    H161135   1.676   1.392  12.918  0.0123  0.8756  1.2788
13240TIP3    H261136   1.599   1.265  12.950 -0.8762  1.0601 -0.0425
13241TIP3   OH261137   5.401   6.325   1.820 -0.2172  0.0729  0.2657
13241TIP3    H161138   5.419   6.258   1.886  0.0058 -0.4783 -0.3483
13241TIP3    H261139   5.487   6.344   1.782 -0.4519 -0.1171 -0.3521
13242TIP3   OH261140   2.778   3.653  15.592 -0.0721 -0.1764  0.1443
13242TIP3    H161141   2.739   3.694  15.515  1.4259  0.7979 -0.1292
13242TIP3    H261142   2.872   3.651  15.573  0.2038 -0.8967  1.4960
13243TIP3   OH261143   0.086   0.982   4.745 -0.1826  0.1975  0.2834
13243TIP3    H161144   0.012   1.028   4.704  0.5395  0.2307 -1.0054
13243TIP3    H261145   0.059   0.890   4.746 -0.4292  0.2670  0.2311
13244TIP3   OH261146   3.666   3.764   1.120  0.0106 -0.1797  0.0575
13244TIP3    H161147   3.658   3.721   1.035  2.7382  0.3771 -0.5160
13244TIP3    H261148   3.613   3.710   1.179  0.1779 -2.0426 -1.4456
13245TIP3   OH261149   0.855   0.371  14.847  0.3107 -0.0356  0.1443
13245TIP3    H161150   0.769   0.348  14.811 -0.3282  0.0665  1.5803
13245TIP3    H261151   0.848   0.465  14.866  0.0843 -0.4322  2.0513
13246TIP3   OH261152   0.114   4.354   4.156  0.2139  0.2012 -0.0471
13246TIP3    H161153   0.124   4.301   4.236  0.5171  2.1114  1.2210
13246TIP3    H261154   0.032   4.401   4.169 -0.6850 -0.8905 -1.7284
13247TIP3   OH261155   4.883   2.332  13.283 -0.0910  0.0193 -0.1589
13247TIP3    H161156   4.854   2.423  13.275 -0.2140 -0.0853 -1.0369
13247TIP3    H261157   4.887   2.315  13.377 -1.7622  0.3987 -0.0061
13248TIP3   OH261158   3.325   2.119  10.642  0.1744  0.3086  0.0286
13248TIP3    H161159   3.291   2.044  10.691 -0.0661  0.5695  0.2614
13248TIP3    H261160   3.395   2.154  10.697  0.3303  0.2178 -0.1110
13249TIP3   OH261161   1.504   3.446   3.786 -0.1220  0.0943  0.0832
13249TIP3    H161162   1.531   3.536   3.804 -0.6171  0.4280 -0.7973
13249TIP3    H261163   1.487   3.408   3.872  1.4633  0.4080  0.5408
13250TIP3   OH261164   6.357   4.244   0.660  0.2450  0.5812 -0.1053
13250TIP3    H161165   6.371   4.312   0.594 -0.0537 -0.4722 -1.2832
13250TIP3    H261166   6.422   4.176   0.638  0.0730  0.1844  0.6226
13251TIP3   OH261167   3.554   3.907   0.721 -0.3258 -0.0016  0.0806
13251TIP3    H161168   3.517   3.930   0.806  1.3914  1.9718  0.3141
13251TIP3    H261169   3.594   3.821   0.736 -2.7246 -1.1181  0.4102
13252TIP3   OH261170   1.838   4.857  13.557 -0.0780  0.3682  0.7019
13252TIP3    H161171   1.856   4.941  13.601  0.7882  0.9158 -0.6649
13252TIP3    H261172   1.748   4.836  13.581 -0.2052  1.5580  1.2878
13253TIP3   OH261173   3.427   1.058  12.848 -0.2079  0.5764  0.1668
13253TIP3    H161174   3.514   1.089  12.820 -0.1122 -0.8066 -1.1091
13253TIP3    H261175   3.433   1.054  12.943  0.7592  1.5953  0.1667
13254TIP3   OH261176   5.153   0.025  13.397  0.0248  0.2024 -0.1141
13254TIP3    H161177   5.116   0.102  13.441  0.2776  0.2673 -0.0108
13254TIP3    H261178   5.149   0.046  13.304  1.2218  0.8634 -0.0360
13255TIP3   OH261179   5.350   3.795  12.746 -0.2157  0.0808 -0.4246
13255TIP3    H161180   5.413   3.787  12.817  0.1789  0.8928 -0.6791
13255TIP3    H261181   5.265   3.786  12.789  0.0071  0.9801  0.2122
13256TIP3   OH261182   2.654   6.485   3.224 -0.3021 -0.2278 -0.1289
13256TIP3    H161183   2.579   6.439   3.262  0.4814 -3.0129 -1.8882
13256TIP3    H261184   2.655   6.458   3.132  1.9656  0.9733 -0.4781
13257TIP3   OH261185   5.139   6.768  14.489  0.6860 -0.4963  0.2849
13257TIP3    H161186   5.214   6.785  14.433 -0.5860  0.4667 -1.1857
13257TIP3    H261187   5.171   6.781  14.578  3.0415 -3.1714 -0.1075
13258TIP3   OH261188   2.272   5.767   3.625 -0.0639  0.2255 -0.0728
13258TIP3    H161189   2.288   5.742   3.717  3.1327 -1.6050 -1.0469
13258TIP3    H261190   2.192   5.720   3.602 -0.0946 -0.4657  1.3458
13259TIP3   OH261191   3.047   4.550   0.926 -0.0674  0.2625  0.3126
13259TIP3    H161192   2.966   4.574   0.971 -0.5495 -1.0739  0.1680
13259TIP3    H261193   3.117   4.586   0.981 -0.7382  1.1811  0.5801
13260TIP3   OH261194   2.615   6.387   1.018  0.2627 -0.0192 -0.5826
13260TIP3    H161195   2.556   6.460   1.002  1.9917  1.4019 -0.6196
13260TIP3    H261196   2.561   6.322   1.063 -1.3468  1.1837 -0.7203
13261TIP3   OH261197   2.613   5.680   1.490  0.6658 -1.2104 -0.5858
13261TIP3    H161198   2.592   5.595   1.452  1.6183 -1.5474 -0.3568
13261TIP3    H261199   2.622   5.738   1.415  0.8208 -1.4923 -0.7852
13262TIP3   OH261200   3.117   2.306   4.606  0.1237  0.2270  0.1140
13262TIP3    H161201   3.128   2.399   4.627 -0.2215  0.2317  0.2856
13262TIP3    H261202   3.032   2.284   4.644 -0.4998  0.2317 -1.2587
13263TIP3   OH261203   2.870   0.376  14.984 -0.1727  0.9575  0.6625
13263TIP3    H161204   2.859   0.455  15.036  1.1675 -0.0437  2.5136
13263TIP3    H261205   2.936   0.399  14.919  1.0423  1.0213  1.9139
13264TIP3   OH261206   0.923   3.974  14.773  0.7178  0.1066  0.3531
13264TIP3    H161207   0.858   3.945  14.838  0.7768  0.9367  0.7892
13264TIP3    H261208   0.873   3.991  14.694  0.3357  1.1905  0.8272
13265TIP3   OH261209   3.112   5.168  10.898 -0.6105 -0.2709 -0.4519
13265TIP3    H161210   3.017   5.168  10.909 -0.3718 -1.6205  1.8791
13265TIP3    H261211   3.133   5.078  10.870 -0.0391  0.1252 -1.3383
13266TIP3   OH261212   2.935   4.384  12.479  0.3685 -0.3763  0.0169
13266TIP3    H161213   2.863   4.432  12.520  1.7806  1.8413 -0.0154
13266TIP3    H261214   2.980   4.342  12.552  0.9807  0.9392  0.4090
13267TIP3   OH261215   5.160   0.160  14.930 -0.1329  0.0179 -0.0529
13267TIP3    H161216   5.085   0.106  14.957 -1.7667  2.0786 -0.3615
13267TIP3    H261217   5.195   0.195  15.012  0.5715 -1.0188  0.0995
13268TIP3   OH261218   5.019   3.773   0.424  0.2997 -0.3155 -0.0445
13268TIP3    H161219   5.010   3.868   0.413 -0.0144 -0.5120 -1.5990
13268TIP3    H261220   4.938   3.737   0.389 -0.1088 -1.1042  1.6769
13269TIP3   OH261221   2.053   2.436  15.287 -0.0845  0.2343  0.1877
13269TIP3    H161222   2.067   2.530  15.276 -1.3044  0.5291  0.9935
13269TIP3    H261223   2.117   2.410  15.353  0.0183  0.5750  0.2232
13270TIP3   OH261224   0.671   4.745  14.590  0.0307  0.0519 -0.0037
13270TIP3    H161225   0.577   4.762  14.597  0.0437 -0.1122  0.6144
13270TIP3    H261226   0.710   4.802  14.656  0.2787 -0.5932  0.4092
13271TIP3   OH261227   1.399   0.227  12.884  0.1746  0.2803 -0.7348
13271TIP3    H161228   1.394   0.269  12.799  2.8226 -0.9300 -1.5381
13271TIP3    H261229   1.422   0.136  12.865  0.1273 -0.1750  1.2162
13272TIP3   OH261230   6.164   4.735   0.216  0.0711  0.2045 -0.0536
13272TIP3    H161231   6.147   4.725   0.310  1.6202 -0.0569  0.2133
13272TIP3    H261232   6.077   4.742   0.177 -0.6199 -0.3038  1.3347
13273TIP3   OH261233   0.566   5.684  17.112  0.0773 -0.1308 -0.4723
13273TIP3    H161234   0.520   5.617  17.061 -1.1646  1.1193 -1.0294
13273TIP3    H261235   0.565   5.650  17.202 -3.3368  0.5337 -0.1842
13274TIP3   OH261236   1.435   4.408  15.090  0.2098  0.2024 -0.1246
13274TIP3    H161237   1.376   4.481  15.106 -1.2470 -0.8120 -0.7557
13274TIP3    H261238   1.378   4.336  15.064  1.4315 -1.7262  2.3082
13275TIP3   OH261239   0.378   0.617  15.433  0.6347  0.4503 -0.3950
13275TIP3    H161240   0.330   0.696  15.454  1.3877  0.6242  0.7268
13275TIP3    H261241   0.441   0.607  15.505  0.7083 -1.0266 -0.6478
13276TIP3   OH261242   1.977   5.028   1.106 -0.4285  0.4499  0.1590
13276TIP3    H161243   2.000   4.963   1.172  2.0909 -0.4204 -1.4977
13276TIP3    H261244   1.931   4.978   1.038 -0.4979  0.8053 -0.0567
13277TIP3   OH261245   5.683   3.897  15.098 -0.5147 -0.0998  0.4493
13277TIP3    H161246   5.711   3.852  15.018  0.9844 -0.2326  1.0203
13277TIP3    H261247   5.653   3.827  15.156 -1.2237 -0.0442  0.1466
13278TIP3   OH261248   5.876   1.762  15.976  0.1928 -0.6091 -0.3440
13278TIP3    H161249   5.820   1.685  15.966  0.8710 -1.1429 -0.0495
13278TIP3    H261250   5.848   1.802  16.058 -0.7653 -0.0290 -0.9343
13279TIP3   OH261251   6.047   4.538  10.695 -0.2436  0.8209  0.7371
13279TIP3    H161252   5.957   4.509  10.712  0.2025  0.4981  2.7116
13279TIP3    H261253   6.087   4.466  10.648 -0.0502 -0.5276  2.8785
13280TIP3   OH261254   4.026   1.244   0.274 -0.0878 -0.6809  0.8730
13280TIP3    H161255   3.940   1.219   0.307 -0.0967 -0.7784  0.7763
13280TIP3    H261256   4.076   1.267   0.352 -0.7789  1.1888  0.7897
13281TIP3   OH261257   3.160   1.993   5.301  0.4756 -0.0210  0.4625
13281TIP3    H161258   3.244   1.977   5.344  1.6206  1.9778 -0.9449
13281TIP3    H261259   3.174   1.966   5.210 -1.1881 -2.0010  0.7650
13282TIP3   OH261260   3.542   5.484  15.626  0.1197 -0.0726 -0.1842
13282TIP3    H161261   3.567   5.576  15.624  0.2873 -0.0658  1.2648
13282TIP3    H261262   3.453   5.484  15.662 -0.8122 -0.3193 -2.4271
13283TIP3   OH261263   0.733   6.304  15.411  0.0476  0.8648 -0.4855
13283TIP3    H161264   0.741   6.323  15.504  1.2455 -1.0243 -0.1793
13283TIP3    H261265   0.728   6.390  15.369 -1.5467  1.7265  1.3847
13284TIP3   OH261266   2.959   0.489   0.660  0.1384 -0.0277 -0.5545
13284TIP3    H161267   2.879   0.493   0.607  0.2130 -0.1714 -0.6782
13284TIP3    H261268   2.943   0.416   0.720 -0.1975  0.5238  0.0297
13285TIP3   OH261269   3.226   5.057  13.031 -0.0517  0.3900 -0.4466
13285TIP3    H161270   3.254   5.019  13.113  0.9426 -0.5773 -1.2260
13285TIP3    H261271   3.142   5.015  13.012 -0.2750  0.6040  0.0482
13286TIP3   OH261272   1.840   4.537  16.673 -0.4147  0.2932  0.0857
13286TIP3    H161273   1.904   4.532  16.744 -0.8258  0.3679  0.4726
13286TIP3    H261274   1.847   4.452  16.628 -0.5877 -0.0073  0.6122
13287TIP3   OH261275   4.220   5.479   3.861  0.5976 -0.0283 -0.1408
13287TIP3    H161276   4.268   5.401   3.832 -0.5366 -0.8081  0.0409
13287TIP3    H261277   4.220   5.473   3.956 -1.0273 -0.7654 -0.1744
13288TIP3   OH261278   6.387   4.873   0.469  0.0557  0.5242 -0.2097
13288TIP3    H161279   6.316   4.926   0.506 -2.0984 -2.1285 -0.4454
13288TIP3    H261280   6.375   4.879   0.375 -1.3690 -1.8775 -0.2092
13289TIP3   OH261281   4.053   3.262  14.026  0.3705  0.1912 -0.1020
13289TIP3    H161282   4.037   3.356  14.023 -1.6928 -0.1600 -1.0974
13289TIP3    H261283   4.090   3.246  14.113 -1.8651  1.5499  1.1501
13290TIP3   OH261284   2.948   4.491  13.049  0.2405 -0.2788 -0.0101
13290TIP3    H161285   3.033   4.464  13.084  0.4349  0.1576 -0.1436
13290TIP3    H261286   2.926   4.570  13.099  0.1873 -0.0608 -0.3773
13291TIP3   OH261287   2.424   3.142  13.624 -0.2040 -0.5265  0.6941
13291TIP3    H161288   2.504   3.168  13.577  0.9404 -2.5463  1.4333
13291TIP3    H261289   2.357   3.202  13.592  1.6922  1.4759  0.3339
13292TIP3   OH261290   1.694   5.394  12.749 -0.5677 -0.2520  0.1612
13292TIP3    H161291   1.657   5.317  12.792 -1.1097 -0.0585  0.0551
13292TIP3    H261292   1.687   5.463  12.815 -0.7375 -0.1268  0.0141
13293TIP3   OH261293   1.398   0.090  16.965 -0.1414  0.5120 -0.5055
13293TIP3    H161294   1.395   0.035  17.043  0.7369  0.2343 -0.6671
13293TIP3    H261295   1.438   0.172  16.995  1.3006 -0.0240 -0.9124
13294TIP3   OH261296   3.441   0.957  12.334  0.1023 -0.0049 -0.0385
13294TIP3    H161297   3.404   0.949  12.421  1.5527 -0.5680  0.5320
13294TIP3    H261298   3.373   0.923  12.276 -0.1299 -1.4035  1.0247
13295TIP3   OH261299   5.521   5.290  12.722 -0.1976  0.1751 -0.1011
13295TIP3    H161300   5.492   5.381  12.724  1.8088  0.8418  0.1883
13295TIP3    H261301   5.511   5.263  12.631 -1.4929  0.4404 -0.0404
13296TIP3   OH261302   1.743   3.081   5.875  0.6062 -0.6803  0.7836
13296TIP3    H161303   1.760   2.989   5.856 -0.4836 -0.5658 -0.7784
13296TIP3    H261304   1.659   3.081   5.922  0.0345 -0.3835 -0.2362
13297TIP3   OH261305   2.844   4.373   6.406  0.3264  0.2154 -0.6712
13297TIP3    H161306   2.770   4.312   6.413 -0.5026  1.3369  0.4242
13297TIP3    H261307   2.874   4.385   6.496  1.8107 -0.1749 -1.1023
13298TIP3   OH261308   3.035   0.786  10.485 -0.3258 -0.0105 -0.4817
13298TIP3    H161309   3.098   0.832  10.540 -0.4916  0.4078 -0.6392
13298TIP3    H261310   3.053   0.693  10.500 -1.1465  0.0700  1.2141
13299TIP3   OH261311   3.751   1.565  12.145  0.4491  0.2855 -0.3205
13299TIP3    H161312   3.788   1.554  12.233 -0.1646 -0.2646 -0.1298
13299TIP3    H261313   3.815   1.619  12.099  0.7372  0.6560  0.4943
13300TIP3   OH261314   2.349   1.508   1.270 -0.4116 -0.0224  0.0453
13300TIP3    H161315   2.339   1.510   1.174 -0.7890  0.0501  0.0857
13300TIP3    H261316   2.429   1.559   1.286  0.1223 -0.7370 -0.2877
13301TIP3   OH261317   6.215   0.641  11.396  0.0135  0.3361 -0.0492
13301TIP3    H161318   6.157   0.571  11.368 -0.6061  0.5202  0.7589
13301TIP3    H261319   6.157   0.710  11.429  0.7053  0.1611  1.5983
13302TIP3   OH261320   0.999   2.941   2.973  0.6059  0.2659 -0.1140
13302TIP3    H161321   1.046   2.859   2.990 -1.4506 -0.7162  1.0769
13302TIP3    H261322   0.989   2.944   2.878 -0.9623 -1.8474 -0.0424
13303TIP3   OH261323   3.633   2.618  13.543  0.1716  0.3119  0.1522
13303TIP3    H161324   3.629   2.541  13.487 -0.2288  0.9106 -0.6493
13303TIP3    H261325   3.627   2.692  13.482  1.9841  0.9926  0.7762
13304TIP3   OH261326   5.978   4.107  12.921 -0.3686  0.4287 -0.1954
13304TIP3    H161327   5.891   4.141  12.938 -0.8635 -0.6828 -0.4657
13304TIP3    H261328   6.032   4.185  12.908 -1.6629  1.0998 -1.7105
13305TIP3   OH261329   1.891   6.007  16.231 -0.1275  0.4219 -0.0953
13305TIP3    H161330   1.903   5.941  16.162  4.4053 -0.2551  1.1683
13305TIP3    H261331   1.830   5.967  16.293  1.1640 -1.8366 -0.2551
13306TIP3   OH261332   0.389   3.258   3.722 -0.2658 -0.0250 -0.4168
13306TIP3    H161333   0.433   3.255   3.807 -1.2692 -0.8025  0.0850
13306TIP3    H261334   0.400   3.348   3.692  1.5905 -0.1672 -0.2642
13307TIP3   OH261335   6.518   2.890   2.415  0.4742  0.0500  0.3102
13307TIP3    H161336   6.456   2.874   2.486 -0.5756  1.5649 -0.2306
13307TIP3    H261337   6.588   2.941   2.455  0.3844  0.0318  0.4894
13308TIP3   OH261338   2.425   3.460   2.420  0.0599 -0.5877  0.1285
13308TIP3    H161339   2.422   3.453   2.324 -1.4023  1.1958  0.0041
13308TIP3    H261340   2.358   3.399   2.451  0.3821 -1.0077 -0.0139
13309TIP3   OH261341   4.939   1.488  11.326 -0.2615  0.7693 -1.2584
13309TIP3    H161342   5.013   1.444  11.369  0.2514  2.2661 -0.5733
13309TIP3    H261343   4.948   1.465  11.234 -0.2406 -0.8848 -0.8715
13310TIP3   OH261344   2.730   2.581   5.625  0.0323 -0.1575 -0.2623
13310TIP3    H161345   2.743   2.487   5.609  1.1890 -0.0224 -0.2066
13310TIP3    H261346   2.816   2.620   5.609 -0.8558  1.1462 -1.9452
13311TIP3   OH261347   6.500   4.859  12.466  0.5037 -0.4522  0.7270
13311TIP3    H161348   6.444   4.891  12.536  0.5868  1.1783  0.0735
13311TIP3    H261349   6.457   4.780  12.434 -3.0252  2.2726 -1.6567
13312TIP3   OH261350   5.982   6.481   4.758  0.1972  0.1547  0.2970
13312TIP3    H161351   5.972   6.534   4.678  0.9972  0.0428  0.1126
13312TIP3    H261352   5.924   6.406   4.744  0.9182 -0.2695 -0.5438
13313TIP3   OH261353   4.780   0.457  11.072 -0.8063  0.6985  0.6734
13313TIP3    H161354   4.842   0.517  11.114  0.6608 -0.9649  0.9536
13313TIP3    H261355   4.765   0.389  11.138 -3.2712  1.2894  0.7544
13314TIP3   OH261356   2.882   6.735   4.246 -0.3373 -0.2621 -0.1360
13314TIP3    H161357   2.907   6.801   4.182  1.5611 -1.3264 -0.5313
13314TIP3    H261358   2.902   6.652   4.203  0.2082 -1.0120  1.5260
13315TIP3   OH261359   2.603   3.889   4.265  0.4360  0.8397 -0.2106
13315TIP3    H161360   2.576   3.865   4.176  2.2430 -1.9666 -0.0519
13315TIP3    H261361   2.566   3.821   4.321  0.9360  1.4983  0.9336
13316TIP3   OH261362   4.772   5.561  13.085  1.0419 -0.1553  0.7557
13316TIP3    H161363   4.707   5.583  13.018  0.3962  1.5107  1.9011
13316TIP3    H261364   4.721   5.533  13.160  1.5762  1.8374  1.9062
13317TIP3   OH261365   1.710   2.582   0.198  0.1284  0.3432 -0.3280
13317TIP3    H161366   1.655   2.533   0.259 -0.6697  0.9504 -0.5376
13317TIP3    H261367   1.651   2.650   0.163  2.0991  3.8144  2.7102
13318TIP3   OH261368   1.463   6.673  13.453 -0.1816 -0.2287  0.5164
13318TIP3    H161369   1.557   6.661  13.445 -0.1920  0.7446 -1.2610
13318TIP3    H261370   1.440   6.629  13.534  1.6288 -1.4752  0.3708
13319TIP3   OH261371   1.194   3.796   3.154  0.1177  0.4662  0.2837
13319TIP3    H161372   1.234   3.811   3.068  1.6263 -1.2059  0.6665
13319TIP3    H261373   1.114   3.746   3.134  0.0926  0.6867 -0.1940
13320TIP3   OH261374   3.176   3.412   1.656 -0.2422  0.2420  0.0178
13320TIP3    H161375   3.247   3.469   1.684 -2.4460  2.4833  1.1877
13320TIP3    H261376   3.099   3.444   1.703 -2.5245 -0.6388 -2.9654
13321TIP3   OH261377   6.017   0.696   1.381 -1.0815 -0.0777  0.0871
13321TIP3    H161378   5.972   0.744   1.451 -0.2746 -0.0874  0.6243
13321TIP3    H261379   6.102   0.672   1.419 -0.0559  1.1522 -1.3804
13322TIP3   OH261380   2.028   6.614  14.402 -0.4110  0.2502  0.3132
13322TIP3    H161381   2.047   6.557  14.327 -0.0847  0.6817  0.0669
13322TIP3    H261382   2.018   6.553  14.475  3.2239  0.0275  0.7456
13323TIP3   OH261383   6.209   3.750  16.218  0.1173  0.2864  0.4704
13323TIP3    H161384   6.292   3.793  16.239 -0.2737  0.8515  0.8741
13323TIP3    H261385   6.155   3.819  16.180 -0.8378  0.3867  1.9586
13324TIP3   OH261386   4.581   4.964  13.262 -0.2331  0.0056 -0.1451
13324TIP3    H161387   4.574   5.028  13.333 -2.4707 -2.5601  2.0679
13324TIP3    H261388   4.671   4.932  13.268 -0.7962 -1.1716  2.4596
13325TIP3   OH261389   4.320   2.294  13.556  0.5347  0.2022 -0.6560
13325TIP3    H161390   4.329   2.201  13.536  1.9124  0.2952 -0.5106
13325TIP3    H261391   4.288   2.296  13.647 -1.5284 -0.1492 -1.3634
13326TIP3   OH261392   5.291   6.331  15.644 -0.3643 -0.4373  0.2770
13326TIP3    H161393   5.269   6.324  15.551  1.5996 -0.1457 -0.2178
13326TIP3    H261394   5.355   6.401  15.649 -0.0230 -0.8251  1.7826
13327TIP3   OH261395   5.172   0.184  10.873  0.1763  0.2196 -0.6382
13327TIP3    H161396   5.162   0.274  10.844  0.0788  0.2038 -0.6548
13327TIP3    H261397   5.167   0.132  10.793 -1.6870  0.0543 -0.4329
13328TIP3   OH261398   3.372   0.488  13.057 -0.6751 -0.2266 -0.2388
13328TIP3    H161399   3.292   0.534  13.084 -0.4469  0.5598 -0.8734
13328TIP3    H261400   3.382   0.510  12.964  0.1280 -0.5454 -0.2284
13329TIP3   OH261401   1.477   0.086   0.565 -0.2211 -0.0550 -0.2404
13329TIP3    H161402   1.452   0.068   0.656 -0.3634  0.4353 -0.1779
13329TIP3    H261403   1.457   0.006   0.518  0.7387 -0.6378  0.3430
13330TIP3   OH261404   1.717   1.770  14.534  0.1880  0.0375  0.2666
13330TIP3    H161405   1.740   1.718  14.611  1.4221 -1.3499 -1.0199
13330TIP3    H261406   1.742   1.716  14.459 -0.0476  1.7828 -1.1199
13331TIP3   OH261407   0.983   5.753   4.519  0.4127 -0.1514  0.3364
13331TIP3    H161408   0.960   5.664   4.492 -1.5939  0.9184 -1.6206
13331TIP3    H261409   1.054   5.778   4.460 -1.5220  0.8665 -1.5975
13332TIP3   OH261410   5.160   4.258  12.195  0.0373 -0.0384  0.2130
13332TIP3    H161411   5.168   4.321  12.266 -1.5737 -0.3537  0.6877
13332TIP3    H261412   5.212   4.183  12.223 -2.5225 -1.1325  2.1801
13333TIP3   OH261413   0.240   4.439   5.389 -0.0262  0.0234  0.0371
13333TIP3    H161414   0.180   4.367   5.408 -0.2382  0.2122  0.0762
13333TIP3    H261415   0.237   4.450   5.294 -0.6074  0.5176  0.1096
13334TIP3   OH261416   6.242   3.455  13.539  0.5683  0.6066 -0.4573
13334TIP3    H161417   6.210   3.438  13.451  1.6093  2.8722 -1.3246
13334TIP3    H261418   6.170   3.499  13.583 -0.6551 -2.2589  0.4789
13335TIP3   OH261419   3.043   1.003  14.533 -0.3610 -0.4800  0.9051
13335TIP3    H161420   3.098   1.044  14.599  2.4003 -0.4616 -1.2864
13335TIP3    H261421   2.978   1.070  14.511 -0.1623  0.1764  2.2862
13336TIP3   OH261422   3.044   2.537   2.483  0.0158  0.3837 -0.1481
13336TIP3    H161423   2.972   2.538   2.546 -1.3621  0.0241 -1.7006
13336TIP3    H261424   3.010   2.488   2.408  1.6111  0.8710 -1.2127
13337TIP3   OH261425   2.557   6.364  13.516 -0.1965 -0.3478  0.5942
13337TIP3    H161426   2.503   6.327  13.586 -0.0236 -1.4074  0.1762
13337TIP3    H261427   2.645   6.330  13.534 -0.1145 -0.4724 -0.0246
13338TIP3   OH261428   2.505   2.189  16.441  0.4922 -0.1197  0.4829
13338TIP3    H161429   2.532   2.258  16.379 -2.9838  0.0388 -0.9606
13338TIP3    H261430   2.521   2.107  16.393 -0.0397 -0.0915  0.2525
13339TIP3   OH261431   5.195   1.266  11.018  0.1787 -0.7985 -0.2415
13339TIP3    H161432   5.222   1.227  11.101  2.3386 -1.0592 -1.0444
13339TIP3    H261433   5.116   1.217  10.994 -1.8617  0.8395  2.7596
13340TIP3   OH261434   2.711   2.162  14.657  0.4113 -0.0805  0.6513
13340TIP3    H161435   2.663   2.137  14.736 -0.4204 -0.2560  0.0846
13340TIP3    H261436   2.650   2.217  14.608  0.8719 -0.1121  0.0434
13341TIP3   OH261437   2.860   2.557   6.781 -0.3854  0.1020  0.3991
13341TIP3    H161438   2.908   2.611   6.718  1.2001 -0.4778  1.0731
13341TIP3    H261439   2.906   2.569   6.864 -1.2927 -0.6249  1.0236
13342TIP3   OH261440   3.615   6.331  12.584 -0.0826  0.3093 -0.3368
13342TIP3    H161441   3.540   6.337  12.525 -0.5582 -1.5307  0.0544
13342TIP3    H261442   3.580   6.354  12.670 -0.2945 -0.8323 -0.1027
13343TIP3   OH261443   4.877   5.635   1.148  0.4335 -0.0350 -0.3848
13343TIP3    H161444   4.818   5.625   1.223 -0.2286  0.5610 -0.8098
13343TIP3    H261445   4.893   5.546   1.118  1.0517 -0.3109  0.7226
13344TIP3   OH261446   5.639   6.742   3.101  0.1956  0.4745  0.0170
13344TIP3    H161447   5.590   6.821   3.077  1.3191  1.3861  0.6410
13344TIP3    H261448   5.729   6.761   3.073  1.1512  0.7740  3.0720
13345TIP3   OH261449   2.667   3.103   2.567 -0.0539 -0.0808  0.3753
13345TIP3    H161450   2.635   3.152   2.492  0.4595 -2.7119 -1.5861
13345TIP3    H261451   2.762   3.102   2.556  0.0773 -0.0064  1.3886
13346TIP3   OH261452   3.216   5.152   3.906  0.0513 -0.2204 -0.5548
13346TIP3    H161453   3.129   5.170   3.941  0.1353 -1.5272  0.3299
13346TIP3    H261454   3.275   5.165   3.980  0.5215 -0.2715 -0.9168
13347TIP3   OH261455   6.494   1.409   2.595  0.8439 -0.0020 -0.1055
13347TIP3    H161456   6.557   1.382   2.662  2.2932 -2.5077 -2.4111
13347TIP3    H261457   6.442   1.330   2.578 -1.0963  1.2817 -0.2428
13348TIP3   OH261458   6.706   1.743   4.375 -0.5879 -0.2797  0.7309
13348TIP3    H161459   6.767   1.755   4.302 -1.7272  1.8208  0.0779
13348TIP3    H261460   6.681   1.832   4.399 -2.3382 -1.0709  1.8954
13349TIP3   OH261461   4.545   5.598   0.992  0.2026 -0.4709 -0.0239
13349TIP3    H161462   4.610   5.566   1.055  0.7516 -0.0576 -0.3817
13349TIP3    H261463   4.593   5.609   0.910  0.8719  4.4494  0.8737
13350TIP3   OH261464   4.108   1.071  16.440  0.1493 -0.2006  0.2025
13350TIP3    H161465   4.149   1.145  16.485 -0.3935  0.0517  0.2834
13350TIP3    H261466   4.151   1.070  16.354  0.3224  0.0675  0.2817
13351TIP3   OH261467   1.447   1.482  13.354 -0.6171  0.2102 -0.7840
13351TIP3    H161468   1.461   1.391  13.378  0.2610  0.1000 -1.6758
13351TIP3    H261469   1.352   1.492  13.353 -0.7443 -0.9362 -1.5027
13352TIP3   OH261470   6.721   1.349  11.002  0.4379 -0.4389  0.3344
13352TIP3    H161471   6.743   1.416  10.937  0.1354  0.4648  1.1454
13352TIP3    H261472   6.759   1.268  10.967  2.2897  0.4785  0.1559
13353TIP3   OH261473   4.730   0.580   2.341  0.3065 -0.1568  0.6301
13353TIP3    H161474   4.768   0.667   2.334 -0.0586 -0.0029  0.5502
13353TIP3    H261475   4.740   0.556   2.433  1.9807 -0.7494  0.3042
13354TIP3   OH261476   2.426   1.081   1.600  0.0717 -0.3787 -0.3351
13354TIP3    H161477   2.413   0.993   1.566 -4.1106 -0.0159  0.0436
13354TIP3    H261478   2.436   1.136   1.522 -2.4118 -0.5359 -0.8014
13355TIP3   OH261479   6.371   1.688  11.514  0.3887 -0.0611  0.0402
13355TIP3    H161480   6.452   1.648  11.483  0.4059  0.3829 -0.5013
13355TIP3    H261481   6.381   1.692  11.609  1.1954  0.3986 -0.0585
13356TIP3   OH261482   4.365   1.353   5.737  0.5940  0.0294  0.0768
13356TIP3    H161483   4.393   1.281   5.794 -0.2190 -0.4231 -0.0935
13356TIP3    H261484   4.377   1.431   5.791 -0.2003 -0.3985  0.8874
13357TIP3   OH261485   4.426   3.575   1.098  0.1442 -0.2036 -0.2330
13357TIP3    H161486   4.513   3.567   1.136  0.1811 -0.1936 -0.3155
13357TIP3    H261487   4.376   3.625   1.163  0.1886 -0.2453 -0.1665
13358TIP3   OH261488   3.534   1.565   2.640 -0.1294 -0.1566  0.0743
13358TIP3    H161489   3.459   1.506   2.632 -0.8290  1.0084 -2.4668
13358TIP3    H261490   3.588   1.547   2.563  0.4532  1.3874  0.1067
13359TIP3   OH261491   3.399   3.125   6.600  0.3629 -0.0960  0.1493
13359TIP3    H161492   3.457   3.201   6.597 -0.2253  0.3801  0.8685
13359TIP3    H261493   3.360   3.127   6.687 -1.2010 -0.0687 -0.5455
13360TIP3   OH261494   6.206   2.833  14.560  0.0170 -0.2281  0.5787
13360TIP3    H161495   6.225   2.739  14.549  1.1995  0.2035 -1.2232
13360TIP3    H261496   6.179   2.863  14.474  1.5982  1.5082  0.6491
13361TIP3   OH261497   2.983   2.428   1.361  0.6184  0.2049  0.3592
13361TIP3    H161498   2.926   2.355   1.384  0.3665  0.6137  1.0365
13361TIP3    H261499   3.031   2.397   1.284  0.1465 -0.4812  0.3339
13362TIP3   OH261500   3.433   2.453   5.807 -0.0372 -0.1260 -0.0086
13362TIP3    H161501   3.381   2.534   5.810  0.1356 -0.0421  0.9974
13362TIP3    H261502   3.394   2.397   5.874  0.9314 -0.2062  0.4975
13363TIP3   OH261503   0.016   0.537  14.524  0.0631 -0.1389 -0.1687
13363TIP3    H161504  -0.015   0.614  14.477  0.2055  0.6293  0.9691
13363TIP3    H261505  -0.062   0.500  14.565 -0.0808 -0.8763 -1.1022
13364TIP3   OH261506   5.972   4.655   0.042 -0.2475  0.8487  0.9033
13364TIP3    H161507   5.880   4.651   0.069 -0.7393 -0.6192 -0.8817
13364TIP3    H261508   5.970   4.692  -0.046  0.5740 -1.6243 -0.2197
13365TIP3   OH261509   1.295   0.747   0.557 -0.0138 -0.1630 -0.2270
13365TIP3    H161510   1.272   0.801   0.633 -1.2336 -0.0166 -0.6876
13365TIP3    H261511   1.268   0.798   0.482 -1.1996 -1.4086 -0.6717
13366TIP3   OH261512   1.684   4.366   4.540  0.6865  0.2184  0.2019
13366TIP3    H161513   1.766   4.413   4.555  2.3970 -3.0275  1.6619
13366TIP3    H261514   1.639   4.368   4.624  1.0364 -1.1663  0.4373
13367TIP3   OH261515   5.672   0.295  16.875 -0.3144 -0.1049 -0.2799
13367TIP3    H161516   5.759   0.261  16.892 -0.7732 -1.8088 -1.1754
13367TIP3    H261517   5.638   0.321  16.961  0.8218 -0.0346  0.1449
13368TIP3   OH261518   6.617   4.202  15.108  0.2532 -0.0161 -0.0530
13368TIP3    H161519   6.529   4.231  15.085 -0.0429 -0.7479  0.1223
13368TIP3    H261520   6.617   4.108  15.087  0.2696 -0.5010  2.0079
13369TIP3   OH261521   0.505   1.009   6.595 -0.2937 -0.0774  0.2546
13369TIP3    H161522   0.569   1.010   6.666  0.8091 -0.3378 -0.7176
13369TIP3    H261523   0.444   0.939   6.618 -0.7811  0.7665  1.6423
13370TIP3   OH261524   4.290   4.300   1.474 -0.2387 -0.8072 -0.4579
13370TIP3    H161525   4.359   4.302   1.540  1.2412  1.8582 -1.9773
13370TIP3    H261526   4.328   4.253   1.400 -0.5846 -0.6927 -0.7128
13371TIP3   OH261527   3.413   1.302   6.255 -0.0322  0.1733 -0.5492
13371TIP3    H161528   3.385   1.376   6.310  0.6902 -1.0301  1.4915
13371TIP3    H261529   3.508   1.300   6.265 -0.2723 -2.7617  1.7366
13372TIP3   OH261530   5.876   2.938  16.881  0.2442  0.0470 -0.6646
13372TIP3    H161531   5.860   3.030  16.858 -0.0047  0.0911 -0.3231
13372TIP3    H261532   5.822   2.924  16.959  0.3216 -0.3764 -0.6891
13373TIP3   OH261533   2.366   2.230  12.844 -0.0844 -0.5323  0.1714
13373TIP3    H161534   2.276   2.197  12.844 -0.3697  0.2295 -1.1915
13373TIP3    H261535   2.387   2.244  12.752  1.3714 -0.5131  0.4878
13374TIP3   OH261536   0.603   6.194  16.867  0.0159  0.3329 -0.0670
13374TIP3    H161537   0.619   6.100  16.854 -0.3106  0.1163  1.0760
13374TIP3    H261538   0.598   6.229  16.778  0.9343 -0.5988 -0.5027
13375TIP3   OH261539   0.899   1.915   4.444  0.2763  0.6566  0.1408
13375TIP3    H161540   0.929   1.856   4.513  1.9430  0.2106 -0.9189
13375TIP3    H261541   0.942   1.999   4.464 -2.0719  1.5572  1.6335
13376TIP3   OH261542   3.441   5.030   0.914 -0.1838  0.6625  0.4332
13376TIP3    H161543   3.449   5.115   0.872  0.5982  0.2095 -0.3427
13376TIP3    H261544   3.518   4.982   0.886  0.1790  0.2415  2.1519
13377TIP3   OH261545   3.125   5.179  16.481  0.1384  0.0942  0.0569
13377TIP3    H161546   3.207   5.206  16.441  0.3062 -2.3685 -1.3862
13377TIP3    H261547   3.141   5.089  16.511 -1.2285  0.5010  2.0811
13378TIP3   OH261548   5.886   0.641  11.234  0.6103  0.5738  0.2466
13378TIP3    H161549   5.917   0.553  11.212  2.4185  1.1581  0.4246
13378TIP3    H261550   5.803   0.649  11.187  1.1427 -0.6882 -0.9498
13379TIP3   OH261551   4.964   5.783  16.990 -0.2603 -0.1483 -0.1283
13379TIP3    H161552   4.882   5.739  16.965 -0.8272 -0.2861  1.8852
13379TIP3    H261553   4.966   5.776  17.085  2.0333  0.0072 -0.1574
13380TIP3   OH261554   6.092   4.309   2.065 -0.4325  0.4861 -0.8416
13380TIP3    H161555   6.009   4.274   2.033 -0.8182 -1.0207  1.7323
13380TIP3    H261556   6.073   4.401   2.085 -1.2051  0.4074 -1.1875
13381TIP3   OH261557   3.607   5.589  14.388  0.2368  0.6844 -0.2152
13381TIP3    H161558   3.692   5.630  14.375  0.2887  1.6587  2.7931
13381TIP3    H261559   3.551   5.627  14.320  1.0513  3.5591  0.6448
13382TIP3   OH261560   5.549   3.876  11.691  0.1656 -0.3122  0.2836
13382TIP3    H161561   5.474   3.818  11.679 -0.1509  0.0558  0.4638
13382TIP3    H261562   5.560   3.882  11.786 -0.1520  0.3622  0.2837
13383TIP3   OH261563   5.699   3.710   1.239 -0.2686  0.1523  0.4991
13383TIP3    H161564   5.672   3.785   1.184  0.9118  0.1748 -0.0583
13383TIP3    H261565   5.754   3.749   1.307  1.3417 -0.3525 -0.4952
13384TIP3   OH261566   1.694   5.811   0.730 -0.1349 -0.3466 -0.3166
13384TIP3    H161567   1.642   5.736   0.759 -0.5511 -1.0117 -2.6180
13384TIP3    H261568   1.658   5.886   0.778 -1.8383 -1.1389 -0.3324
13385TIP3   OH261569   2.020   0.432   4.329 -0.2169  0.1456  0.1721
13385TIP3    H161570   2.047   0.491   4.400 -0.9191  0.8027 -0.1035
13385TIP3    H261571   1.953   0.376   4.368 -0.7194  0.6145 -0.0142
13386TIP3   OH261572   5.219   4.221   5.275  0.1414  0.5329  0.6479
13386TIP3    H161573   5.203   4.194   5.184 -0.6394  2.4337  0.2039
13386TIP3    H261574   5.173   4.156   5.328  0.1837 -0.3079 -0.3321
13387TIP3   OH261575   3.182   3.206   1.135  0.0295  0.3439  0.0191
13387TIP3    H161576   3.238   3.239   1.064  2.7981 -0.4203  1.7359
13387TIP3    H261577   3.187   3.111   1.127  1.1945  0.2266  1.7832
13388TIP3   OH261578   5.550   3.711  14.384 -0.2440 -0.4842 -0.5677
13388TIP3    H161579   5.627   3.659  14.407 -0.0242  0.3716  0.6734
13388TIP3    H261580   5.573   3.801  14.409 -1.5862 -0.1943 -0.3313
13389TIP3   OH261581   6.479   5.580   2.856 -0.0197 -0.5179 -1.1471
13389TIP3    H161582   6.506   5.669   2.831 -0.4951  0.0005  0.1333
13389TIP3    H261583   6.410   5.557   2.794 -0.2057  0.1863 -1.2064
13390TIP3   OH261584   6.557   1.721   4.123  0.4881  0.2732  0.3427
13390TIP3    H161585   6.599   1.636   4.124  0.7387  0.3924 -0.0154
13390TIP3    H261586   6.572   1.755   4.035  1.0042  0.9924  0.7023
13391TIP3   OH261587   4.028   0.943  14.123 -1.0035  0.0371 -1.0158
13391TIP3    H161588   4.058   1.025  14.084 -0.2129  0.5322  0.5568
13391TIP3    H261589   4.106   0.909  14.168 -1.6528 -0.9451 -0.6303
13392TIP3   OH261590   1.343   3.299   1.184 -0.0681 -0.1084  0.3527
13392TIP3    H161591   1.430   3.339   1.177  0.3917 -0.8367  1.8547
13392TIP3    H261592   1.336   3.272   1.275 -0.4428 -3.2651 -0.5599
13393TIP3   OH261593   2.722   2.526  17.048  0.0995 -0.8632  0.0166
13393TIP3    H161594   2.687   2.567  16.969  0.8534 -0.4288 -0.1062
13393TIP3    H261595   2.710   2.432  17.034  1.7421 -0.9065 -1.3814
13394TIP3   OH261596   0.457   6.504   5.244  0.2283 -0.0565 -0.7159
13394TIP3    H161597   0.524   6.472   5.183  0.6305  0.1404 -0.3814
13394TIP3    H261598   0.395   6.432   5.250 -0.1342  0.1621 -1.8261
13395TIP3   OH261599   1.296   1.117   5.682 -0.5370  0.4749 -0.5852
13395TIP3    H161600   1.229   1.182   5.700 -1.3733 -0.6473  0.4344
13395TIP3    H261601   1.339   1.149   5.603 -2.1582  1.2893 -1.1683
13396TIP3   OH261602   1.283   2.007   1.093 -0.9613 -0.6266 -0.0756
13396TIP3    H161603   1.258   1.917   1.117  1.5526 -1.3903 -0.2232
13396TIP3    H261604   1.366   1.997   1.047 -0.1122  1.8793  0.8599
13397TIP3   OH261605   0.683   2.020   2.308  0.6446  0.8061 -0.2335
13397TIP3    H161606   0.647   2.094   2.258 -0.0404 -0.1920 -1.2391
13397TIP3    H261607   0.742   2.061   2.371 -2.3121  2.5213  1.5741
13398TIP3   OH261608   4.672   2.983   2.935 -0.0468  0.3364  0.3602
13398TIP3    H161609   4.744   2.998   2.874  0.5911 -1.3532  0.6590
13398TIP3    H261610   4.696   2.902   2.981 -1.8932  0.0161  0.8134
13399TIP3   OH261611   3.584   2.604   2.979 -0.3582  0.0537 -0.0957
13399TIP3    H161612   3.609   2.525   2.930  0.6183 -0.1190  0.6389
13399TIP3    H261613   3.545   2.662   2.915 -2.4701 -1.6229 -0.3865
13400TIP3   OH261614   1.892   4.654  15.012 -0.2837  0.0142  0.8350
13400TIP3    H161615   1.808   4.627  15.050 -0.4104 -0.3445  0.3058
13400TIP3    H261616   1.934   4.572  14.987 -0.8250  0.3070 -1.1006
13401TIP3   OH261617   2.403   5.859  13.757 -0.2304 -0.0296  0.0947
13401TIP3    H161618   2.464   5.923  13.794 -0.8437 -0.7667  2.4395
13401TIP3    H261619   2.457   5.803  13.702  0.7509  0.9192  0.0786
13402TIP3   OH261620   3.772   1.234   4.411  0.4684 -0.6107  0.2382
13402TIP3    H161621   3.685   1.228   4.450  0.2614  0.9750  0.0450
13402TIP3    H261622   3.829   1.189   4.473 -0.5311 -1.9251  0.2122
13403TIP3   OH261623   6.059   3.224  16.343  0.1979  0.0832  0.7762
13403TIP3    H161624   6.134   3.195  16.396  0.2385 -0.3660  0.4677
13403TIP3    H261625   6.099   3.276  16.273  0.2031  0.0134  0.7287
13404TIP3   OH261626   6.364   3.149  15.237 -0.2145 -0.2300 -1.1817
13404TIP3    H161627   6.277   3.154  15.277  0.2760  0.0051 -0.1222
13404TIP3    H261628   6.400   3.066  15.269  1.5574  1.5689  1.7586
13405TIP3   OH261629   1.874   0.874  14.848  0.0792  0.2500 -0.1553
13405TIP3    H161630   1.927   0.915  14.917  1.2032 -0.0730 -0.8066
13405TIP3    H261631   1.910   0.786  14.839 -1.9592 -0.7094  0.8420
13406TIP3   OH261632   0.443   5.113   1.794 -0.1977  0.3676 -0.0830
13406TIP3    H161633   0.507   5.044   1.777  0.1816  0.0204  2.5621
13406TIP3    H261634   0.370   5.069   1.836 -1.1251  1.1761 -0.7954
13407TIP3   OH261635   6.435   1.291  15.955  0.0159  0.1144  0.3047
13407TIP3    H161636   6.411   1.351  16.025  1.6928 -0.0596  1.0523
13407TIP3    H261637   6.515   1.328  15.918 -0.0434 -0.5847 -0.5462
13408TIP3   OH261638   2.152   2.799  13.782  1.0526 -0.0020  0.6440
13408TIP3    H161639   2.101   2.814  13.703  1.5209 -2.0317 -0.0489
13408TIP3    H261640   2.230   2.753  13.753  1.5057 -0.2691  2.2117
13409TIP3   OH261641   6.249   5.911  12.465  0.5571  0.2100  0.5986
13409TIP3    H161642   6.343   5.904  12.481  0.7682 -0.1228 -0.6746
13409TIP3    H261643   6.215   5.963  12.537  1.4388 -1.1849  2.0606
13410TIP3   OH261644   1.019   5.049  17.236 -0.1094 -0.0755  0.5465
13410TIP3    H161645   1.054   5.044  17.325 -1.5008  0.1095  1.1127
13410TIP3    H261646   1.047   4.966  17.196  1.8692  0.5188  0.6317
13411TIP3   OH261647   6.550   0.031  11.032 -0.3768  0.1702 -0.4391
13411TIP3    H161648   6.492   0.102  11.004 -0.6414  0.5102  0.9595
13411TIP3    H261649   6.638   0.064  11.014 -0.5623  0.1986 -1.2999
13412TIP3   OH261650   3.630   0.542  13.606  0.4374  0.1887  0.0205
13412TIP3    H161651   3.567   0.534  13.677  0.9250 -0.9008  0.3478
13412TIP3    H261652   3.593   0.608  13.548 -1.9043 -1.7717 -0.7537
13413TIP3   OH261653   4.216   5.284  17.017 -0.0368 -0.3184 -0.6895
13413TIP3    H161654   4.228   5.355  16.954 -1.6077  0.3425 -0.2551
13413TIP3    H261655   4.276   5.306  17.089  0.0182  0.1883 -0.8852
13414TIP3   OH261656   4.712   1.751   2.743 -0.1686 -0.3844 -0.3272
13414TIP3    H161657   4.719   1.832   2.693 -0.6612 -0.7180 -0.9432
13414TIP3    H261658   4.654   1.695   2.691  0.3477 -1.2214 -0.0285
13415TIP3   OH261659   0.056   3.233   1.484 -0.0187 -0.0437  0.1798
13415TIP3    H161660   0.040   3.140   1.467  0.9530 -0.2334  0.2217
13415TIP3    H261661   0.072   3.238   1.579 -2.4890  0.5505  0.5829
13416TIP3   OH261662   5.116   5.859   0.135  0.6569  0.3652  0.3102
13416TIP3    H161663   5.110   5.764   0.127  0.4082  0.4651 -0.6703
13416TIP3    H261664   5.206   5.874   0.166  1.3187 -0.0652 -1.3815
13417TIP3   OH261665   2.204   5.525   6.284  0.1849 -0.0362 -0.4124
13417TIP3    H161666   2.295   5.549   6.272  0.3196 -0.2059  0.2167
13417TIP3    H261667   2.201   5.483   6.371 -0.7378  1.2509  0.1948
13418TIP3   OH261668   5.949   2.009   3.305 -0.0723  0.2904  0.0413
13418TIP3    H161669   5.874   2.046   3.352 -0.5108  1.7367 -1.7175
13418TIP3    H261670   5.918   2.000   3.215  1.7631  0.5758 -0.6353
13419TIP3   OH261671   3.288   1.951  11.545 -0.2996 -0.5906  0.2560
13419TIP3    H161672   3.288   2.013  11.472 -2.2813 -2.5722 -1.4866
13419TIP3    H261673   3.258   2.002  11.620  0.2763  1.0880 -0.6352
13420TIP3   OH261674   0.472   5.244  10.761  0.8091 -0.4101 -0.1061
13420TIP3    H161675   0.473   5.338  10.745  0.6391  0.1703  3.0604
13420TIP3    H261676   0.382   5.224  10.785  0.7688 -1.4448 -1.0924
13421TIP3   OH261677   0.808   2.685  14.180  0.1920  0.2293  0.4046
13421TIP3    H161678   0.854   2.610  14.144 -0.3718 -1.2017  2.5460
13421TIP3    H261679   0.827   2.681  14.274 -1.6668  1.4778  0.8511
13422TIP3   OH261680   1.828   2.310   1.192 -0.0004  0.1818 -0.1741
13422TIP3    H161681   1.909   2.351   1.223  0.4025 -0.8894  0.2424
13422TIP3    H261682   1.789   2.271   1.270 -0.6476  0.2329 -0.4659
13423TIP3   OH261683   3.550   4.374   3.956  0.0934 -0.6072  0.9286
13423TIP3    H161684   3.515   4.292   3.989 -0.4827 -0.8318 -0.2130
13423TIP3    H261685   3.484   4.440   3.979 -0.2715 -0.7523  0.3263
13424TIP3   OH261686   2.477   0.654   5.788  0.2068  0.3351 -0.0119
13424TIP3    H161687   2.439   0.678   5.873 -0.7031 -0.0057 -0.3220
13424TIP3    H261688   2.402   0.640   5.731  0.8593  2.0301 -1.3041
13425TIP3   OH261689   2.168   4.354   1.930  0.3674  0.3761 -0.0584
13425TIP3    H161690   2.149   4.357   2.024  0.6519  0.5476 -0.0042
13425TIP3    H261691   2.181   4.261   1.911  1.2309  0.4257  0.2613
13426TIP3   OH261692   0.763   3.941   3.684  0.5820  0.3986 -0.3397
13426TIP3    H161693   0.804   3.961   3.768  0.2932 -1.3631  0.2322
13426TIP3    H261694   0.669   3.955   3.699  0.6202  1.0003 -0.6455
13427TIP3   OH261695   2.558   5.331   2.512 -0.1206  0.3289  0.0344
13427TIP3    H161696   2.510   5.338   2.595 -0.4440 -1.2268 -0.0097
13427TIP3    H261697   2.563   5.421   2.480  0.0932  0.9628  1.7902
13428TIP3   OH261698   3.146   2.878  13.139 -0.1380  0.0466 -0.1387
13428TIP3    H161699   3.154   2.840  13.052 -0.7457  0.8202 -0.5427
13428TIP3    H261700   3.170   2.970  13.128 -1.8682  0.5664  0.1358
13429TIP3   OH261701   5.120   1.048  16.034  0.3453  0.4110  0.0478
13429TIP3    H161702   5.083   1.109  16.097  0.6163  1.5410 -0.8656
13429TIP3    H261703   5.163   1.104  15.969 -2.2238 -0.5901 -2.6297
13430TIP3   OH261704   6.388   1.868  14.796 -0.1284 -0.4595  0.6554
13430TIP3    H161705   6.313   1.904  14.749  1.0817  0.8864 -0.3097
13430TIP3    H261706   6.450   1.846  14.726  0.4938 -1.2452  1.4566
13431TIP3   OH261707   6.099   4.708  11.628 -0.2594  0.2512  0.3348
13431TIP3    H161708   6.165   4.776  11.645 -0.9959  1.8330 -2.7198
13431TIP3    H261709   6.016   4.751  11.646 -0.6977  0.0099 -1.0448
13432TIP3   OH261710   4.779   4.372   4.142 -0.0453  0.1212  0.1582
13432TIP3    H161711   4.812   4.378   4.232  0.8230  0.4957 -0.1725
13432TIP3    H261712   4.769   4.278   4.126 -0.0186  0.0449  0.5801
13433TIP3   OH261713   0.891   3.746  16.060 -0.2320  0.2736  0.3598
13433TIP3    H161714   0.890   3.725  15.966 -1.0985 -0.1552  0.4611
13433TIP3    H261715   0.899   3.841  16.062  0.2061  0.2550 -0.1431
13434TIP3   OH261716   5.259   2.320   5.184  0.3779 -0.6713 -0.2035
13434TIP3    H161717   5.247   2.225   5.184 -0.1902 -0.6091  1.2657
13434TIP3    H261718   5.351   2.332   5.208  0.9173 -0.8732 -2.0433
13435TIP3   OH261719   3.543   3.602  14.630  0.0190 -0.5107 -0.6341
13435TIP3    H161720   3.514   3.646  14.550 -0.4786 -0.6217 -0.5130
13435TIP3    H261721   3.496   3.646  14.700  2.3287  1.2915 -0.1443
13436TIP3   OH261722   3.573   3.955   5.091 -0.1479 -0.3622  0.2043
13436TIP3    H161723   3.593   3.862   5.081  2.8547  0.1966  0.4799
13436TIP3    H261724   3.554   3.966   5.185  0.5762 -0.5228  0.3731
13437TIP3   OH261725   0.312   4.732   2.803  0.1860  0.1163 -0.8651
13437TIP3    H161726   0.263   4.745   2.884 -0.5744  1.1433 -1.4739
13437TIP3    H261727   0.287   4.645   2.773  0.9426 -0.5201  0.3107
13438TIP3   OH261728   3.336   3.822   4.486  0.4879 -0.1254  1.0661
13438TIP3    H161729   3.331   3.731   4.457 -2.0743  0.0441  0.8746
13438TIP3    H261730   3.408   3.823   4.549  2.1444 -1.7584 -0.7197
13439TIP3   OH261731   5.829   4.847   5.405 -0.2204  0.1065 -0.0246
13439TIP3    H161732   5.830   4.751   5.404  1.7242  0.1058 -1.9424
13439TIP3    H261733   5.904   4.871   5.460 -0.6986  0.5412  0.4465
13440TIP3   OH261734   4.583   0.002  12.689 -0.4336 -0.0248 -0.4546
13440TIP3    H161735   4.529  -0.070  12.721 -0.0459 -0.1059  0.0340
13440TIP3    H261736   4.651   0.012  12.756 -0.1228  0.3845 -0.8280
13441TIP3   OH261737   5.759   5.023  15.266 -0.1461 -0.4969  0.4391
13441TIP3    H161738   5.844   5.066  15.278 -0.2401 -0.0668 -0.3745
13441TIP3    H261739   5.700   5.071  15.325 -0.1944  0.3386 -0.2756
13442TIP3   OH261740   6.315   0.201  12.837 -0.4983  0.3144 -0.0427
13442TIP3    H161741   6.297   0.256  12.761 -0.7364  2.3780  1.4737
13442TIP3    H261742   6.389   0.243  12.880 -0.3186 -0.8718  0.8300
13443TIP3   OH261743   5.630   4.750   5.075 -0.2496 -0.1404 -0.1056
13443TIP3    H161744   5.615   4.753   4.981 -2.1591  0.8990  0.2088
13443TIP3    H261745   5.683   4.827   5.094 -0.0630 -0.2226 -0.2961
13444TIP3   OH261746   1.508   2.017  13.387  0.3702  0.0455 -0.9205
13444TIP3    H161747   1.504   1.924  13.364 -0.6750 -0.0161 -0.5222
13444TIP3    H261748   1.497   2.018  13.482  0.7108  0.5591 -0.8858
13445TIP3   OH261749   5.992   0.433  16.909  0.0751 -0.0425  0.4894
13445TIP3    H161750   5.980   0.466  16.820  0.1492  0.2049  0.5710
13445TIP3    H261751   6.086   0.438  16.924  0.0439  0.0729  0.6430
13446TIP3   OH261752   2.780   1.398  12.363  0.0325 -0.2642  0.4631
13446TIP3    H161753   2.752   1.416  12.453  1.7392  1.0091  0.7672
13446TIP3    H261754   2.871   1.427  12.360 -0.4522  1.1711 -2.1025
13447TIP3   OH261755   2.990   1.641  12.952  0.1119  0.4350 -0.1522
13447TIP3    H161756   2.991   1.701  12.877 -0.7466  2.1094  1.1541
13447TIP3    H261757   2.966   1.696  13.026 -0.5642 -1.5214  1.1013
13448TIP3   OH261758   5.549   2.781  13.008 -0.1997 -0.6433  1.0064
13448TIP3    H161759   5.458   2.799  12.984  0.8165  0.5328 -2.1799
13448TIP3    H261760   5.571   2.851  13.070 -1.1440 -0.3235  0.9921
13449TIP3   OH261761   5.572   1.565  11.372  0.2356 -0.1428  0.5454
13449TIP3    H161762   5.665   1.581  11.386  0.2009 -0.2773  0.9354
13449TIP3    H261763   5.534   1.652  11.361  0.0835  0.0393  2.4215
13450TIP3   OH261764   2.743   4.718  11.109  0.8946  0.0108  0.2925
13450TIP3    H161765   2.755   4.752  11.021  4.0691 -0.3743  0.5255
13450TIP3    H261766   2.785   4.632  11.108 -0.7178 -0.8301  1.6588
13451TIP3   OH261767   4.871   4.608   1.032 -0.5569  0.5172 -0.1057
13451TIP3    H161768   4.812   4.536   1.011  1.2279 -0.9137 -0.3780
13451TIP3    H261769   4.932   4.611   0.958  0.7562  0.8400  0.9641
13452TIP3   OH261770   5.308   5.203   4.782 -0.0649  0.5684  1.2308
13452TIP3    H161771   5.295   5.134   4.846 -0.7453  0.3096  0.8268
13452TIP3    H261772   5.402   5.216   4.777 -0.0102  0.5115  2.1936
13453TIP3   OH261773   2.728   5.939   2.036  0.4121 -0.1925  0.4068
13453TIP3    H161774   2.743   5.935   2.131 -0.0706  1.5589  0.5717
13453TIP3    H261775   2.730   5.848   2.008  1.0329 -0.7029  2.0323
13454TIP3   OH261776   6.104   5.761   6.267 -0.3782 -0.2522 -0.3020
13454TIP3    H161777   6.190   5.763   6.308 -1.1658  0.9330  1.3918
13454TIP3    H261778   6.077   5.853   6.264 -2.5875 -0.7927  1.4834
13455TIP3   OH261779   1.106   1.633   3.534 -0.6264 -0.8251 -0.0775
13455TIP3    H161780   1.178   1.587   3.577 -0.8815 -2.3425 -1.2145
13455TIP3    H261781   1.149   1.701   3.482 -0.0966 -0.9802  0.1500
13456TIP3   OH261782   3.786   2.624   0.504  0.0855  0.5571 -0.2253
13456TIP3    H161783   3.708   2.672   0.532 -0.4632 -0.9025  0.8268
13456TIP3    H261784   3.752   2.559   0.442  0.4085 -0.3128  0.5035
13457TIP3   OH261785   4.150   2.451  16.969  0.5435 -0.0928  0.1997
13457TIP3    H161786   4.130   2.468  17.061 -0.7091  3.8885 -0.7246
13457TIP3    H261787   4.229   2.397  16.971 -0.7069 -1.8806  3.6231
13458TIP3   OH261788   4.136   4.783   1.990  0.0348  0.5047 -0.3774
13458TIP3    H161789   4.045   4.788   2.018  0.1632  0.9071 -0.0140
13458TIP3    H261790   4.168   4.873   1.997  0.1693  0.5579 -1.4912
13459TIP3   OH261791   1.305   5.527   1.318  1.0918  0.0235 -0.3783
13459TIP3    H161792   1.352   5.453   1.279 -0.3201 -0.7471 -0.6393
13459TIP3    H261793   1.344   5.537   1.405  3.0251  0.6043 -1.2816
13460TIP3   OH261794   1.153   3.248  14.512 -0.2444  0.3603  0.3058
13460TIP3    H161795   1.109   3.207  14.587 -0.3668  0.3982  0.2555
13460TIP3    H261796   1.156   3.178  14.446  0.1046  0.2468  0.4426
13461TIP3   OH261797   2.584   0.151   1.423 -0.3914  0.3295 -0.0709
13461TIP3    H161798   2.563   0.130   1.332 -0.4490 -0.4604  0.1215
13461TIP3    H261799   2.539   0.084   1.475  1.1177 -0.2948  0.4429
13462TIP3   OH261800   3.183   6.262   4.880  0.1801  0.0757 -0.4104
13462TIP3    H161801   3.164   6.202   4.952  0.1726  0.6221  0.0427
13462TIP3    H261802   3.276   6.283   4.890  0.5607 -1.0186 -1.4444
13463TIP3   OH261803   1.811   3.168   3.038 -0.4162 -0.1697  0.9766
13463TIP3    H161804   1.794   3.105   3.109 -2.9891  1.0277  1.4792
13463TIP3    H261805   1.799   3.253   3.079  1.3117  0.6230 -0.1381
13464TIP3   OH261806   0.922   1.479  16.870  0.1728  0.2343 -0.5172
13464TIP3    H161807   0.991   1.455  16.807 -1.4645  0.4399 -2.4425
13464TIP3    H261808   0.850   1.419  16.850  0.1537 -0.6850  2.1824
13465TIP3   OH261809   2.110   1.193  13.261  0.2634  0.3641 -0.4398
13465TIP3    H161810   2.067   1.154  13.185  0.3108  0.5120 -0.5435
13465TIP3    H261811   2.191   1.231  13.226  0.2409  0.5120 -0.3312
13466TIP3   OH261812   0.603   2.875   6.405 -0.5095  0.5546  0.4804
13466TIP3    H161813   0.534   2.842   6.348 -0.2443 -0.2974  0.6469
13466TIP3    H261814   0.570   2.863   6.493 -0.2982  0.4740  0.5506
13467TIP3   OH261815   0.293   1.709   0.076  0.5223  0.2994 -0.0451
13467TIP3    H161816   0.271   1.620   0.102 -1.0562  0.3898 -1.0220
13467TIP3    H261817   0.350   1.699   0.000 -1.8025  0.1213 -1.8179
13468TIP3   OH261818   4.718   2.695  15.982  0.5212 -0.4133  0.0961
13468TIP3    H161819   4.731   2.654  15.896  1.6989  2.9476 -1.4314
13468TIP3    H261820   4.624   2.685  15.999  0.6559 -3.0411 -0.5465
13469TIP3   OH261821   1.960   5.149  11.417  0.1664  0.4949  0.1879
13469TIP3    H161822   1.921   5.148  11.505 -3.6845  0.5411 -1.4181
13469TIP3    H261823   1.962   5.241  11.393  0.2285  0.4002 -0.1709
13470TIP3   OH261824   3.085   6.556  14.919  0.1167  0.3916  0.6644
13470TIP3    H161825   3.110   6.615  14.990  2.6147  0.3081 -0.0952
13470TIP3    H261826   3.001   6.591  14.887  0.3377  2.0400  1.8481
13471TIP3   OH261827   4.811   5.019   2.757  0.0391  0.3466 -0.0003
13471TIP3    H161828   4.752   5.062   2.695 -0.0608  0.4436  0.1617
13471TIP3    H261829   4.860   5.091   2.797 -0.7568  0.3942  0.9216
13472TIP3   OH261830   5.316   2.084  16.702  0.0180 -0.3798 -0.5691
13472TIP3    H161831   5.318   1.994  16.735 -2.9357 -0.2183  0.1875
13472TIP3    H261832   5.224   2.100  16.682  0.1475  3.1528  1.2721
13473TIP3   OH261833   3.871   2.653  11.509  0.3060  0.4317 -0.1798
13473TIP3    H161834   3.780   2.636  11.486  0.5787 -0.9649 -0.2740
13473TIP3    H261835   3.910   2.686  11.428 -0.7874  3.8634  0.6213
13474TIP3   OH261836   3.343   5.154  13.471  0.0897 -0.5778 -1.0048
13474TIP3    H161837   3.275   5.197  13.419 -1.1896 -1.3278  0.0093
13474TIP3    H261838   3.301   5.135  13.555  2.4740  1.6774  0.7799
13475TIP3   OH261839   0.946   1.372  15.225  0.2437 -0.1220 -0.2744
13475TIP3    H161840   0.934   1.350  15.133  0.2807  0.1642 -0.3464
13475TIP3    H261841   0.971   1.289  15.266  1.0367 -0.0882 -0.6732
13476TIP3   OH261842   5.703   3.509  17.097 -0.8375  0.0471 -0.3269
13476TIP3    H161843   5.610   3.504  17.120 -0.9124  1.8343 -0.1244
13476TIP3    H261844   5.704   3.549  17.010 -0.1926  2.8803  0.9061
13477TIP3   OH261845   5.403   0.389  16.471  0.1296  0.4801 -0.2693
13477TIP3    H161846   5.318   0.426  16.445  0.0149  0.0163 -0.5679
13477TIP3    H261847   5.432   0.445  16.543 -0.0603  1.1302 -0.6811
13478TIP3   OH261848   2.047   3.905  17.133 -0.0572 -0.1985  0.2207
13478TIP3    H161849   2.124   3.850  17.119 -0.4714 -0.5528 -0.6938
13478TIP3    H261850   2.078   3.977  17.188  1.2930  0.5401 -1.4684
13479TIP3   OH261851   4.712   5.763   4.868  0.0579  0.1984  0.2408
13479TIP3    H161852   4.634   5.755   4.923 -0.6031 -2.2468 -0.9707
13479TIP3    H261853   4.781   5.720   4.918  0.2383  0.8569  0.5651
13480TIP3   OH261854   5.520   3.964   6.785  0.3569 -0.0499  0.1430
13480TIP3    H161855   5.455   3.895   6.793  0.4932 -0.2234 -0.2142
13480TIP3    H261856   5.512   4.015   6.865 -1.5991  1.1372 -0.7639
13481TIP3   OH261857   3.304   4.139  13.060 -0.5334  0.6743 -0.2772
13481TIP3    H161858   3.211   4.118  13.065 -0.7641  1.1827 -2.2724
13481TIP3    H261859   3.329   4.117  12.970  1.3508  0.2474  0.3252
13482TIP3   OH261860   6.255   1.757  13.183  0.2707  0.0744  0.6889
13482TIP3    H161861   6.168   1.795  13.176 -0.0415 -0.1562  3.0388
13482TIP3    H261862   6.309   1.807  13.122 -1.6756 -0.3588 -1.4592
13483TIP3   OH261863   4.547   2.570  12.452  0.0191 -0.4672 -0.3618
13483TIP3    H161864   4.461   2.569  12.493 -0.1479  0.4500 -0.6824
13483TIP3    H261865   4.602   2.621  12.512 -0.0881  0.4006 -0.9928
13484TIP3   OH261866   1.388   3.999  14.527 -0.2115 -0.0034 -0.2434
13484TIP3    H161867   1.432   3.939  14.467 -0.3493  1.1124 -1.4772
13484TIP3    H261868   1.296   3.975  14.522 -0.1283 -0.4119  0.1167
13485TIP3   OH261869   3.730   1.802  13.456 -0.1169  0.7735  0.4507
13485TIP3    H161870   3.674   1.840  13.524  0.2106  2.2388 -0.0726
13485TIP3    H261871   3.817   1.836  13.476  0.1295  0.5287 -0.2011
13486TIP3   OH261872   0.604   5.827   4.481 -0.8170 -0.5075 -0.6282
13486TIP3    H161873   0.615   5.761   4.549 -1.5670 -0.4806 -0.4746
13486TIP3    H261874   0.662   5.799   4.410 -0.8158 -1.0990 -0.3908
13487TIP3   OH261875   0.859   1.803  14.913 -0.6095 -0.6582 -0.3623
13487TIP3    H161876   0.826   1.739  14.850 -0.2113 -1.1166 -0.1139
13487TIP3    H261877   0.945   1.769  14.937 -0.4119 -0.0440 -0.1986
13488TIP3   OH261878   6.743   1.720   0.575 -0.5123 -0.3017  0.0044
13488TIP3    H161879   6.742   1.784   0.504  0.6061 -0.3605 -0.0865
13488TIP3    H261880   6.673   1.747   0.633 -0.9345  0.2044 -0.7339
13489TIP3   OH261881   0.159   6.394  10.959 -0.3558 -0.0063 -0.5168
13489TIP3    H161882   0.253   6.403  10.946  0.0686 -2.9427  0.1976
13489TIP3    H261883   0.148   6.400  11.054 -0.6675 -1.3799 -0.4577
13490TIP3   OH261884   3.022   2.815  15.297 -0.1896  0.4795 -0.6389
13490TIP3    H161885   3.043   2.722  15.289  0.5826  0.7209 -1.4979
13490TIP3    H261886   3.101   2.854  15.333  0.0758  1.0593 -1.8363
13491TIP3   OH261887   4.947   2.274   5.817 -0.4122 -0.0405 -0.3869
13491TIP3    H161888   5.012   2.220   5.862 -1.4660 -1.7394 -0.8237
13491TIP3    H261889   4.866   2.262   5.868 -0.7284  0.8945 -0.6626
13492TIP3   OH261890   2.807   2.857   1.456 -0.0824 -0.6887 -0.1086
13492TIP3    H161891   2.798   2.768   1.491  0.2064 -1.0982 -1.0650
13492TIP3    H261892   2.874   2.849   1.388 -0.6755  0.0831 -0.7921
13493TIP3   OH261893   5.218   5.523   4.738 -0.1939 -0.5750  0.4768
13493TIP3    H161894   5.300   5.527   4.688 -0.1524  2.2094  0.6924
13493TIP3    H261895   5.247   5.512   4.829 -0.0835 -0.2252  0.4841
13494TIP3   OH261896   6.663   1.677   1.784  0.1728  0.3586 -0.6271
13494TIP3    H161897   6.569   1.667   1.797  0.1152  1.5428 -0.0656
13494TIP3    H261898   6.678   1.647   1.694 -0.7925  0.4952 -0.8412
13495TIP3   OH261899   1.231   5.831  16.731 -0.4194 -0.4478  0.0377
13495TIP3    H161900   1.167   5.900  16.750 -1.2874 -0.7049 -1.8048
13495TIP3    H261901   1.315   5.876  16.736 -0.9191  0.5635 -0.3225
13496TIP3   OH261902   2.723   6.333   0.080  0.0307 -0.3353 -0.1391
13496TIP3    H161903   2.705   6.265   0.145  2.0389  0.4615  1.2810
13496TIP3    H261904   2.641   6.341   0.031 -1.0903 -1.8752  1.4333
13497TIP3   OH261905   3.447   0.289  12.392 -0.2117 -0.0346 -0.3585
13497TIP3    H161906   3.477   0.204  12.361  0.7476  0.4596 -0.8224
13497TIP3    H261907   3.408   0.271  12.477 -0.5876 -1.0326 -0.7358
13498TIP3   OH261908   0.122   3.816  10.957 -0.0261  0.1062  0.0438
13498TIP3    H161909   0.029   3.795  10.970 -0.3827  0.0608 -2.2996
13498TIP3    H261910   0.121   3.902  10.915  1.0870  0.8275  1.4395
13499TIP3   OH261911   5.379   0.285  12.959 -0.0032  0.1673  0.5750
13499TIP3    H161912   5.453   0.289  12.899  0.7826 -0.9658  1.4293
13499TIP3    H261913   5.333   0.205  12.935 -0.3772  0.3436  0.6977
13500TIP3   OH261914   2.026   0.845   1.890 -0.3650 -0.3543 -0.2519
13500TIP3    H161915   2.024   0.938   1.911  0.1021 -0.7383  1.5703
13500TIP3    H261916   1.959   0.806   1.946  0.1482 -1.2668 -0.2588
13501TIP3   OH261917   4.621   1.730  14.164 -0.2243 -0.1037 -0.3495
13501TIP3    H161918   4.625   1.761  14.254 -1.1411  0.8287 -0.6207
13501TIP3    H261919   4.596   1.808  14.113 -0.4903 -0.8010 -1.2967
13502TIP3   OH261920   5.648   3.987  12.759 -0.2597  0.2172 -0.5711
13502TIP3    H161921   5.679   4.066  12.803 -0.2951 -0.3723  0.5153
13502TIP3    H261922   5.698   3.984  12.677 -0.2730  1.3681 -0.6294
13503TIP3   OH261923   1.099   1.869   0.787  0.0260  0.2026  0.1727
13503TIP3    H161924   1.057   1.940   0.835  0.3027 -1.8045  3.5690
13503TIP3    H261925   1.040   1.794   0.800 -1.2258  0.1174 -4.8818
13504TIP3   OH261926   6.290   0.650  16.750 -0.6397  0.3896  0.2472
13504TIP3    H161927   6.357   0.644  16.818  1.7349  0.3657 -1.9995
13504TIP3    H261928   6.306   0.574  16.694 -2.7484  0.2330 -0.1821
13505TIP3   OH261929   2.046   6.101   1.377  0.5359 -0.0350 -0.3307
13505TIP3    H161930   2.124   6.107   1.321 -0.8316  1.4593 -2.1489
13505TIP3    H261931   2.018   6.010   1.369  0.5516  0.0807 -1.8136
13506TIP3   OH261932   5.506   2.497  11.507  0.1841  0.2465  0.1806
13506TIP3    H161933   5.589   2.513  11.463 -0.2585  1.1531 -0.3438
13506TIP3    H261934   5.528   2.495  11.600  1.0926 -1.4538 -0.0409
13507TIP3   OH261935   3.230   1.040   1.465  0.4280 -0.0171  0.0682
13507TIP3    H161936   3.215   1.087   1.383 -1.2362 -1.2829 -0.3727
13507TIP3    H261937   3.205   0.950   1.446  0.1637 -0.3554  1.9209
13508TIP3   OH261938   6.525   5.438   2.240  0.6111 -0.5155  0.3911
13508TIP3    H161939   6.554   5.516   2.192  0.6849 -0.1723  0.9892
13508TIP3    H261940   6.439   5.463   2.275 -0.2492 -1.3886 -1.0381
13509TIP3   OH261941   3.846   1.446  13.746 -0.4078  0.1877  0.2261
13509TIP3    H161942   3.810   1.378  13.690  0.3082  1.3299 -1.6885
13509TIP3    H261943   3.781   1.517  13.744 -0.2911  0.3148  0.7031
13510TIP3   OH261944   1.498   3.397   2.384  0.0456 -0.1588  0.0234
13510TIP3    H161945   1.408   3.405   2.414  0.2091 -0.0779  0.4981
13510TIP3    H261946   1.491   3.352   2.299 -0.5286  0.9760 -0.5408
13511TIP3   OH261947   6.191   2.536   5.122 -0.1803 -0.2338  0.0412
13511TIP3    H161948   6.178   2.525   5.217  3.2636  2.3557  0.9134
13511TIP3    H261949   6.117   2.589   5.094 -0.3743  0.4134  1.6755
13512TIP3   OH261950   2.527   0.632  14.224  0.6431  0.3941 -0.0732
13512TIP3    H161951   2.475   0.710  14.245  1.3231  0.8483 -0.0859
13512TIP3    H261952   2.511   0.618  14.131 -0.8664 -0.5122  0.2959
13513TIP3   OH261953   0.414   5.684   1.689 -0.0762 -0.3291 -0.2192
13513TIP3    H161954   0.487   5.628   1.662  0.3134 -0.3480  0.8306
13513TIP3    H261955   0.441   5.718   1.775 -0.4334  1.2550 -0.7267
13514TIP3   OH261956   4.827   0.157  16.713  0.2137 -0.1221  0.7535
13514TIP3    H161957   4.887   0.164  16.788 -0.5179 -2.7809  1.6266
13514TIP3    H261958   4.880   0.185  16.638  2.2275 -1.3708  1.6618
13515TIP3   OH261959   1.765   5.245  14.394 -0.3608 -0.1147 -0.1603
13515TIP3    H161960   1.719   5.238  14.310 -0.1822  0.1629 -0.2838
13515TIP3    H261961   1.717   5.314  14.441 -1.8699 -1.8067  0.8795
13516TIP3   OH261962   5.347   1.280  12.419 -0.2825 -0.1280 -0.1076
13516TIP3    H161963   5.407   1.255  12.489  0.0281  1.0969  0.0859
13516TIP3    H261964   5.269   1.227  12.435 -0.1050 -0.0811  0.9912
13517TIP3   OH261965   6.600   4.514   0.651  0.3879 -0.3178 -0.0183
13517TIP3    H161966   6.649   4.439   0.616  0.9050  0.0216 -0.0161
13517TIP3    H261967   6.579   4.567   0.575 -0.2577 -0.6248 -0.0584
13518TIP3   OH261968   3.264   0.675  17.215  0.5607 -0.7099  0.4399
13518TIP3    H161969   3.284   0.650  17.125 -1.6235 -0.6153 -0.1078
13518TIP3    H261970   3.342   0.719  17.246  1.8704 -2.0090 -0.9314
13519TIP3   OH261971   3.618   2.646  11.387 -0.3216 -0.2483 -0.5564
13519TIP3    H161972   3.631   2.597  11.306 -2.9734 -0.0834 -1.1163
13519TIP3    H261973   3.526   2.632  11.410  0.5168 -0.7913  2.7752
13520TIP3   OH261974   1.192   0.837  15.276  0.2463  0.5532  0.3228
13520TIP3    H161975   1.235   0.808  15.357  0.7571  0.6798  0.1029
13520TIP3    H261976   1.250   0.804  15.207  0.7320  1.9251  0.0567
13521TIP3   OH261977   4.563   0.790   5.523 -0.2195  0.3588  0.0081
13521TIP3    H161978   4.617   0.732   5.576  1.2122  0.2608 -1.5308
13521TIP3    H261979   4.621   0.863   5.500 -1.2664  1.1600 -0.1674
13522TIP3   OH261980   2.960   5.375  11.632 -0.0991  0.5620  0.2070
13522TIP3    H161981   3.027   5.442  11.646  2.5421 -1.8365 -0.4016
13522TIP3    H261982   2.937   5.345  11.720 -0.1667  1.1787  0.4040
13523TIP3   OH261983   3.041   3.717  14.246  0.0906 -0.6190  0.3596
13523TIP3    H161984   3.037   3.714  14.150 -0.0950  1.1530  0.2984
13523TIP3    H261985   3.084   3.800  14.265  2.0926 -1.9374  1.7854
13524TIP3   OH261986   2.116   6.756  12.773  0.4049  0.3657  0.7655
13524TIP3    H161987   2.165   6.674  12.780 -0.8221 -0.5454 -0.8238
13524TIP3    H261988   2.072   6.765  12.858  0.3357 -0.7631  0.8555
13525TIP3   OH261989   5.033   0.984   1.455  0.2980  0.3982 -0.7005
13525TIP3    H161990   5.041   0.890   1.438 -0.6475  0.3822 -1.0395
13525TIP3    H261991   5.116   1.021   1.424  1.1916 -0.4782  0.5612
13526TIP3   OH261992   0.367   3.448  15.520  0.0091  0.0157  0.0588
13526TIP3    H161993   0.276   3.476  15.525 -0.3314 -1.0414  0.0882
13526TIP3    H261994   0.363   3.354  15.540  1.3263  0.3439  2.0078
13527TIP3   OH261995   5.236   5.541   2.942  0.1403  0.0467  0.1245
13527TIP3    H161996   5.158   5.510   2.894  1.2974 -0.1225 -1.7075
13527TIP3    H261997   5.291   5.463   2.950  0.8061  0.5017  0.0221
13528TIP3   OH261998   4.957   3.070  13.235 -0.1821 -0.5238  0.2568
13528TIP3    H161999   5.016   2.998  13.216 -0.5674 -0.4054 -1.4831
13528TIP3    H262000   4.913   3.046  13.317  0.3312 -1.8364  0.1406
13529TIP3   OH262001   2.177   3.231   4.651 -0.2034  0.6045  0.1849
13529TIP3    H162002   2.182   3.324   4.670  0.8158  0.2599  1.7054
13529TIP3    H262003   2.265   3.197   4.671 -0.3718 -0.5664 -0.9700
13530TIP3   OH262004   5.177   6.174  16.842  0.1557  0.0063 -0.2882
13530TIP3    H162005   5.210   6.253  16.884  0.2102  0.1840 -0.6561
13530TIP3    H262006   5.094   6.201  16.802  1.8388  0.8239 -3.4361
13531TIP3   OH262007   5.769   0.801  15.776  0.1050 -0.0695  0.3342
13531TIP3    H162008   5.842   0.849  15.737  0.6540  0.2322  1.7146
13531TIP3    H262009   5.808   0.750  15.846 -0.6379 -1.8204 -0.4910
13532TIP3   OH262010   6.745   5.820  16.462  0.4639  0.1770 -0.8305
13532TIP3    H162011   6.654   5.808  16.435 -0.1573 -1.0487  1.6936
13532TIP3    H262012   6.749   5.787  16.552  3.1405  1.2845 -0.4706
13533TIP3   OH262013   6.060   3.994  16.250 -0.7720  0.1637 -0.3417
13533TIP3    H162014   5.972   3.962  16.228  0.1925 -3.2887  0.4570
13533TIP3    H262015   6.051   4.032  16.337 -1.6553  0.5551 -0.6030
13534TIP3   OH262016   1.213   3.574  11.229  0.0004  0.3236  0.0266
13534TIP3    H162017   1.183   3.578  11.138  0.2887  0.5862 -0.0535
13534TIP3    H262018   1.281   3.641  11.236  0.0102  0.2744  0.4241
13535TIP3   OH262019   5.014   1.075   5.107  0.2728 -0.3330  0.4289
13535TIP3    H162020   5.048   1.075   5.197  0.1842 -0.0998  0.4626
13535TIP3    H262021   5.065   1.143   5.063  1.0562 -1.1666  0.0183
13536TIP3   OH262022   1.073   3.370   5.011 -0.2948  0.1881  0.0421
13536TIP3    H162023   1.042   3.281   5.028 -0.4273  0.1710 -0.2713
13536TIP3    H262024   1.020   3.426   5.068 -0.7175  0.1330 -0.2945
13537TIP3   OH262025   2.618   3.675  15.807 -0.2003  0.5039  0.1910
13537TIP3    H162026   2.663   3.675  15.723 -2.2573  0.6945 -0.9465
13537TIP3    H262027   2.646   3.594  15.850 -0.4983 -0.4714 -1.4288
13538TIP3   OH262028   3.938   4.104   3.655  0.1958  0.1673 -0.3111
13538TIP3    H162029   4.032   4.121   3.648  0.4003 -0.7144  0.2571
13538TIP3    H262030   3.914   4.136   3.742  0.0646 -0.0748 -0.2600
13539TIP3   OH262031   2.505   4.761  11.270  0.0821 -0.2509  0.0070
13539TIP3    H162032   2.589   4.755  11.224  0.5422 -3.1364  1.0964
13539TIP3    H262033   2.439   4.744  11.203  0.3583  1.5506 -0.7543
13540TIP3   OH262034   1.959   4.976  14.097 -0.3173 -0.2901 -0.0467
13540TIP3    H162035   1.954   4.975  14.193 -0.4875 -0.5101 -0.0565
13540TIP3    H262036   1.882   5.025  14.070  0.6726  1.3250 -0.0195
13541TIP3   OH262037   6.299   0.771  12.602 -0.2339 -0.0405  0.3087
13541TIP3    H162038   6.375   0.811  12.644 -0.3708 -1.0701  1.5839
13541TIP3    H262039   6.226   0.791  12.661 -0.5158 -1.0895  0.3277
13542TIP3   OH262040   0.553   3.343  16.415 -0.0792  0.0151 -0.1261
13542TIP3    H162041   0.540   3.284  16.340  0.7259 -1.4776  0.8827
13542TIP3    H262042   0.466   3.377  16.434 -0.5379 -0.7443 -0.8249
13543TIP3   OH262043   1.307   2.408  15.252 -0.5565  0.7044 -0.2614
13543TIP3    H162044   1.215   2.420  15.276 -0.7610  0.7112 -1.0324
13543TIP3    H262045   1.323   2.315  15.266 -0.9387  0.5238 -0.9780
13544TIP3   OH262046   1.663   2.488   6.130  0.2584 -0.0541  0.2841
13544TIP3    H162047   1.640   2.419   6.068  1.7685  0.2140 -0.5920
13544TIP3    H262048   1.583   2.501   6.182 -0.3375 -1.7913 -0.1527
13545TIP3   OH262049   5.363   2.273  11.659 -0.1100 -0.4981  0.1955
13545TIP3    H162050   5.423   2.203  11.635 -0.6934 -0.4774 -1.3759
13545TIP3    H262051   5.415   2.332  11.713  1.0050 -1.0023 -0.3209
13546TIP3   OH262052   3.046   6.213  12.839  0.4618  0.5133 -0.2016
13546TIP3    H162053   3.126   6.206  12.787 -0.1675  0.5362 -1.1839
13546TIP3    H262054   3.041   6.130  12.887  0.7052  0.2350 -0.6580
13547TIP3   OH262055   6.445   0.590   6.409 -0.3925  0.5985 -0.8097
13547TIP3    H162056   6.411   0.633   6.487 -1.3040 -4.1219  1.6272
13547TIP3    H262057   6.540   0.599   6.416 -0.5378  1.6631 -0.0622
13548TIP3   OH262058   0.833   2.177   3.225  0.4955 -0.7485 -0.2302
13548TIP3    H162059   0.786   2.260   3.220  0.8386 -0.5593 -0.3575
13548TIP3    H262060   0.893   2.189   3.299 -0.6638 -1.5127  0.8547
13549TIP3   OH262061   3.016   5.192   2.010 -0.0350  0.3072 -0.0064
13549TIP3    H162062   2.936   5.199   1.956 -0.1439  0.8709  0.2309
13549TIP3    H262063   2.994   5.237   2.091  0.1458 -0.5158  0.5070
13550TIP3   OH262064   4.725   3.043   6.445  0.3857 -0.7237 -0.0726
13550TIP3    H162065   4.703   3.132   6.473 -0.1353 -1.2879  1.3613
13550TIP3    H262066   4.817   3.033   6.470  1.0606  0.0978 -2.0838
13551TIP3   OH262067   6.262   6.505  11.870 -0.4059  0.2565  0.1213
13551TIP3    H162068   6.174   6.471  11.885 -0.1777 -0.3504  0.1287
13551TIP3    H262069   6.273   6.503  11.775 -0.2223 -0.1395  0.1488
13552TIP3   OH262070   3.002   6.152  12.087  0.2247 -0.1244 -0.0157
13552TIP3    H162071   2.980   6.144  12.180 -2.6839 -2.5907 -0.8301
13552TIP3    H262072   3.041   6.068  12.063 -1.4480 -0.4927 -1.5824
13553TIP3   OH262073   1.475   3.760   0.898 -0.1487  0.1856 -0.1630
13553TIP3    H162074   1.568   3.752   0.919 -0.0529  1.4862 -0.0787
13553TIP3    H262075   1.430   3.726   0.976  0.2446  1.6173  0.7120
13554TIP3   OH262076   3.298   4.283   0.636  0.7573 -0.1877 -0.2439
13554TIP3    H162077   3.383   4.243   0.656  0.0291 -1.7309 -0.1805
13554TIP3    H262078   3.248   4.213   0.594 -0.7025  0.5327  0.2740
13555TIP3   OH262079   5.157   1.042  11.971 -0.7529  0.3264  0.2665
13555TIP3    H162080   5.076   1.089  11.987 -1.2539 -0.6484  0.6640
13555TIP3    H262081   5.143   0.997  11.887 -1.2218 -1.0696  1.0706
13556TIP3   OH262082   0.757   3.818   6.230 -0.3285  0.0975 -0.0669
13556TIP3    H162083   0.750   3.814   6.325 -0.2637 -0.9323 -0.0987
13556TIP3    H262084   0.687   3.878   6.203 -1.9911 -1.5644  0.4405
13557TIP3   OH262085   4.675   6.219   4.105  0.3259 -0.3278  0.0898
13557TIP3    H162086   4.664   6.280   4.178 -1.2819  0.1831 -0.5452
13557TIP3    H262087   4.598   6.162   4.110  0.3187 -0.4241 -1.0795
13558TIP3   OH262088   1.955   0.580  15.705  0.3765 -0.1147  0.2777
13558TIP3    H162089   1.928   0.655  15.758 -1.8300 -1.4726  1.1554
13558TIP3    H262090   2.047   0.565  15.730  0.3155  1.2163  1.3643
13559TIP3   OH262091   2.693   3.886  11.382  0.0706  0.7866  0.0926
13559TIP3    H162092   2.715   3.824  11.313  0.0054  2.4292 -1.4361
13559TIP3    H262093   2.748   3.861  11.456  1.1801 -0.1222 -1.0232
13560TIP3   OH262094   6.657   6.121   2.972 -0.9939  0.0349  0.5837
13560TIP3    H162095   6.723   6.191   2.965 -2.0502  1.0273  0.3676
13560TIP3    H262096   6.684   6.070   3.048  0.4852 -0.0567  0.0117
13561TIP3   OH262097   3.061   2.933   1.927 -0.1219 -0.0527 -0.0386
13561TIP3    H162098   2.995   2.909   1.993  0.8547  2.5298  1.9607
13561TIP3    H262099   3.145   2.924   1.972  0.4700  3.6241 -0.2254
13562TIP3   OH262100   2.127   0.528   1.255  0.0852 -0.4873  0.8562
13562TIP3    H162101   2.089   0.608   1.291  1.7397  0.3077  0.8603
13562TIP3    H262102   2.057   0.490   1.202  0.1173  2.3089 -1.2632
13563TIP3   OH262103   4.903   5.158   5.829 -0.7712 -0.8674  0.0958
13563TIP3    H162104   4.814   5.187   5.845 -0.7552 -1.7956  1.8708
13563TIP3    H262105   4.958   5.229   5.864 -0.7933 -0.6056 -0.3927
13564TIP3   OH262106   3.695   3.438   1.923  0.4288  0.1759 -0.2026
13564TIP3    H162107   3.771   3.381   1.934  0.4280  0.3079  0.5246
13564TIP3    H262108   3.630   3.403   1.984 -0.8928 -1.2630 -2.3400
13565TIP3   OH262109   0.805   2.901   3.531 -0.1164  0.3112  0.3691
13565TIP3    H162110   0.869   2.901   3.459  2.6917  0.7286  2.7568
13565TIP3    H262111   0.801   2.809   3.559 -1.9523 -0.0232 -0.9024
13566TIP3   OH262112   3.215   4.361  12.233  0.7441  0.0863  0.1011
13566TIP3    H162113   3.221   4.266  12.222  0.2358  0.0668 -0.0227
13566TIP3    H262114   3.284   4.396  12.177 -0.5829 -0.0997 -1.7018
13567TIP3   OH262115   4.265   0.497  14.897 -0.0418  0.4953 -0.0050
13567TIP3    H162116   4.308   0.578  14.869  1.1807 -0.7586 -1.8973
13567TIP3    H262117   4.173   0.522  14.908 -0.6672  1.1835 -5.2479
13568TIP3   OH262118   2.079   3.742   1.621  0.3620  0.2431 -0.3125
13568TIP3    H162119   2.016   3.814   1.617  1.0103  1.0628  2.5219
13568TIP3    H262120   2.164   3.787   1.626  0.7104 -0.6560  2.4976
13569TIP3   OH262121   5.273   5.048   5.029  0.4065 -0.1751  0.0575
13569TIP3    H162122   5.305   4.973   5.079 -2.7296 -0.6512  1.4434
13569TIP3    H262123   5.230   5.104   5.094 -3.3788 -0.5879 -2.0013
13570TIP3   OH262124   3.535   5.868  12.175 -0.4745 -0.0496 -0.1428
13570TIP3    H162125   3.466   5.870  12.109  0.6318  2.1381 -1.2802
13570TIP3    H262126   3.615   5.847  12.126  0.2494  0.9801  0.5675
13571TIP3   OH262127   0.951   0.535  13.219 -0.2380  0.0580 -0.2276
13571TIP3    H162128   0.930   0.532  13.312  1.5996 -0.0847  0.2127
13571TIP3    H262129   1.037   0.578  13.215  0.8951 -2.1760 -1.5912
13572TIP3   OH262130   1.745   0.512   1.487  0.8488  0.1178 -0.5854
13572TIP3    H162131   1.786   0.589   1.447  3.3997 -1.3323 -0.9083
13572TIP3    H262132   1.766   0.520   1.580  0.4953  0.1707 -0.5091
13573TIP3   OH262133   2.928   3.204  12.662  0.0850 -0.0877  0.0048
13573TIP3    H162134   2.843   3.193  12.704  0.0641  0.8801  0.2427
13573TIP3    H262135   2.988   3.221  12.736  0.2766  0.3547 -0.2514
13574TIP3   OH262136   1.695   3.628  13.415  0.8502 -0.2492  0.1616
13574TIP3    H162137   1.723   3.678  13.338  0.6937  0.3742  0.5120
13574TIP3    H262138   1.649   3.552  13.378 -0.1499  0.5852 -0.3520
13575TIP3   OH262139   0.359   3.025   5.287 -0.4744  0.3294 -0.6580
13575TIP3    H162140   0.419   2.964   5.243  0.1348  0.9104 -0.6532
13575TIP3    H262141   0.280   3.025   5.233  0.5011  1.5286 -2.1488
13576TIP3   OH262142   5.619   4.185   1.430  0.2392 -0.1273 -0.1817
13576TIP3    H162143   5.603   4.268   1.474  0.5142 -0.5460  0.7348
13576TIP3    H262144   5.714   4.172   1.436  0.2401 -0.3408 -0.6229
13577TIP3   OH262145   5.873   3.200  16.790 -0.5750  0.2040 -0.4296
13577TIP3    H162146   5.967   3.206  16.776 -0.4413 -0.3057  0.1967
13577TIP3    H262147   5.837   3.176  16.705 -0.0749 -0.1311 -0.5500
13578TIP3   OH262148   0.604   2.287  15.684 -0.4157 -0.1121  0.8693
13578TIP3    H162149   0.590   2.382  15.686  0.2346 -0.0174  1.2852
13578TIP3    H262150   0.696   2.277  15.661 -0.9125 -0.6932 -0.8960
13579TIP3   OH262151   2.457   0.335   5.206  0.5398 -0.3296 -0.3841
13579TIP3    H162152   2.408   0.401   5.157 -0.5317  0.0918  1.2539
13579TIP3    H262153   2.393   0.266   5.225  0.6631  0.0534  1.4393
13580TIP3   OH262154   2.094   3.033   5.297  0.3792  0.3688 -0.1468
13580TIP3    H162155   2.139   2.950   5.311  0.8034  0.7167  0.5528
13580TIP3    H262156   2.001   3.008   5.289  0.5827 -0.2461 -0.7012
13581TIP3   OH262157   4.881   0.572   2.103  0.2934  0.0349  0.1435
13581TIP3    H162158   4.863   0.541   2.192  2.2139  1.3513  1.0590
13581TIP3    H262159   4.872   0.495   2.048  0.4459 -1.1327  1.7020
13582TIP3   OH262160   6.399   4.644   0.969 -0.6152 -0.1520 -0.0250
13582TIP3    H162161   6.378   4.552   0.950  1.7919 -0.7401 -0.0090
13582TIP3    H262162   6.374   4.691   0.889 -1.6545 -0.8314 -0.1215
13583TIP3   OH262163   1.812   0.630   1.001 -0.2284 -0.1157  0.1204
13583TIP3    H162164   1.758   0.626   0.922 -0.5002 -0.3778  0.3179
13583TIP3    H262165   1.813   0.540   1.034  0.4330 -0.1419  0.0510
13584TIP3   OH262166   2.654   6.507   4.735 -0.5345 -0.6125  0.4391
13584TIP3    H162167   2.600   6.459   4.798  0.4092 -0.3146  1.4950
13584TIP3    H262168   2.604   6.504   4.653 -2.9930  1.1302  1.8013
13585TIP3   OH262169   1.476   2.409  11.974  0.3471  0.1153  0.2042
13585TIP3    H162170   1.434   2.495  11.981  2.2771  1.0435  0.5944
13585TIP3    H262171   1.408   2.348  12.003 -1.1628  1.4526 -0.3947
13586TIP3   OH262172   0.162   4.219   5.701 -0.5577 -0.1687 -0.3472
13586TIP3    H162173   0.148   4.227   5.607  0.5962 -1.7589 -0.6799
13586TIP3    H262174   0.193   4.129   5.713  3.6078  1.3519  1.0178
13587TIP3   OH262175   2.999   4.458  15.713 -0.1482  0.5975  0.2265
13587TIP3    H162176   3.025   4.433  15.624 -0.0181 -1.1854  0.7483
13587TIP3    H262177   2.995   4.554  15.710 -4.6172  0.5122 -3.0114
13588TIP3   OH262178   0.556   1.764   3.948  0.7312 -0.2223  0.0935
13588TIP3    H162179   0.571   1.859   3.946 -1.1455  0.0980 -2.7715
13588TIP3    H262180   0.636   1.726   3.913  2.1059  0.1684  2.7261
13589TIP3   OH262181   2.181   4.582   0.544  0.8479  0.1243 -0.0623
13589TIP3    H162182   2.257   4.564   0.601  0.7004 -0.3612 -0.0156
13589TIP3    H262183   2.134   4.652   0.589 -0.0580 -1.2512  1.1743
13590TIP3   OH262184   5.027   0.081  11.551  0.1501  0.4928  0.4676
13590TIP3    H162185   5.005   0.173  11.537 -0.2486  0.3494  0.1447
13590TIP3    H262186   5.010   0.039  11.467  5.0300  0.9736 -0.9218
13591TIP3   OH262187   6.164   5.463   5.175 -0.1448  0.0551  0.4455
13591TIP3    H162188   6.113   5.541   5.195 -0.3310 -0.5570  2.4695
13591TIP3    H262189   6.195   5.433   5.260  1.9732 -0.6829 -0.5677
13592TIP3   OH262190   6.196   5.153  11.785  0.5558  0.5242  0.2682
13592TIP3    H162191   6.237   5.188  11.706  0.7164  2.1738  1.0486
13592TIP3    H262192   6.104   5.179  11.778  0.1706 -0.9459 -0.2574
13593TIP3   OH262193   3.104   3.533   1.381 -0.0548 -0.5322  0.0696
13593TIP3    H162194   3.172   3.595   1.354 -0.3378  0.0966  0.7991
13593TIP3    H262195   3.150   3.471   1.437  0.0641 -0.5405 -0.0346
13594TIP3   OH262196   2.154   1.116  11.227  0.3855  0.4986  0.8638
13594TIP3    H162197   2.191   1.175  11.293  0.1900  1.4442  0.1438
13594TIP3    H262198   2.185   1.029  11.252  1.9262  1.0973  1.0757
13595TIP3   OH262199   4.200   6.432  11.555 -0.2759  0.3747 -0.1210
13595TIP3    H162200   4.126   6.447  11.615 -0.7163 -0.9775 -0.3034
13595TIP3    H262201   4.254   6.510  11.563 -0.6245  0.4474  1.6221
13596TIP3   OH262202   6.592   5.882  13.991 -0.1093 -0.1922  0.2468
13596TIP3    H162203   6.515   5.835  13.960 -0.4221  0.3005  0.2840
13596TIP3    H262204   6.563   5.926  14.071  0.5005 -0.8752  0.8526
13597TIP3   OH262205   4.028   3.167  15.936 -0.6912  1.0733 -0.3950
13597TIP3    H162206   4.083   3.188  15.861 -0.1200 -0.9891 -0.5875
13597TIP3    H262207   4.084   3.113  15.992 -1.4892  1.6228  0.9509
13598TIP3   OH262208   4.650   2.054   5.675 -0.6966 -0.0869 -0.5937
13598TIP3    H162209   4.663   2.051   5.580 -1.1105  0.6932 -0.6817
13598TIP3    H262210   4.619   2.143   5.692 -0.8344 -0.2896  0.2483
13599TIP3   OH262211   5.219   1.118   0.241  0.0474  0.2391 -0.5694
13599TIP3    H162212   5.126   1.136   0.258  0.3203  0.8359  0.3479
13599TIP3    H262213   5.247   1.066   0.316  0.2902 -0.5505 -1.1941
13600TIP3   OH262214   5.881   4.329   0.037  0.6263 -0.3391 -0.0414
13600TIP3    H162215   5.890   4.234   0.044  2.8610 -0.3505 -2.4044
13600TIP3    H262216   5.930   4.363   0.113 -2.7273 -1.0797  2.5450
13601TIP3   OH262217   5.942   2.376  15.388 -0.3500 -0.4373  0.8773
13601TIP3    H162218   5.889   2.301  15.413 -1.2465  0.2555  1.0516
13601TIP3    H262219   5.900   2.451  15.431  0.1760  0.2505  0.1964
13602TIP3   OH262220   6.331   3.982  13.782  0.3977  0.7391  0.2299
13602TIP3    H162221   6.259   3.946  13.835 -0.0222  1.6706  0.3092
13602TIP3    H262222   6.406   3.928  13.804  0.1280  0.8670  1.4881
13603TIP3   OH262223   2.453   6.043  11.741 -0.2049  0.1902  0.3078
13603TIP3    H162224   2.519   5.990  11.696 -0.0783 -0.5639  1.3644
13603TIP3    H262225   2.372   5.995  11.729 -0.5378  1.0084 -0.8042
13604TIP3   OH262226   1.067   0.509  11.508 -0.0042 -0.2266 -0.1650
13604TIP3    H162227   1.156   0.485  11.532  0.0547 -0.0957 -0.2503
13604TIP3    H262228   1.078   0.580  11.443 -0.1935  0.8238  0.9351
13605TIP3   OH262229   3.250   2.731  16.980  0.3373 -0.0761 -0.3364
13605TIP3    H162230   3.221   2.822  16.982 -1.1177 -0.4977 -1.3129
13605TIP3    H262231   3.201   2.689  17.051 -2.3436 -1.0039 -2.6064
13606TIP3   OH262232   3.763   6.086   4.260  0.0488  0.6085  0.2842
13606TIP3    H162233   3.825   6.144   4.305 -0.3440  1.5917 -0.4277
13606TIP3    H262234   3.765   6.115   4.169  0.3767 -0.9697 -0.2306
13607TIP3   OH262235   3.676   3.774  13.319  0.0374  0.1533 -0.0887
13607TIP3    H162236   3.676   3.764  13.223  0.7594  0.5035 -0.1278
13607TIP3    H262237   3.636   3.860  13.334  1.9455  1.0922 -0.1982
13608TIP3   OH262238   4.092   5.362   3.113 -0.3076 -0.0425 -0.0318
13608TIP3    H162239   4.028   5.318   3.169  1.2230 -0.6596  1.2833
13608TIP3    H262240   4.086   5.316   3.029 -1.8833  0.1985 -0.0749
13609TIP3   OH262241   3.458   6.548  11.791 -0.0269  0.4498 -0.5125
13609TIP3    H162242   3.491   6.638  11.794  0.8115  0.1719 -1.1266
13609TIP3    H262243   3.527   6.496  11.831 -0.0028 -0.0642 -1.2128
13610TIP3   OH262244   5.628   6.358  16.764 -0.0756 -0.0009 -0.1617
13610TIP3    H162245   5.538   6.377  16.740 -0.4026 -2.2545 -0.8017
13610TIP3    H262246   5.678   6.374  16.684 -0.2368 -1.0662 -0.4733
13611TIP3   OH262247   0.545   1.734  16.476 -0.0908 -0.1450  0.1695
13611TIP3    H162248   0.490   1.700  16.405 -1.3239 -0.8627  1.4302
13611TIP3    H262249   0.515   1.687  16.554  2.1755 -0.3675  0.9401
13612TIP3   OH262250   2.312   3.459   1.351 -0.5774 -0.2118 -0.3249
13612TIP3    H162251   2.391   3.470   1.405  0.0076  0.8280 -1.3465
13612TIP3    H262252   2.249   3.417   1.408  0.6115 -0.7257  0.6299
13613TIP3   OH262253   1.867   1.124   5.097 -0.3180 -0.2146 -0.1225
13613TIP3    H162254   1.782   1.124   5.053  0.3663 -0.7559 -1.4689
13613TIP3    H262255   1.848   1.091   5.185 -1.2074 -2.1561 -1.0083
13614TIP3   OH262256   3.160   2.320  11.161  0.1730  0.5946  0.2764
13614TIP3    H162257   3.163   2.384  11.090  1.8519  0.2228 -0.0053
13614TIP3    H262258   3.104   2.250  11.128  0.2408  0.8308 -0.3411
13615TIP3   OH262259   0.540   1.529   1.313  0.3571  0.9736 -0.3020
13615TIP3    H162260   0.629   1.527   1.278 -1.1047 -1.2436 -4.2434
13615TIP3    H262261   0.514   1.437   1.319 -1.5879  1.5686  0.9777
13616TIP3   OH262262   5.826   6.195  16.425 -0.0242  0.2544 -0.2065
13616TIP3    H162263   5.754   6.137  16.450  0.3691  0.5178  1.6289
13616TIP3    H262264   5.803   6.280  16.465  0.3199  0.8747 -1.3061
13617TIP3   OH262265   5.132   3.758  12.919 -0.1176  0.7135  0.3080
13617TIP3    H162266   5.043   3.766  12.887 -0.9984  1.3948  2.7904
13617TIP3    H262267   5.141   3.666  12.943 -0.6969  0.9596  1.5079
13618TIP3   OH262268   0.085   6.123  15.306 -0.2370 -0.0338  0.0314
13618TIP3    H162269   0.076   6.071  15.385 -2.2634 -1.2835 -0.9882
13618TIP3    H262270   0.109   6.211  15.338  1.9671 -1.2318  1.8069
13619TIP3   OH262271   1.228   6.018  14.907  0.3626 -0.1786 -0.0940
13619TIP3    H162272   1.280   6.078  14.854 -0.2212  0.1024 -0.3504
13619TIP3    H262273   1.141   6.022  14.869 -0.0282 -0.0847  0.8010
13620TIP3   OH262274   0.057   6.185  10.809  0.2080 -0.2100 -0.2443
13620TIP3    H162275   0.074   6.219  10.897 -0.1685  2.3656 -1.1122
13620TIP3    H262276   0.046   6.264  10.755 -3.0862 -1.7533 -1.9318
13621TIP3   OH262277   4.881   0.461  17.221  0.1610  0.2312  0.5089
13621TIP3    H162278   4.813   0.520  17.253  0.0938  0.2650  0.3044
13621TIP3    H262279   4.849   0.433  17.135  0.7739  0.8586  0.0727
13622TIP3   OH262280   5.000   0.886   5.533  0.0811 -0.2384 -0.4320
13622TIP3    H162281   5.092   0.903   5.552 -0.0970 -0.4800  0.6511
13622TIP3    H262282   4.982   0.800   5.571 -1.0057  0.5186  0.8338
13623TIP3   OH262283   4.305   1.841  13.292  0.8939 -0.1132  0.7317
13623TIP3    H162284   4.259   1.758  13.276  1.1845 -0.0909 -0.3151
13623TIP3    H262285   4.322   1.875  13.204  3.5752 -0.4831  1.0581
13624TIP3   OH262286   4.617   6.776  16.703 -0.0434  0.5976 -0.1551
13624TIP3    H162287   4.679   6.848  16.701  2.3920 -1.4122  0.4365
13624TIP3    H262288   4.596   6.759  16.611  2.5713 -0.5443 -0.5950
13625TIP3   OH262289   6.170   3.886   5.749  0.1624 -0.4651  0.4684
13625TIP3    H162290   6.153   3.904   5.842 -1.9125 -1.2970  0.2517
13625TIP3    H262291   6.235   3.952   5.724 -2.1023  2.2492  1.5338
13626TIP3   OH262292   3.891   6.591  16.109 -0.4316 -0.2717 -0.5611
13626TIP3    H162293   3.885   6.497  16.130 -0.7893  0.0816  0.9867
13626TIP3    H262294   3.828   6.632  16.168  0.5669  1.0727 -0.4238
13627TIP3   OH262295   1.449   3.246  16.202 -0.1426 -0.0487  0.6840
13627TIP3    H162296   1.498   3.178  16.155 -2.2538 -1.6698  0.7569
13627TIP3    H262297   1.516   3.307  16.233  1.7735 -1.9374  0.3399
13628TIP3   OH262298   2.267   0.277  13.039  0.3766 -0.2747  0.0251
13628TIP3    H162299   2.275   0.304  12.948  0.9758 -2.0545 -0.4632
13628TIP3    H262300   2.175   0.254  13.049 -0.5526  3.3987  0.9020
13629TIP3   OH262301   1.397   5.725   5.280  0.0785  0.2793 -0.2730
13629TIP3    H162302   1.327   5.661   5.270  0.7806 -0.5008 -0.2773
13629TIP3    H262303   1.477   5.672   5.284  1.0001  1.3168 -3.5428
13630TIP3   OH262304   0.492   1.365   6.523 -0.2642  0.1559 -0.1628
13630TIP3    H162305   0.447   1.446   6.499 -0.1685  0.1259 -0.4453
13630TIP3    H262306   0.449   1.297   6.472 -0.7008 -0.0540  0.4796
13631TIP3   OH262307   0.278   1.229   5.481  0.2254 -0.6920  0.3975
13631TIP3    H162308   0.286   1.248   5.575  1.1007 -0.4257  0.2668
13631TIP3    H262309   0.295   1.135   5.475 -0.3552 -0.8138  0.5639
13632TIP3   OH262310   6.385   0.999   4.323  0.3027  0.2507  0.5023
13632TIP3    H162311   6.465   1.015   4.272  1.8009 -0.5974  2.5161
13632TIP3    H262312   6.339   1.083   4.322  1.3715  0.8437 -0.4069
13633TIP3   OH262313   3.749   3.173  13.933  0.7374  0.5240 -0.4009
13633TIP3    H162314   3.822   3.190  13.993  0.1755  2.2869 -0.1867
13633TIP3    H262315   3.787   3.181  13.846  0.8946  0.9780 -0.2890
13634TIP3   OH262316   1.809   6.153   3.917 -0.1260  0.1094 -0.2345
13634TIP3    H162317   1.806   6.091   3.989  0.7779 -0.7877 -0.9628
13634TIP3    H262318   1.901   6.180   3.911 -0.4969  1.5146  0.0658
13635TIP3   OH262319   1.865   5.235  15.033 -0.0726 -0.2319 -0.4617
13635TIP3    H162320   1.924   5.257  15.105  1.1192 -3.2090 -0.4699
13635TIP3    H262321   1.918   5.250  14.954  0.7774 -2.9150 -0.4693
13636TIP3   OH262322   6.183   3.151  15.842 -0.5240 -0.6944 -0.3478
13636TIP3    H162323   6.245   3.108  15.901 -0.5145  0.6143  0.6230
13636TIP3    H262324   6.145   3.079  15.791  0.2856 -1.7297  0.4741
13637TIP3   OH262325   2.479   4.947   2.973  0.4767 -0.1132 -0.1134
13637TIP3    H162326   2.388   4.976   2.973  0.5298  0.0518  0.0804
13637TIP3    H262327   2.526   5.015   3.021  0.5263 -0.7327  0.7265
13638TIP3   OH262328   4.309   4.383   4.425  0.2779 -0.7888 -0.4200
13638TIP3    H162329   4.224   4.358   4.462 -0.5705 -0.6381 -2.2369
13638TIP3    H262330   4.330   4.312   4.364  1.2690 -0.6273 -0.2637
13639TIP3   OH262331   4.800   0.686  11.247 -0.1642 -0.0858  0.2219
13639TIP3    H162332   4.769   0.688  11.337 -0.3396  1.5495  0.1419
13639TIP3    H262333   4.887   0.726  11.251 -0.0973 -0.1805 -0.2910
13640TIP3   OH262334   2.810   3.151   3.946  0.0412 -0.3015 -0.2576
13640TIP3    H162335   2.756   3.072   3.948  1.5995 -1.3877 -0.6541
13640TIP3    H262336   2.792   3.190   3.861  0.3717 -1.0183 -0.6626
13641TIP3   OH262337   2.741   1.064  12.399  0.4781 -0.2015 -0.2339
13641TIP3    H162338   2.770   1.022  12.317 -0.5297 -0.3573 -0.5285
13641TIP3    H262339   2.672   1.124  12.371  0.7852  0.4369  0.3973
13642TIP3   OH262340   1.714   3.913  14.392  0.3720 -0.5431 -0.6604
13642TIP3    H162341   1.807   3.909  14.372  0.3412 -0.2545 -0.8637
13642TIP3    H262342   1.673   3.933  14.308  0.1163 -0.7814 -0.5944
13643TIP3   OH262343   3.958   2.079   1.408 -0.1172 -0.1457 -0.0145
13643TIP3    H162344   3.884   2.028   1.375  0.8085 -1.8021  0.3835
13643TIP3    H262345   4.033   2.019   1.402  0.9940  1.1510  0.5377
13644TIP3   OH262346   2.576   0.895  12.662 -0.1183 -0.1104  0.3176
13644TIP3    H162347   2.579   0.953  12.585 -1.8728 -2.4707 -1.6140
13644TIP3    H262348   2.661   0.851  12.661 -0.5526 -0.9709 -1.0081
13645TIP3   OH262349   6.193   6.779   2.745  0.5899  0.4029  0.4680
13645TIP3    H162350   6.268   6.722   2.765  0.3722  0.5648  1.8041
13645TIP3    H262351   6.117   6.723   2.755  0.5319  0.1515 -1.2244
13646TIP3   OH262352   0.484   4.089  16.713 -0.0005  0.8100 -0.1633
13646TIP3    H162353   0.579   4.080  16.713  0.1024  1.7093 -1.8768
13646TIP3    H262354   0.467   4.167  16.661 -1.6110  1.5240  1.3778
13647TIP3   OH262355   4.051   3.400  15.196  0.0230  0.3039 -0.1750
13647TIP3    H162356   4.123   3.345  15.165  1.4864  1.2985  1.3307
13647TIP3    H262357   3.997   3.342  15.249  1.5891  0.2694  1.4465
13648TIP3   OH262358   4.704   4.866  11.247  0.0733 -0.0742  0.0291
13648TIP3    H162359   4.616   4.860  11.209 -0.7329 -0.7641  1.9440
13648TIP3    H262360   4.762   4.874  11.171 -1.5938 -0.1008 -1.2835
13649TIP3   OH262361   5.425   2.551   4.486  0.3495  0.2218  0.0530
13649TIP3    H162362   5.349   2.539   4.543  0.8024 -0.9917  0.4120
13649TIP3    H262363   5.402   2.625   4.430 -1.1817 -0.2874  0.0102
13650TIP3   OH262364   6.541   1.038   2.501  0.1216  0.2963 -0.1796
13650TIP3    H162365   6.510   0.948   2.510  0.8163 -0.0249 -0.9424
13650TIP3    H262366   6.475   1.091   2.547  0.8959 -0.8060  2.2657
13651TIP3   OH262367   6.662   4.446   4.233 -0.0668  0.9900  0.3604
13651TIP3    H162368   6.655   4.472   4.324  1.3494  0.1892  0.7227
13651TIP3    H262369   6.604   4.505   4.185 -0.7080  1.4946  1.7598
13652TIP3   OH262370   5.014   3.113   0.912 -0.4554  0.3393 -0.1895
13652TIP3    H162371   4.999   3.157   0.996 -2.6027 -0.6980 -0.0019
13652TIP3    H262372   5.103   3.138   0.887  0.0378  1.0277  2.1740
13653TIP3   OH262373   2.568   5.568  10.801 -0.1667  0.0670 -0.2128
13653TIP3    H162374   2.579   5.473  10.806 -1.1240 -0.0788 -0.6456
13653TIP3    H262375   2.653   5.604  10.825  0.0341 -0.8942  0.5577
13654TIP3   OH262376   6.202   4.982   2.452  0.0163  0.3481  0.2996
13654TIP3    H162377   6.293   5.005   2.432  0.8359 -3.0315 -0.1652
13654TIP3    H262378   6.151   5.056   2.418  2.3981  1.0308 -1.9753
13655TIP3   OH262379   6.536   0.292  16.231 -0.2914  0.4555  0.5923
13655TIP3    H162380   6.612   0.351  16.224  0.8366 -1.0835 -0.3882
13655TIP3    H262381   6.535   0.244  16.149 -3.2136  1.4358  0.0126
13656TIP3   OH262382   3.782   4.014  16.049 -0.4011  0.9572 -0.2485
13656TIP3    H162383   3.870   4.048  16.067  0.2587 -0.8897  0.0716
13656TIP3    H262384   3.725   4.066  16.106  0.4976  2.0391 -0.3183
13657TIP3   OH262385   5.181   2.759   0.007 -0.8576 -0.2325 -0.5599
13657TIP3    H162386   5.150   2.772  -0.082 -3.2234 -0.6146  0.1888
13657TIP3    H262387   5.113   2.708   0.050  0.6216 -0.7626  1.2475
13658TIP3   OH262388   0.196   4.061   6.372  0.1034  0.4840 -0.0924
13658TIP3    H162389   0.224   4.019   6.290  0.7033 -0.3653  0.5375
13658TIP3    H262390   0.256   4.134   6.384 -0.9468  1.5619 -1.1976
13659TIP3   OH262391   4.917   3.750  14.488  0.6313 -0.2283  0.5745
13659TIP3    H162392   4.986   3.796  14.535 -0.8440  1.2412  1.3852
13659TIP3    H262393   4.901   3.671  14.540 -0.0249  0.6921  1.8056
13660TIP3   OH262394   4.300   4.543  14.368  0.4762  0.0880  0.3702
13660TIP3    H162395   4.351   4.548  14.288 -0.9893 -0.7897 -0.6434
13660TIP3    H262396   4.209   4.539  14.338 -0.0606 -0.8128  2.0511
13661TIP3   OH262397   4.458   0.440   3.991 -0.6682 -0.0631  0.6445
13661TIP3    H162398   4.524   0.392   3.941  0.1902  0.6438  1.0892
13661TIP3    H262399   4.471   0.532   3.967 -1.3162  0.1108  0.9345
13662TIP3   OH262400   0.390   4.684   1.309 -0.6337 -0.3362  0.4296
13662TIP3    H162401   0.358   4.755   1.364 -3.3654 -0.4758 -0.8971
13662TIP3    H262402   0.474   4.659   1.348 -0.6821  2.1307  2.2012
13663TIP3   OH262403   2.382   2.758  15.182  0.9338 -0.1981 -0.2035
13663TIP3    H162404   2.394   2.760  15.277 -1.0962 -1.3229  0.1087
13663TIP3    H262405   2.468   2.735  15.147  1.7732  0.5163  1.3356
13664TIP3   OH262406   5.251   6.746   1.133  0.5578 -0.2813  0.0298
13664TIP3    H162407   5.288   6.834   1.119 -0.7401  0.1976 -0.3739
13664TIP3    H262408   5.318   6.687   1.099  0.6627  0.6050 -1.3352
13665TIP3   OH262409   2.530   1.515   4.075 -0.1656  0.3196 -0.0108
13665TIP3    H162410   2.607   1.467   4.106 -0.8846 -0.4356  0.5870
13665TIP3    H262411   2.459   1.489   4.133 -1.6796 -1.5330 -2.5659
13666TIP3   OH262412   1.429   3.280  12.717 -0.2105  0.6164 -0.2683
13666TIP3    H162413   1.447   3.306  12.626 -1.0643 -0.6567 -0.8044
13666TIP3    H262414   1.515   3.282  12.760  0.1326  1.6694 -0.9733
13667TIP3   OH262415   0.608   4.288   3.738 -0.2204 -0.0881 -0.1238
13667TIP3    H162416   0.541   4.355   3.750  0.2976  0.0648  2.2700
13667TIP3    H262417   0.562   4.205   3.745 -0.3779  0.0166  0.0654
13668TIP3   OH262418   5.702   0.910   5.274  0.2045 -1.0897  0.0653
13668TIP3    H162419   5.727   0.968   5.203 -1.3444 -1.9792 -1.2457
13668TIP3    H262420   5.650   0.965   5.333 -0.8443 -1.0173 -0.9174
13669TIP3   OH262421   3.506   5.054   1.193 -0.1951  0.0938 -0.0053
13669TIP3    H162422   3.479   5.049   1.102  0.2749 -0.6665 -0.1160
13669TIP3    H262423   3.602   5.063   1.189 -0.0892 -0.7577  0.4147
13670TIP3   OH262424   0.712   2.841  16.742 -0.2321  0.1110  0.9433
13670TIP3    H162425   0.703   2.768  16.804 -0.4737 -0.2537  0.4752
13670TIP3    H262426   0.629   2.844  16.695  0.0864  0.1556  0.3773
13671TIP3   OH262427   0.912   5.268   2.185  0.3324 -0.0515  0.3251
13671TIP3    H162428   0.943   5.359   2.182 -0.5456  0.2190 -0.9962
13671TIP3    H262429   0.978   5.222   2.237  0.3988  1.4865  1.6679
13672TIP3   OH262430   3.027   1.706  11.258 -0.5258 -0.1030 -0.1709
13672TIP3    H162431   3.010   1.724  11.350 -1.1506  2.7878 -0.8187
13672TIP3    H262432   3.099   1.764  11.234 -1.1879  0.0698 -1.8144
13673TIP3   OH262433   5.315   6.040  12.901 -0.0384  0.3254 -0.0927
13673TIP3    H162434   5.349   6.018  12.815  1.6336  0.3501  0.5304
13673TIP3    H262435   5.305   6.135  12.900  0.4645  0.3818 -0.1081
13674TIP3   OH262436   0.883   1.716   5.695  0.6733  0.1425 -0.0594
13674TIP3    H162437   0.818   1.751   5.634 -0.0138  1.6126  1.4676
13674TIP3    H262438   0.876   1.621   5.687  0.4086  0.3275 -2.0565
13675TIP3   OH262439   0.398   3.079   2.485  0.2898  0.3390  0.2433
13675TIP3    H162440   0.308   3.052   2.506 -0.7083  3.5729  0.3375
13675TIP3    H262441   0.450   3.001   2.500 -2.0352 -0.7006  3.3811
13676TIP3   OH262442   0.444   5.095   3.835 -0.0494 -0.1439 -0.4229
13676TIP3    H162443   0.382   5.166   3.856 -0.0811  0.2250 -1.7114
13676TIP3    H262444   0.439   5.036   3.909 -3.0281 -0.8458 -1.1106
13677TIP3   OH262445   0.252   4.997  12.134 -0.1114  0.0354 -0.5867
13677TIP3    H162446   0.297   4.979  12.051  0.9558 -0.6475  0.1450
13677TIP3    H262447   0.290   5.079  12.164  0.4854 -0.4349 -0.0697
13678TIP3   OH262448   4.452   4.024  14.637 -0.0349 -0.1847  0.4180
13678TIP3    H162449   4.368   3.978  14.630 -0.3665  0.6025 -0.8925
13678TIP3    H262450   4.497   4.005  14.555  0.6151  0.2864  0.6641
13679TIP3   OH262451   6.011   1.968  10.782 -0.4788  0.0230  0.0924
13679TIP3    H162452   5.950   1.947  10.711  0.6612 -0.8207 -0.6570
13679TIP3    H262453   5.968   1.935  10.861 -1.1200 -0.3129 -0.3905
13680TIP3   OH262454   3.152   6.766  16.117  0.0393 -0.4388  0.2987
13680TIP3    H162455   3.097   6.748  16.193  1.9874 -0.7644  1.6884
13680TIP3    H262456   3.223   6.819  16.151  1.0923 -0.7995 -1.2526
13681TIP3   OH262457   0.346   3.472  16.584 -0.5164 -0.3120 -0.7424
13681TIP3    H162458   0.373   3.525  16.660  1.1189 -2.2498  0.0744
13681TIP3    H262459   0.251   3.466  16.593 -0.7169  2.2089 -0.6924
13682TIP3   OH262460   3.231   6.274  13.296 -0.0032  0.3458 -0.2560
13682TIP3    H162461   3.187   6.343  13.344 -0.2148 -0.8816  1.3720
13682TIP3    H262462   3.315   6.262  13.342 -0.1755 -0.7878 -0.2088
13683TIP3   OH262463   0.143   3.913  14.235  0.5339 -0.2170 -0.1752
13683TIP3    H162464   0.061   3.897  14.282 -0.2899  1.7203 -0.8723
13683TIP3    H262465   0.129   3.873  14.149  0.4522 -0.1733 -0.1815
13684TIP3   OH262466   5.881   6.302  11.433 -0.0378  0.0694  0.1484
13684TIP3    H162467   5.873   6.300  11.528 -0.6588  1.1788  0.1308
13684TIP3    H262468   5.798   6.269  11.401 -1.4781  3.5622  0.0027
13685TIP3   OH262469   3.807   0.722  16.181  0.4263  0.1302 -0.4378
13685TIP3    H162470   3.818   0.816  16.197  0.2504  0.0038  0.4799
13685TIP3    H262471   3.896   0.690  16.168  0.7449 -0.0125  1.8688
13686TIP3   OH262472   0.012   2.975  12.488 -0.0580 -0.3476  0.2031
13686TIP3    H162473   0.030   2.889  12.527 -0.5683 -0.0880  1.0133
13686TIP3    H262474  -0.054   3.014  12.545  0.1284  0.5646 -0.2026
13687TIP3   OH262475   4.220   0.366  16.636  0.0183  0.4156 -0.0885
13687TIP3    H162476   4.206   0.290  16.579 -0.7029 -1.2649  2.2780
13687TIP3    H262477   4.149   0.426  16.612  0.6381  0.4373 -2.0214
13688TIP3   OH262478   4.016   2.419   6.511  0.0133  0.2776 -0.3258
13688TIP3    H162479   4.070   2.472   6.452 -1.2646  0.0452 -1.7300
13688TIP3    H262480   3.933   2.408   6.465 -0.6437 -0.8081  1.0636
13689TIP3   OH262481   3.606   0.673  11.592  0.1280 -0.8242  0.0238
13689TIP3    H162482   3.554   0.608  11.544  0.9839 -1.2602 -0.3271
13689TIP3    H262483   3.542   0.723  11.642 -0.5681 -1.7644  0.0868
13690TIP3   OH262484   2.609   5.973   2.558 -0.1258  0.4481  0.0054
13690TIP3    H162485   2.636   6.059   2.590  0.3816  0.0622  0.6291
13690TIP3    H262486   2.681   5.946   2.501  0.2305 -0.0323  0.6741
13691TIP3   OH262487   4.787   2.324   4.015  0.5058  0.3955 -0.4223
13691TIP3    H162488   4.782   2.412   4.052  0.8749 -0.6163  2.1812
13691TIP3    H262489   4.863   2.327   3.956  0.9807  1.6153  0.2333
13692TIP3   OH262490   3.722   1.247  14.021 -0.1359  0.6637  0.3893
13692TIP3    H162491   3.804   1.297  14.026  0.9026 -0.8568 -0.8466
13692TIP3    H262492   3.748   1.162  13.985 -2.2570  0.1237  0.0601
13693TIP3   OH262493   5.197   3.958  15.990  0.2012  0.3910 -0.0220
13693TIP3    H162494   5.129   3.890  15.990  0.7507 -0.1679 -1.5111
13693TIP3    H262495   5.227   3.961  16.081 -1.2915  0.1247  0.5067
13694TIP3   OH262496   2.400   4.861  11.929  0.4301 -0.7286  0.1910
13694TIP3    H162497   2.319   4.812  11.914  0.3373 -1.0892  1.7221
13694TIP3    H262498   2.469   4.795  11.925  0.3267 -0.9724  2.0407
13695TIP3   OH262499   5.385   4.362  11.202  0.1909 -0.9234 -0.2979
13695TIP3    H162500   5.296   4.331  11.217  0.1076 -0.5091  0.0890
13695TIP3    H262501   5.433   4.285  11.172 -0.3513 -1.1005 -0.7253
13696TIP3   OH262502   2.482   0.992  11.104 -1.4586  0.7158 -0.1949
13696TIP3    H162503   2.422   0.935  11.154 -0.9395 -0.1791 -0.5691
13696TIP3    H262504   2.442   0.998  11.018 -1.0409  0.1421 -0.4357
13697TIP3   OH262505   0.680   2.621   5.860 -0.1857  0.3170 -0.1611
13697TIP3    H162506   0.680   2.715   5.842  2.2713  0.5236  0.8141
13697TIP3    H262507   0.660   2.615   5.953 -1.6286 -0.2288 -0.4849
13698TIP3   OH262508   1.499   3.837   2.003 -0.0345 -0.1129  0.3721
13698TIP3    H162509   1.502   3.748   2.040 -0.0276  0.9119  2.9528
13698TIP3    H262510   1.420   3.876   2.042  0.6590  1.4185  0.2573
13699TIP3   OH262511   2.614   5.701  12.142  0.2211  0.0133 -0.0739
13699TIP3    H162512   2.553   5.684  12.213  1.3147  0.3796  0.9812
13699TIP3    H262513   2.638   5.614  12.110  0.0084 -0.1691  0.2579
13700TIP3   OH262514   4.120   3.073   5.821 -0.1196  0.4130 -0.5426
13700TIP3    H162515   4.072   3.125   5.885  0.2278 -0.3002  0.3189
13700TIP3    H262516   4.063   2.998   5.802 -0.1656  0.5533 -0.9671
13701TIP3   OH262517   0.001   0.489  15.530  0.1805  0.5767  0.3865
13701TIP3    H162518   0.059   0.437  15.475 -0.3612 -0.9580  1.2286
13701TIP3    H262519  -0.082   0.490  15.483 -0.3484 -0.9274  1.2519
13702TIP3   OH262520   3.116   1.898   4.807  0.1799 -0.1515  0.3698
13702TIP3    H162521   3.103   1.810   4.770  1.3951  0.2658 -1.1013
13702TIP3    H262522   3.032   1.941   4.795 -0.6456 -1.3225  1.7376
13703TIP3   OH262523   4.917   0.338   0.966 -0.2543 -0.3061  0.1473
13703TIP3    H162524   4.935   0.368   0.877  0.5042  1.0326  0.7521
13703TIP3    H262525   4.967   0.396   1.022 -2.3667  0.1947  1.5860
13704TIP3   OH262526   6.761   6.117  11.267  0.0145  0.5273  0.0012
13704TIP3    H162527   6.810   6.045  11.228 -1.3225 -0.1756 -0.4288
13704TIP3    H262528   6.793   6.124  11.357  2.7105  1.7737 -1.0087
13705TIP3   OH262529   3.001   5.640  12.003 -0.4153  0.2689  0.3717
13705TIP3    H162530   3.039   5.682  11.926 -0.4252  1.0145  0.7604
13705TIP3    H262531   2.932   5.700  12.031 -1.0290 -0.4570  0.4128
13706TIP3   OH262532   3.683   3.321   2.921 -0.8711 -0.2083 -0.2791
13706TIP3    H162533   3.646   3.344   3.006  2.3448  0.4563  1.0083
13706TIP3    H262534   3.776   3.304   2.939 -0.2917 -0.8075 -3.5278
13707TIP3   OH262535   3.869   3.462   5.988  0.3610 -0.6363  0.0426
13707TIP3    H162536   3.964   3.457   5.997  0.4829 -2.3340 -1.8651
13707TIP3    H262537   3.836   3.393   6.045  0.4350 -1.8405 -1.3353
13708TIP3   OH262538   1.387   1.435  14.029 -1.0719 -0.3326 -0.1659
13708TIP3    H162539   1.349   1.352  14.061 -0.4365 -1.1636 -1.5279
13708TIP3    H262540   1.474   1.438  14.069 -1.4356  0.1295  0.6034
13709TIP3   OH262541   0.981   5.601  12.314  0.4869 -0.2338  0.1676
13709TIP3    H162542   0.966   5.527  12.255 -0.7497 -0.0942  0.2793
13709TIP3    H262543   0.975   5.678  12.258 -1.6008 -0.0511  0.6041
13710TIP3   OH262544   2.147   4.099  15.119  0.1327 -0.6219  0.5695
13710TIP3    H162545   2.165   4.014  15.160 -0.5579 -1.1960 -0.2954
13710TIP3    H262546   2.052   4.106  15.118  0.1240 -0.6849 -1.0320
13711TIP3   OH262547   6.171   0.819  17.195  0.2332 -0.5524 -0.1266
13711TIP3    H162548   6.214   0.890  17.148  0.5761 -0.2795  0.5866
13711TIP3    H262549   6.243   0.766  17.230 -0.0125 -0.5494  0.3871
13712TIP3   OH262550   2.974   6.476  17.091 -0.0245 -0.6941  0.2929
13712TIP3    H162551   2.929   6.395  17.113  0.2750 -0.8295  0.4024
13712TIP3    H262552   3.055   6.449  17.049 -0.1777 -0.4452 -0.1810
13713TIP3   OH262553   4.929   3.097  11.897 -0.2774  0.0730 -0.2699
13713TIP3    H162554   4.851   3.130  11.941 -0.6483 -1.2519  0.1114
13713TIP3    H262555   5.002   3.123  11.953 -0.6833 -0.9273  0.7425
13714TIP3   OH262556   0.773   0.661   0.458  0.0126  0.8971  0.5615
13714TIP3    H162557   0.744   0.752   0.456 -1.5412  0.4104 -2.6129
13714TIP3    H262558   0.692   0.610   0.457  0.8917 -0.5151  0.2016
13715TIP3   OH262559   1.023   0.719   1.882  0.0861 -0.4787  0.3845
13715TIP3    H162560   0.958   0.650   1.899  0.5369 -0.5768  1.7731
13715TIP3    H262561   0.972   0.800   1.880 -0.3150 -0.7356 -0.3396
13716TIP3   OH262562   5.232   3.632  11.866 -0.3513 -0.4408 -0.1150
13716TIP3    H162563   5.311   3.609  11.817 -0.8702  0.2661 -1.3001
13716TIP3    H262564   5.168   3.567  11.840 -0.2170 -0.9254  0.7360
13717TIP3   OH262565   2.419   2.224   3.964 -0.4378 -0.8447 -0.0093
13717TIP3    H162566   2.489   2.218   4.029 -0.7355  0.3978  0.4371
13717TIP3    H262567   2.385   2.313   3.973 -0.2704 -0.5572 -2.1033
13718TIP3   OH262568   5.099   4.765  16.225 -0.0236 -0.5007 -0.3354
13718TIP3    H162569   5.049   4.723  16.155  1.9038 -0.3332 -1.8437
13718TIP3    H262570   5.124   4.693  16.283 -0.0918 -0.8950 -0.7949
13719TIP3   OH262571   6.204   2.198  10.801 -0.2106 -0.1498  0.2441
13719TIP3    H162572   6.266   2.162  10.737  1.4204 -1.2673  2.4132
13719TIP3    H262573   6.120   2.157  10.779  0.4228 -0.8467 -0.9019
13720TIP3   OH262574   3.379   6.627  13.906 -0.1219  0.7643  0.2880
13720TIP3    H162575   3.392   6.720  13.891 -1.4074  0.6994 -1.4378
13720TIP3    H262576   3.312   6.602  13.842  2.7185 -2.0701 -1.7487
13721TIP3   OH262577   5.915   2.367  11.481 -0.0010 -0.1042  0.2750
13721TIP3    H162578   5.961   2.423  11.418 -0.0413  0.9530  1.1759
13721TIP3    H262579   5.823   2.381  11.462  0.0019 -0.4456  0.0040
13722TIP3   OH262580   4.104   0.563   5.253  0.8478 -0.3843  0.0855
13722TIP3    H162581   4.145   0.512   5.323  0.6175 -0.3903  0.2156
13722TIP3    H262582   4.091   0.650   5.290 -0.2186 -0.6652  0.4058
13723TIP3   OH262583   3.462   2.159  15.099 -0.4458  0.1249  0.1546
13723TIP3    H162584   3.507   2.075  15.088  1.9666  1.2790  0.8720
13723TIP3    H262585   3.517   2.208  15.160 -1.6313  2.3690 -0.5293
13724TIP3   OH262586   4.247   0.880  14.277 -0.0273  0.2104 -0.2942
13724TIP3    H162587   4.284   0.962  14.309  1.0611 -0.3164 -0.1952
13724TIP3    H262588   4.322   0.833  14.240 -0.8199 -0.2939 -1.2878
13725TIP3   OH262589   1.429   0.647  14.582 -0.2748 -0.2837 -0.1623
13725TIP3    H162590   1.470   0.624  14.666 -2.0155 -1.6541  0.3378
13725TIP3    H262591   1.432   0.567  14.531 -0.3886  0.2006 -0.9386
13726TIP3   OH262592   1.568   5.346  11.668  0.2190 -0.3494  0.2217
13726TIP3    H162593   1.603   5.426  11.708 -0.1697  0.2592 -0.6207
13726TIP3    H262594   1.499   5.378  11.610  0.4197 -1.2567 -0.5233
13727TIP3   OH262595   0.208   6.689  15.171  0.1738  0.1075  0.0144
13727TIP3    H162596   0.159   6.620  15.125 -0.6157  1.0270 -0.5684
13727TIP3    H262597   0.188   6.769  15.121  1.6054  0.6476  0.2818
13728TIP3   OH262598   6.385   5.610   5.853  0.2079 -0.5416 -0.3365
13728TIP3    H162599   6.458   5.668   5.831  0.0309 -0.0496  0.3685
13728TIP3    H262600   6.414   5.563   5.931  0.1098 -0.9637 -0.5532
13729TIP3   OH262601   5.936   6.205   0.440 -0.0103 -0.2768  0.1924
13729TIP3    H162602   5.851   6.180   0.403  0.0410  0.0167 -0.1208
13729TIP3    H262603   5.917   6.225   0.531 -0.2026 -0.6409  0.2320
13730TIP3   OH262604   3.595   2.001   5.557 -0.5244  0.2526 -0.6724
13730TIP3    H162605   3.661   1.970   5.495 -1.9262 -0.7989 -1.6907
13730TIP3    H262606   3.572   2.089   5.526 -0.5986  0.0677 -1.1564
13731TIP3   OH262607   1.246   5.144   6.359 -0.1128 -0.1126  0.2718
13731TIP3    H162608   1.237   5.230   6.399  0.9973 -1.1326  2.7970
13731TIP3    H262609   1.164   5.099   6.378  0.2174 -0.4192  0.9883
13732TIP3   OH262610   0.799   5.163   3.277 -0.4773 -0.5250 -0.0401
13732TIP3    H162611   0.832   5.138   3.364 -1.8198  0.2689  0.7065
13732TIP3    H262612   0.824   5.255   3.267 -0.0479 -0.7029 -0.6388
13733TIP3   OH262613   2.375   6.127   1.968  0.0524  0.5752  0.5586
13733TIP3    H162614   2.432   6.192   2.010 -0.2171  1.6520 -0.6883
13733TIP3    H262615   2.424   6.098   1.891  0.0719 -0.5464  0.9869
13734TIP3   OH262616   0.207   0.935  16.974  0.0756 -0.1829  0.2193
13734TIP3    H162617   0.212   0.857  16.918  1.9908 -0.4296  0.6859
13734TIP3    H262618   0.226   0.902  17.062 -0.4599  0.6042  0.6325
13735TIP3   OH262619   4.854   5.566   2.155 -0.3545 -0.3375 -0.2827
13735TIP3    H162620   4.795   5.629   2.113  1.2977  1.9366  0.6766
13735TIP3    H262621   4.913   5.538   2.086  0.5742  1.2257 -0.1432
13736TIP3   OH262622   3.606   5.683  12.693 -0.3207 -0.5485  0.0320
13736TIP3    H162623   3.541   5.750  12.713 -1.0817 -1.3999  0.4551
13736TIP3    H262624   3.593   5.664  12.600 -0.2434 -0.2611 -0.0382
13737TIP3   OH262625   3.472   4.169  14.540 -0.0462  0.3579  0.4360
13737TIP3    H162626   3.531   4.135  14.472 -0.1546 -1.1574  1.0726
13737TIP3    H262627   3.501   4.259  14.554  1.3362  0.0099 -0.1179
13738TIP3   OH262628   3.592   5.396   5.734  0.4671  0.0171  0.1968
13738TIP3    H162629   3.643   5.408   5.814 -2.2851 -0.3947  2.0841
13738TIP3    H262630   3.628   5.317   5.695  1.5834 -0.0041  1.2129
13739TIP3   OH262631   5.583   5.742  15.212  0.1909  0.3581 -0.1381
13739TIP3    H162632   5.616   5.659  15.246 -0.4049  0.8918  1.7828
13739TIP3    H262633   5.645   5.807  15.245 -1.1656  1.0386  1.1133
13740TIP3   OH262634   6.225   5.226  10.797  0.3631  0.1240 -0.1126
13740TIP3    H162635   6.248   5.141  10.833  2.8816  0.7096 -0.2435
13740TIP3    H262636   6.256   5.223  10.707  1.1529  1.4116  0.0972
13741TIP3   OH262637   3.867   4.662  16.118 -0.6763 -0.3286  0.0561
13741TIP3    H162638   3.844   4.733  16.177  1.1035  0.8597 -0.6432
13741TIP3    H262639   3.832   4.689  16.033 -4.2723 -2.5746  0.7121
13742TIP3   OH262640   6.646   5.672  15.390 -0.4506  0.1365 -0.0655
13742TIP3    H162641   6.641   5.733  15.317 -1.4866  1.2341  0.9014
13742TIP3    H262642   6.588   5.709  15.457 -2.9015 -3.0820 -0.2783
13743TIP3   OH262643   2.553   4.457  11.084 -0.2458 -0.0722 -0.5900
13743TIP3    H162644   2.647   4.472  11.073 -0.1109 -0.8754 -0.5782
13743TIP3    H262645   2.512   4.510  11.015  0.3533 -1.5502 -2.1224
13744TIP3   OH262646   2.061   1.704   0.615 -0.1983 -0.3246  0.0355
13744TIP3    H162647   2.155   1.702   0.597 -0.5483  1.5922 -2.2328
13744TIP3    H262648   2.036   1.611   0.621  1.6055 -0.8841 -0.6801
13745TIP3   OH262649   6.011   3.756  11.712  0.1636  0.0699 -0.0014
13745TIP3    H162650   5.925   3.775  11.751  0.1053 -0.0134 -0.0889
13745TIP3    H262651   6.014   3.812  11.634 -0.1155 -0.4700 -0.4016
13746TIP3   OH262652   5.301   3.147  14.590 -0.5832 -0.0447  0.7839
13746TIP3    H162653   5.362   3.099  14.645  1.4899 -1.3762 -2.5230
13746TIP3    H262654   5.345   3.230  14.572 -1.0172  0.1685  0.6922
13747TIP3   OH262655   6.574   2.756  16.064  0.5814  0.1886 -0.4437
13747TIP3    H162656   6.521   2.821  16.109 -1.4942 -1.0104 -1.1074
13747TIP3    H262657   6.554   2.673  16.107  2.7120 -0.1345 -0.0249
13748TIP3   OH262658   1.249   3.575   2.165  0.4735 -0.0914 -0.5036
13748TIP3    H162659   1.203   3.493   2.145  0.1145 -0.0340  0.0684
13748TIP3    H262660   1.340   3.557   2.142  0.7244 -1.2666  1.2667
13749TIP3   OH262661   0.199   5.652  12.911  0.1311  0.5073  0.6744
13749TIP3    H162662   0.236   5.681  12.827 -0.4586 -0.6923 -0.0257
13749TIP3    H262663   0.119   5.606  12.886 -1.6819  2.7632  2.1425
13750TIP3   OH262664   3.244   0.388   4.268 -0.2779  0.4528 -0.1662
13750TIP3    H162665   3.207   0.373   4.181 -0.1877  0.7918 -0.2644
13750TIP3    H262666   3.324   0.335   4.270 -0.1929  0.5728 -0.3493
13751TIP3   OH262667   2.672   2.655   1.807 -0.1199  0.0292 -0.0467
13751TIP3    H162668   2.706   2.744   1.812  0.8481 -0.4386  2.2293
13751TIP3    H262669   2.717   2.617   1.731 -0.4560  1.4035 -0.9665
13752TIP3   OH262670   4.625   2.450  14.024 -0.5065  0.1641  0.4472
13752TIP3    H162671   4.663   2.533  14.053  3.1199 -1.0491 -0.5638
13752TIP3    H262672   4.577   2.471  13.945  2.7612  0.9452 -1.4361
13753TIP3   OH262673   1.689   5.746  16.007  0.4442 -0.8970  0.0772
13753TIP3    H162674   1.736   5.779  15.931  0.8206  1.7880  1.4284
13753TIP3    H262675   1.752   5.752  16.078 -1.8060  2.7849  1.9371
13754TIP3   OH262676   2.321   5.094   1.342 -0.3190  0.0602 -0.6684
13754TIP3    H162677   2.380   5.100   1.418 -0.3717 -0.0969 -0.6154
13754TIP3    H262678   2.235   5.074   1.380 -0.4308  0.4116 -0.7367
13755TIP3   OH262679   2.011   3.110  17.196  0.1899  0.8860 -0.5950
13755TIP3    H162680   1.948   3.062  17.250 -0.4357  0.3302 -1.7958
13755TIP3    H262681   1.983   3.202  17.204  2.0427  1.2296  2.5586
13756TIP3   OH262682   3.042   5.894  15.312  0.6075  0.0889 -0.0201
13756TIP3    H162683   3.131   5.927  15.299  1.2111 -0.4334  2.4896
13756TIP3    H262684   3.012   5.938  15.392 -0.6957 -1.1361  0.1743
13757TIP3   OH262685   2.497   5.762   1.735 -0.7487  0.2303  0.5839
13757TIP3    H162686   2.426   5.703   1.761 -0.1797  0.3804  2.5408
13757TIP3    H262687   2.522   5.732   1.647 -2.0706 -0.9132  0.5777
13758TIP3   OH262688   4.921   6.510  16.927 -0.1189  0.0444 -0.2400
13758TIP3    H162689   4.970   6.465  16.996 -0.2406  0.1421 -0.0906
13758TIP3    H262690   4.968   6.487  16.847  0.0828  0.0141 -0.1137
13759TIP3   OH262691   6.210   3.787   6.896 -0.2664 -0.4277  0.0034
13759TIP3    H162692   6.268   3.845   6.946 -0.6593  1.4373 -1.6527
13759TIP3    H262693   6.155   3.745   6.963  1.6938 -0.8005  1.4338
13760TIP3   OH262694   6.438   1.789   1.527  0.1989  0.2105  0.3731
13760TIP3    H162695   6.464   1.824   1.613 -2.8424  1.8929  0.6675
13760TIP3    H262696   6.474   1.851   1.464  0.2305  0.3733  0.5504
13761TIP3   OH262697   2.437   3.520   4.024 -0.3678 -0.1410 -0.2796
13761TIP3    H162698   2.510   3.458   4.029 -1.2621 -1.1934 -0.1538
13761TIP3    H262699   2.373   3.478   3.967 -2.0546 -0.4820  1.8015
13762TIP3   OH262700   2.933   5.188   4.031  0.5632 -0.0303  0.7202
13762TIP3    H162701   2.871   5.123   4.000 -0.0461  1.3865 -1.0931
13762TIP3    H262702   2.902   5.211   4.119 -1.2200  0.3374  0.0128
13763TIP3   OH262703   6.469   4.370  12.625 -0.4604  0.1270  0.2189
13763TIP3    H162704   6.398   4.433  12.622 -0.5192  0.0855  0.5937
13763TIP3    H262705   6.547   4.420  12.601 -0.6223  0.1622 -0.2328
13764TIP3   OH262706   4.706   1.296  14.286  0.6255 -0.3424 -0.0153
13764TIP3    H162707   4.790   1.341  14.297  1.7212 -1.5645 -2.7429
13764TIP3    H262708   4.650   1.361  14.242  0.6135 -0.0421  0.4347
13765TIP3   OH262709   5.277   5.717  16.985  0.2567 -0.2945 -0.0796
13765TIP3    H162710   5.240   5.792  17.032  1.1259 -1.3285  2.3597
13765TIP3    H262711   5.331   5.756  16.917 -1.0178  1.2695 -0.2372
13766TIP3   OH262712   4.586   3.720   3.693 -0.0206 -0.5823  0.1334
13766TIP3    H162713   4.508   3.678   3.656 -0.6578  0.4698  0.2457
13766TIP3    H262714   4.655   3.705   3.628 -0.8641  0.3348 -1.0021
13767TIP3   OH262715   2.611   3.224   2.312 -0.9942  0.2021  0.2321
13767TIP3    H162716   2.683   3.218   2.250 -0.5771 -0.7254  0.7844
13767TIP3    H262717   2.600   3.318   2.327 -0.3562  0.3819 -0.3806
13768TIP3   OH262718   0.957   3.099  17.213 -0.1832  0.2912 -0.0471
13768TIP3    H162719   0.958   3.079  17.307  1.2585  0.8054  0.0671
13768TIP3    H262720   0.946   3.194  17.209  0.5687  0.3715 -0.3587
13769TIP3   OH262721   6.145   0.074  16.489  0.4879  0.4221  0.4396
13769TIP3    H162722   6.237   0.060  16.511  0.6707  0.7470 -0.1077
13769TIP3    H262723   6.116  -0.010  16.453 -0.0914 -0.4293  2.8330
13770TIP3   OH262724   4.870   5.721   4.654  0.0620 -0.5293 -0.6196
13770TIP3    H162725   4.924   5.658   4.701 -0.8611 -1.5243 -0.8768
13770TIP3    H262726   4.826   5.770   4.723  1.3010  0.3057 -0.4087
13771TIP3   OH262727   2.377   6.047  13.284  0.0858 -0.2508 -0.0533
13771TIP3    H162728   2.429   6.004  13.352  0.7960  0.6162 -0.0343
13771TIP3    H262729   2.434   6.116  13.251 -0.9966  0.5902 -0.1756
13772TIP3   OH262730   4.568   0.300  14.257 -0.0078 -0.0638  0.2536
13772TIP3    H162731   4.663   0.309  14.265  0.0665 -0.4903 -0.1357
13772TIP3    H262732   4.553   0.282  14.165 -0.3667 -1.2335  0.5353
13773TIP3   OH262733   4.505   4.530   1.933  0.1284 -0.1701  0.7816
13773TIP3    H162734   4.474   4.599   1.874  2.4618  1.5261  1.4881
13773TIP3    H262735   4.425   4.498   1.975 -1.2146  0.7471 -0.9908
13774TIP3   OH262736   0.906   6.132   0.264 -0.0520  0.4046 -0.1735
13774TIP3    H162737   0.844   6.147   0.335  1.8874 -1.6897  2.0503
13774TIP3    H262738   0.905   6.037   0.250  4.0371  0.0171  1.3250
13775TIP3   OH262739   0.658   1.778   0.074 -0.1535 -0.1565  0.6446
13775TIP3    H162740   0.643   1.763  -0.019 -3.2919 -1.4284  1.2874
13775TIP3    H262741   0.621   1.865   0.091 -1.5514 -0.8279  1.0993
13776TIP3   OH262742   6.135   5.671   3.897 -0.2199  0.3161  0.4099
13776TIP3    H162743   6.213   5.653   3.950 -0.3364 -0.2564  0.3920
13776TIP3    H262744   6.170   5.696   3.811 -0.0395  0.8255  0.6293
13777TIP3   OH262745   6.335   5.376   5.379  0.1160  0.3131 -0.5867
13777TIP3    H162746   6.410   5.434   5.370  1.5190 -1.8252 -3.4544
13777TIP3    H262747   6.372   5.294   5.411 -0.7823 -1.0690 -2.9585
13778TIP3   OH262748   2.572   5.698  11.473 -0.3299 -0.1367 -0.3908
13778TIP3    H162749   2.604   5.709  11.384 -0.1045 -0.9470 -0.4065
13778TIP3    H262750   2.623   5.626  11.509 -1.6656 -0.9984 -0.1995
13779TIP3   OH262751   3.654   4.359  12.057  0.5591 -0.0284 -0.2986
13779TIP3    H162752   3.678   4.352  11.964  0.1179  0.4140 -0.4476
13779TIP3    H262753   3.728   4.322  12.104  0.3439 -1.1865 -0.8707
13780TIP3   OH262754   6.728   1.796   2.094 -0.2384 -0.4236 -0.3832
13780TIP3    H162755   6.813   1.751   2.093 -0.9119 -1.7063 -0.2766
13780TIP3    H262756   6.730   1.848   2.175  0.9285  0.5052 -0.9934
13781TIP3   OH262757   0.881   1.819   2.410  0.5084 -0.1037 -0.1524
13781TIP3    H162758   0.962   1.858   2.441  1.0127 -1.3185  0.0709
13781TIP3    H262759   0.822   1.894   2.396  1.9406  0.8501 -1.1531
13782TIP3   OH262760   5.734   5.307  11.576 -0.6616 -0.3640 -0.3030
13782TIP3    H162761   5.668   5.238  11.578 -2.0294  0.9316 -0.0815
13782TIP3    H262762   5.758   5.315  11.484 -0.1183 -1.4537 -0.2767
13783TIP3   OH262763   4.800   2.319   1.553  0.3027 -0.0536  0.1934
13783TIP3    H162764   4.885   2.285   1.580  0.9979  1.8348  0.4491
13783TIP3    H262765   4.777   2.266   1.476  2.5265  0.5711 -0.9468
13784TIP3   OH262766   4.384   2.542   2.178  0.6202 -0.2803 -0.3370
13784TIP3    H162767   4.410   2.527   2.269 -1.2394 -0.5119  0.1759
13784TIP3    H262768   4.371   2.454   2.142  0.4243 -0.1669 -0.5453
13785TIP3   OH262769   3.074   2.723  12.037  0.0613 -0.4490 -0.0149
13785TIP3    H162770   3.126   2.772  11.973 -1.6148 -1.7368 -2.4776
13785TIP3    H262771   3.137   2.669  12.084  1.2936  0.1881 -0.9168
13786TIP3   OH262772   5.976   2.040   4.244  0.3201 -0.3764 -0.0474
13786TIP3    H162773   5.958   2.115   4.187 -1.3984 -1.2194 -0.6534
13786TIP3    H262774   5.940   2.064   4.329  1.3259  0.1736  0.2314
13787TIP3   OH262775   0.499   3.982   2.076 -0.3699 -0.0089  0.4824
13787TIP3    H162776   0.450   3.929   2.139  0.2483  0.2378  1.1872
13787TIP3    H262777   0.432   4.022   2.021 -0.8001 -2.5365 -0.9057
13788TIP3   OH262778   6.003   0.552   4.894 -0.2485 -0.1037 -0.1371
13788TIP3    H162779   5.975   0.500   4.819  0.2092  1.1546 -1.2024
13788TIP3    H262780   6.076   0.604   4.862 -0.4229  0.8996  1.0083
13789TIP3   OH262781   6.213   1.349  14.773 -0.0358 -0.2588 -0.1338
13789TIP3    H162782   6.271   1.311  14.839 -1.4181  0.1774  1.3713
13789TIP3    H262783   6.256   1.431  14.748  0.7556 -0.6796 -0.1932
13790TIP3   OH262784   1.269   2.328   5.969  0.3033 -0.0309 -0.1297
13790TIP3    H162785   1.237   2.242   5.997  0.0793 -0.3110 -1.2354
13790TIP3    H262786   1.191   2.374   5.937  0.6836 -0.0304 -1.0841
13791TIP3   OH262787   1.922   4.859   5.653  0.0636 -0.4214 -0.1769
13791TIP3    H162788   1.862   4.819   5.716  1.5486 -1.8953  0.3470
13791TIP3    H262789   1.969   4.926   5.704  1.2419 -1.5917  0.2911
13792TIP3   OH262790   0.274   4.853   6.396  0.4959 -0.2493  0.1304
13792TIP3    H162791   0.349   4.823   6.344  1.2581 -1.9773  2.1554
13792TIP3    H262792   0.306   4.854   6.486 -2.3316 -2.5385  1.2513
13793TIP3   OH262793   4.785   1.950   5.907 -0.0016 -0.8256 -0.0235
13793TIP3    H162794   4.760   1.976   5.819  1.9124 -1.4772 -0.7796
13793TIP3    H262795   4.770   1.856   5.911  0.0932 -0.8302  0.2963
13794TIP3   OH262796   2.584   5.940   6.452  0.3042 -0.0716  0.1443
13794TIP3    H162797   2.522   5.997   6.497  1.9338  0.1492  2.2165
13794TIP3    H262798   2.538   5.857   6.441 -1.0751  0.7432 -0.2224
13795TIP3   OH262799   3.173   6.132  15.204  0.5462 -0.0444 -0.0380
13795TIP3    H162800   3.149   6.188  15.278  1.1809  1.8535 -1.2191
13795TIP3    H262801   3.266   6.150  15.190 -0.1992  1.8348 -3.0686
13796TIP3   OH262802   1.744   3.532  12.026 -0.1734  0.4413 -0.1097
13796TIP3    H162803   1.816   3.479  11.990 -0.2596 -0.1121  0.5107
13796TIP3    H262804   1.778   3.564  12.110 -0.1020  1.4191 -0.5109
13797TIP3   OH262805   0.080   4.227   5.440 -0.1163 -0.3015  0.3944
13797TIP3    H162806   0.049   4.144   5.478 -1.6264  0.5959  1.1817
13797TIP3    H262807   0.041   4.229   5.352  0.1021 -0.5197  0.2903
13798TIP3   OH262808   0.312   5.307  15.815 -0.4377 -0.2383  0.0901
13798TIP3    H162809   0.338   5.393  15.783  0.2631 -0.9150 -1.1857
13798TIP3    H262810   0.298   5.254  15.736  2.9504 -2.4038  0.8323
13799TIP3   OH262811   5.655   3.213   1.582 -0.6157 -0.1700 -0.0620
13799TIP3    H162812   5.667   3.288   1.525  0.4538  0.4181  0.9159
13799TIP3    H262813   5.642   3.250   1.669  0.5280 -1.1086  0.5372
13800TIP3   OH262814   1.898   6.604   4.082 -0.2944  0.2111  0.5613
13800TIP3    H162815   1.962   6.669   4.109 -0.4030  0.2656  0.6885
13800TIP3    H262816   1.840   6.652   4.022  0.7184 -0.2359 -0.8131
13801TIP3   OH262817   4.347   4.600  12.011 -0.4120 -0.5572  0.9241
13801TIP3    H162818   4.369   4.507  12.016 -0.7780 -0.7365 -0.7554
13801TIP3    H262819   4.414   4.638  11.955 -0.5473  0.1137  1.2044
13802TIP3   OH262820   4.384   4.363   4.709 -0.2058 -0.3209 -0.3562
13802TIP3    H162821   4.456   4.299   4.705  1.5149  1.4824  0.7780
13802TIP3    H262822   4.405   4.426   4.640 -0.4751  0.4438  0.2542
13803TIP3   OH262823   5.003   2.207  10.780 -0.1979  0.0028  0.1294
13803TIP3    H162824   4.913   2.174  10.779 -0.4631  0.7246 -0.9277
13803TIP3    H262825   4.994   2.301  10.765  0.8193 -0.1376 -1.4794
13804TIP3   OH262826   4.572   0.117  10.961  0.2555  0.2639  0.1974
13804TIP3    H162827   4.615   0.163  10.889 -0.7671 -0.7030 -1.0737
13804TIP3    H262828   4.625   0.136  11.038  2.2147  0.1130 -1.0975
13805TIP3   OH262829   3.411   6.195   2.777 -0.0572  0.0538 -0.1558
13805TIP3    H162830   3.345   6.130   2.802 -0.3721  1.2404  2.2389
13805TIP3    H262831   3.488   6.171   2.828  0.5397  0.2376 -0.9691
13806TIP3   OH262832   2.819   4.126   3.246  0.4084  0.3220  0.2868
13806TIP3    H162833   2.906   4.124   3.286  0.9417  1.3939 -0.7951
13806TIP3    H262834   2.833   4.164   3.159 -0.8873 -1.0004 -0.5266
13807TIP3   OH262835   0.873   2.126   6.297  0.1082  0.2093  0.1261
13807TIP3    H162836   0.943   2.139   6.361 -0.3308  0.3293  0.5722
13807TIP3    H262837   0.793   2.154   6.341 -0.2800 -0.2857 -0.2605
13808TIP3   OH262838   5.178   5.478  17.228  0.6402 -0.6054  0.5386
13808TIP3    H162839   5.170   5.389  17.196  0.4755  0.5557 -2.8356
13808TIP3    H262840   5.267   5.504  17.204  0.8086  0.0485  1.8017
13809TIP3   OH262841   6.406   5.667  14.197 -0.6602  0.2239 -0.1095
13809TIP3    H162842   6.401   5.594  14.259 -0.8038  0.3263 -0.0012
13809TIP3    H262843   6.338   5.728  14.226 -1.0334  0.0613 -0.6411
13810TIP3   OH262844   4.174   0.452   0.414 -0.4014  0.6810 -0.0965
13810TIP3    H162845   4.186   0.511   0.489 -0.1918  0.4769  0.0345
13810TIP3    H262846   4.196   0.505   0.338  1.6966  0.2351  0.1603
13811TIP3   OH262847   6.213   0.248   0.152 -0.2380 -0.6607  0.1914
13811TIP3    H162848   6.161   0.305   0.095 -1.7754 -2.4726 -0.2467
13811TIP3    H262849   6.287   0.303   0.179 -2.3492  1.9395  0.8432
13812TIP3   OH262850   0.152   6.419  13.330 -0.1365  0.0155  0.0630
13812TIP3    H162851   0.108   6.449  13.409 -0.4701  0.5048 -0.3096
13812TIP3    H262852   0.111   6.335  13.310  1.0557 -0.8945  1.3144
13813TIP3   OH262853   6.597   3.413  10.974  0.5914 -0.0579 -0.0637
13813TIP3    H162854   6.531   3.344  10.966  0.3010  0.1273  0.6662
13813TIP3    H262855   6.546   3.493  10.989  1.0409 -0.3967  3.8822
13814TIP3   OH262856   4.867   2.451   4.442 -0.6470  0.2112  0.3482
13814TIP3    H162857   4.868   2.537   4.400  1.9955 -0.4295 -1.0418
13814TIP3    H262858   4.774   2.428   4.448 -1.2705  2.1521 -1.3793
13815TIP3   OH262859   6.598   1.970  16.877  0.1603  0.3135  0.1768
13815TIP3    H162860   6.563   2.016  16.800 -0.0347 -1.6095 -0.9247
13815TIP3    H262861   6.575   2.026  16.951 -0.3169  1.8373 -1.0878
13816TIP3   OH262862   2.826   5.510   2.677 -0.0877  0.9707 -0.2163
13816TIP3    H162863   2.757   5.448   2.701  1.7443 -0.9305  0.3119
13816TIP3    H262864   2.780   5.593   2.661 -2.2796  0.2071  1.8642
13817TIP3   OH262865   4.103   1.947  14.438 -0.4035  0.4320 -0.2343
13817TIP3    H162866   4.177   1.890  14.416 -0.5219  0.1796  0.0053
13817TIP3    H262867   4.138   2.036  14.433 -0.4003  0.3706 -1.2960
13818TIP3   OH262868   3.198   5.562  16.255 -0.6773  0.2988  0.4595
13818TIP3    H162869   3.274   5.609  16.289 -0.1840  0.3998 -0.7697
13818TIP3    H262870   3.201   5.478  16.301  0.7467 -0.0787 -0.2703
13819TIP3   OH262871   3.984   5.008   6.021 -0.3233  0.1712 -0.5139
13819TIP3    H162872   4.060   4.977   6.070 -0.0350 -0.9264 -1.6016
13819TIP3    H262873   3.927   5.048   6.086  0.3108 -0.7374  0.6125
13820TIP3   OH262874   6.785   6.336  11.510  0.3819 -0.4814  0.1970
13820TIP3    H162875   6.693   6.311  11.510  0.0347  0.7809 -0.1814
13820TIP3    H262876   6.817   6.310  11.597 -0.8857  1.1011  1.1660
13821TIP3   OH262877   0.226   3.581   1.421 -0.2182  0.0003 -0.1141
13821TIP3    H162878   0.223   3.667   1.461 -0.8170  0.2046 -0.5814
13821TIP3    H262879   0.138   3.568   1.385  0.6166  0.3168 -2.3772
13822TIP3   OH262880   1.793   4.405   5.733  0.5002  0.3657  0.6915
13822TIP3    H162881   1.854   4.334   5.754  0.8083  0.2379 -0.5784
13822TIP3    H262882   1.726   4.399   5.801  0.8253 -0.7781  0.9366
13823TIP3   OH262883   6.166   6.614   3.959  0.1529 -0.2509 -0.3029
13823TIP3    H162884   6.224   6.557   4.009 -1.0739 -0.9022  0.3952
13823TIP3    H262885   6.153   6.569   3.876 -1.4058 -1.3798  0.5278
13824TIP3   OH262886   2.365   1.603  12.977 -0.0607  0.2735 -0.3884
13824TIP3    H162887   2.323   1.682  12.942 -1.3026 -0.4398 -0.5125
13824TIP3    H262888   2.458   1.619  12.964 -0.3966  0.9284 -2.0965
13825TIP3   OH262889   3.061   5.207  16.103 -0.6105 -0.3754 -0.0699
13825TIP3    H162890   3.020   5.274  16.158  0.0872 -0.9096  1.1217
13825TIP3    H262891   3.133   5.253  16.060 -0.3218 -0.2725  0.5105
13826TIP3   OH262892   3.638   5.685  16.694 -0.4660 -0.0546 -0.6880
13826TIP3    H162893   3.732   5.666  16.697 -0.7102 -1.2576 -0.2226
13826TIP3    H262894   3.625   5.756  16.757 -0.1797 -1.3080  0.8099
13827TIP3   OH262895   2.853   0.881   3.544 -0.4592 -0.4971 -0.6702
13827TIP3    H162896   2.884   0.832   3.468 -2.1932 -2.2315 -0.3084
13827TIP3    H262897   2.816   0.961   3.507  1.4231  0.0893 -1.3638
13828TIP3   OH262898   2.647   4.423  11.341 -0.2540  0.3366 -0.4314
13828TIP3    H162899   2.634   4.329  11.355  0.1758  0.1525 -1.2598
13828TIP3    H262900   2.609   4.440  11.255 -0.1348  0.8888 -0.3787
13829TIP3   OH262901   2.966   1.548  17.000 -0.1207  0.2149  0.0981
13829TIP3    H162902   2.995   1.607  17.070 -1.0154  0.1461  0.5363
13829TIP3    H262903   2.875   1.528  17.023 -0.0960 -0.6196 -0.5388
13830TIP3   OH262904   2.686   0.491  15.406  0.5554 -0.0504 -0.5352
13830TIP3    H162905   2.654   0.418  15.353  0.7964  0.3915 -1.2936
13830TIP3    H262906   2.749   0.536  15.350  1.1044  0.1926  0.2714
13831TIP3   OH262907   6.212   5.782  14.871  0.4201 -0.2015 -0.4155
13831TIP3    H162908   6.152   5.847  14.907  0.1917 -0.0054 -1.1520
13831TIP3    H262909   6.260   5.829  14.803 -0.7153 -1.1830 -1.9016
13832TIP3   OH262910   4.510   6.363   6.689  0.0247 -0.3727  0.2787
13832TIP3    H162911   4.471   6.418   6.621 -1.5119  2.2074  3.0855
13832TIP3    H262912   4.601   6.351   6.662 -0.8127 -0.3467 -2.7221
13833TIP3   OH262913   6.646   2.153  11.936  0.0732  0.2191  0.3883
13833TIP3    H162914   6.587   2.080  11.954  0.6785 -0.2607  0.4375
13833TIP3    H262915   6.732   2.113  11.924  0.8842  1.1326  2.8077
13834TIP3   OH262916   2.390   5.929   5.110 -0.2018 -0.0198  1.0722
13834TIP3    H162917   2.315   5.935   5.169  0.6171  2.9145  1.8858
13834TIP3    H262918   2.405   6.019   5.081  1.1447 -1.0058 -1.4535
13835TIP3   OH262919   1.259   2.794  11.402  0.0140  0.9373  0.5111
13835TIP3    H162920   1.330   2.732  11.384  0.2918  1.5468 -0.4730
13835TIP3    H262921   1.275   2.822  11.492 -0.3686 -0.7582  1.1335
13836TIP3   OH262922   2.026   2.155   1.993  0.1083 -0.2650 -0.1850
13836TIP3    H162923   2.050   2.076   1.944 -0.3790  0.0176 -0.8755
13836TIP3    H262924   2.086   2.155   2.068  0.9164 -0.6488 -0.8239
13837TIP3   OH262925   6.149   0.901  15.323  0.1112 -0.4284 -0.5011
13837TIP3    H162926   6.100   0.826  15.357  1.2767 -1.2602 -0.6581
13837TIP3    H262927   6.202   0.931  15.398  0.8612 -0.7588 -0.9031
13838TIP3   OH262928   2.904   6.322   3.575  0.0562 -0.0943  0.1931
13838TIP3    H162929   2.979   6.342   3.520  0.1331  1.2841  0.7716
13838TIP3    H262930   2.941   6.287   3.656 -0.0682 -2.4226 -0.7204
13839TIP3   OH262931   0.939   2.325  11.762 -0.1863 -0.4069 -0.0926
13839TIP3    H162932   0.906   2.413  11.783  0.4904 -0.1822  0.0475
13839TIP3    H262933   0.862   2.269  11.768 -1.0708  0.4867 -2.1662
13840TIP3   OH262934   5.830   1.594  12.412 -0.0654  0.4534  0.7182
13840TIP3    H162935   5.769   1.521  12.402 -0.0617  0.7904 -2.2986
13840TIP3    H262936   5.915   1.557  12.387 -0.0269  1.4028 -0.5933
13841TIP3   OH262937   2.747   2.918   1.769  1.0508 -0.2204 -0.3349
13841TIP3    H162938   2.733   2.883   1.681 -0.4186 -0.4814 -0.0051
13841TIP3    H262939   2.773   3.009   1.754  2.7710 -0.8108 -1.1050
13842TIP3   OH262940   5.793   2.668   0.806 -0.2657 -0.2679  0.2194
13842TIP3    H162941   5.702   2.639   0.798  0.1338 -1.4188 -0.1517
13842TIP3    H262942   5.842   2.609   0.750  0.9586 -0.7865  1.8036
13843TIP3   OH262943   5.479   1.167  16.469  0.4622  0.8801 -0.2231
13843TIP3    H162944   5.558   1.160  16.524 -0.0182 -0.3125  0.3400
13843TIP3    H262945   5.504   1.125  16.387  0.3086  0.1895  0.0787
13844TIP3   OH262946   0.531   5.981  12.666  0.6304 -0.1930 -0.3002
13844TIP3    H162947   0.490   5.977  12.752 -0.9534 -0.6064 -1.0613
13844TIP3    H262948   0.588   5.904  12.662 -0.1046 -0.7515 -0.0250
13845TIP3   OH262949   2.278   0.346   5.625 -0.7947  0.0219 -0.0310
13845TIP3    H162950   2.252   0.255   5.608  0.0972  0.1406 -2.1500
13845TIP3    H262951   2.366   0.340   5.661 -1.0006  0.0159  0.4764
13846TIP3   OH262952   4.530   1.515  13.718 -0.4422 -0.2449 -0.7515
13846TIP3    H162953   4.604   1.504  13.778 -1.4904 -2.9704  0.0875
13846TIP3    H262954   4.564   1.488  13.633 -0.1529 -0.3809 -0.5935
13847TIP3   OH262955   4.524   0.202  12.455 -0.2730 -0.8701 -0.5137
13847TIP3    H162956   4.443   0.159  12.484 -1.1512  0.1844 -1.3678
13847TIP3    H262957   4.584   0.193  12.530 -1.0842 -1.8961  0.0262
13848TIP3   OH262958   0.080   1.940  10.209 -0.2911  0.0119 -0.4251
13848TIP3    H162959   0.042   1.982  10.132 -0.0616 -0.4186 -0.7729
13848TIP3    H262960   0.126   1.864  10.175 -0.1408 -0.1494  0.1317
13849TIP3   OH262961   6.690   2.069  11.636  0.0201 -0.0645 -0.3901
13849TIP3    H162962   6.758   2.032  11.692  1.7818 -0.9180 -2.9932
13849TIP3    H262963   6.710   2.163  11.634  0.8804 -0.2491 -0.7886
13850TIP3   OH262964   3.768   0.091  14.678 -0.1672  0.3624  0.0220
13850TIP3    H162965   3.845   0.084  14.734  0.7775 -0.4439 -1.3406
13850TIP3    H262966   3.711   0.020  14.706 -0.6178  1.2082  1.3042
13851TIP3   OH262967   6.274   0.233  16.284  0.0543 -0.0307  0.0184
13851TIP3    H162968   6.271   0.139  16.303  0.7580  0.1103  0.8260
13851TIP3    H262969   6.362   0.248  16.249  0.2545  0.4880  0.7430
13852TIP3   OH262970   1.296   5.493   2.827  0.0237  0.4343 -0.2743
13852TIP3    H162971   1.295   5.408   2.784 -0.4728 -0.0481  0.6743
13852TIP3    H262972   1.218   5.538   2.795  0.7887  0.9054 -1.4984
13853TIP3   OH262973   1.768   6.603  12.237 -0.1865 -0.3293 -0.3142
13853TIP3    H162974   1.763   6.604  12.332  0.1544  0.5955 -0.3121
13853TIP3    H262975   1.676   6.600  12.209 -0.2773 -1.0627  0.0412
13854TIP3   OH262976   3.335   1.062   5.415  0.4515  0.2034 -0.8383
13854TIP3    H162977   3.332   1.150   5.453  0.5765  0.9459 -2.4912
13854TIP3    H262978   3.309   1.004   5.486 -1.4078  1.7557 -0.2137
13855TIP3   OH262979   4.134   5.189   4.030  0.7467  0.3578 -0.1349
13855TIP3    H162980   4.221   5.149   4.020  1.4011  1.9357 -1.0611
13855TIP3    H262981   4.153   5.279   4.056 -0.7005  0.0572  2.1053
13856TIP3   OH262982   6.686   4.563   2.413 -0.5054 -0.3841 -0.1749
13856TIP3    H162983   6.719   4.486   2.367 -2.1502 -1.7350  0.8430
13856TIP3    H262984   6.710   4.548   2.504  0.5119  1.0706 -0.1765
13857TIP3   OH262985   1.386   1.057   2.380  0.1402  0.8233 -0.0635
13857TIP3    H162986   1.354   1.084   2.294 -1.3858 -0.3540  0.0948
13857TIP3    H262987   1.378   1.135   2.435  0.1140  1.2866 -0.7311
13858TIP3   OH262988   4.787   6.211  12.031 -0.6570 -0.6501  0.1656
13858TIP3    H162989   4.851   6.142  12.044  0.2297 -0.1592 -1.3986
13858TIP3    H262990   4.778   6.253  12.117  0.4650 -1.2837  0.5965
13859TIP3   OH262991   4.610   2.837   1.763  0.2445 -0.1283 -0.6180
13859TIP3    H162992   4.620   2.926   1.729 -0.4057  0.3924  0.5322
13859TIP3    H262993   4.518   2.831   1.787  0.5901 -0.6435  0.5965
13860TIP3   OH262994   0.727   3.366  15.249 -0.3396  0.3830 -0.0141
13860TIP3    H162995   0.708   3.439  15.308 -0.2997  0.2178  0.2030
13860TIP3    H262996   0.821   3.372  15.233 -0.4689  0.8473 -0.6210
13861TIP3   OH262997   2.528   6.712  10.777 -0.4907 -0.1306 -0.0058
13861TIP3    H162998   2.485   6.629  10.755 -2.7100  1.2623 -1.0644
13861TIP3    H262999   2.582   6.732  10.701 -0.3800 -0.3080  0.0245
13862TIP3   OH263000   2.825   5.689  16.859  0.1397 -0.7165  0.3787
13862TIP3    H163001   2.752   5.675  16.799  0.7163  0.4089 -0.6078
13862TIP3    H263002   2.828   5.784  16.872  0.1916 -0.9295  1.9811
13863TIP3   OH263003   1.514   0.020  15.399 -0.3398  0.0373  0.0694
13863TIP3    H163004   1.468   0.088  15.350  0.9561  2.0105  1.4918
13863TIP3    H263005   1.493   0.038  15.491  0.6094 -1.0494  0.5123
13864TIP3   OH263006   4.745   0.081  13.481  0.2227  0.1089  0.7707
13864TIP3    H163007   4.817   0.021  13.500  0.2824 -0.4654 -1.1708
13864TIP3    H263008   4.666   0.032  13.507  0.4259  0.1930  1.5688
13865TIP3   OH263009   4.867   6.019  14.268 -0.1936  0.3307 -0.8885
13865TIP3    H163010   4.925   5.963  14.216 -0.7251 -0.7540 -0.3411
13865TIP3    H263011   4.918   6.098  14.285  0.4080  0.1998 -2.0542
13866TIP3   OH263012   4.889   1.074  12.973  1.5998 -0.0647 -0.2041
13866TIP3    H163013   4.912   1.095  12.883  0.9005 -1.4530 -0.7225
13866TIP3    H263014   4.816   1.132  12.994  0.7585 -0.7981 -1.0615
13867TIP3   OH263015   1.333   2.559  12.309  0.2556 -0.2699 -0.5796
13867TIP3    H163016   1.333   2.469  12.341  3.3629  0.2306  1.0455
13867TIP3    H263017   1.325   2.613  12.387  4.0032  0.9169 -0.9012
13868TIP3   OH263018   5.226   1.429   3.201 -0.1762 -0.2808  0.1658
13868TIP3    H163019   5.156   1.417   3.265 -1.3339 -3.7230 -1.6222
13868TIP3    H263020   5.306   1.424   3.252 -1.1496  1.3928  1.9226
13869TIP3   OH263021   0.711   6.354   4.881 -0.3771 -0.7898  0.0671
13869TIP3    H163022   0.696   6.428   4.939 -1.4009  0.3537 -1.6065
13869TIP3    H263023   0.653   6.285   4.914 -2.0348  0.3299 -0.4310
13870TIP3   OH263024   1.384   4.844  15.938 -0.3695  0.2784  0.1431
13870TIP3    H163025   1.431   4.896  16.003 -1.9044  1.1575  0.5696
13870TIP3    H263026   1.324   4.790  15.989 -0.2357 -0.4022 -0.4238
13871TIP3   OH263027   3.081   5.178   5.929  0.2535  0.3817 -0.3096
13871TIP3    H163028   3.055   5.092   5.962  1.2137  0.4099  0.5185
13871TIP3    H263029   3.075   5.236   6.005  1.6824  0.6165 -0.3615
13872TIP3   OH263030   4.318   4.872  13.583 -0.5286  0.4734  0.4205
13872TIP3    H163031   4.374   4.950  13.583 -0.4806  0.4445 -0.1209
13872TIP3    H263032   4.318   4.844  13.491 -0.0857 -0.5061  0.7220
13873TIP3   OH263033   5.861   1.837   4.022 -0.6776  0.2374 -0.5330
13873TIP3    H163034   5.776   1.826   4.066  0.3826 -1.9379  1.1160
13873TIP3    H263035   5.914   1.886   4.085  0.1054 -0.7638 -0.4056
13874TIP3   OH263036   0.651   4.666  10.441 -0.1537 -0.2934  0.2025
13874TIP3    H163037   0.668   4.586  10.392  2.0310  0.8698 -1.0292
13874TIP3    H263038   0.558   4.683  10.430 -0.4489 -2.1913 -0.2444
13875TIP3   OH263039   5.153   4.943   0.926 -0.1906 -0.5905  0.5762
13875TIP3    H163040   5.236   4.974   0.962  0.5017 -1.5075 -0.2281
13875TIP3    H263041   5.167   4.939   0.832 -1.6222  0.6463  0.2999
13876TIP3   OH263042   3.763   0.305   3.873  0.3266  0.0516 -0.1511
13876TIP3    H163043   3.698   0.290   3.804 -1.1986 -1.5029  1.5677
13876TIP3    H263044   3.739   0.244   3.942  2.8277  0.4208  1.0958
13877TIP3   OH263045   3.353   1.369  14.445 -1.1094 -0.1164 -0.0548
13877TIP3    H163046   3.275   1.424  14.450 -1.6306 -0.7725 -0.7419
13877TIP3    H263047   3.401   1.386  14.526 -2.6195 -0.6872  0.9678
13878TIP3   OH263048   2.665   1.730  14.587  0.1061  0.4602 -0.1978
13878TIP3    H163049   2.574   1.728  14.616  0.7751  1.2879  2.0383
13878TIP3    H263050   2.669   1.662  14.519 -1.7545 -0.8677  0.9467
13879TIP3   OH263051   3.811   4.769   5.673  0.1211  0.1372  0.1748
13879TIP3    H163052   3.815   4.811   5.759  1.2196  0.7540 -0.1634
13879TIP3    H263053   3.726   4.796   5.638 -0.5576 -0.5313  1.2631
13880TIP3   OH263054   0.612   3.852   1.375 -0.0081 -0.5956  0.4827
13880TIP3    H163055   0.707   3.867   1.372  0.1688 -1.9808 -1.6066
13880TIP3    H263056   0.576   3.913   1.311 -0.4673 -0.5676  0.7674
13881TIP3   OH263057   6.345   5.694   4.116 -0.0068 -0.0877  0.0797
13881TIP3    H163058   6.421   5.728   4.163 -0.4436  1.3720 -0.2479
13881TIP3    H263059   6.344   5.601   4.136  1.6366 -0.0490  0.4212
13882TIP3   OH263060   0.282   2.549  13.308  0.9498 -0.8454 -0.2259
13882TIP3    H163061   0.211   2.582  13.254  0.1008 -2.6052 -0.2015
13882TIP3    H263062   0.359   2.550  13.251  0.2913 -1.6667 -1.1322
13883TIP3   OH263063   4.218   2.209  15.775 -0.2390  0.7575 -0.2267
13883TIP3    H163064   4.139   2.184  15.727 -0.5152  0.2071  0.4994
13883TIP3    H263065   4.244   2.129  15.820 -0.4588  1.4788  1.1984
13884TIP3   OH263066   2.790   3.360   0.510 -0.1094 -0.4780 -0.2566
13884TIP3    H163067   2.840   3.428   0.465 -0.8416 -0.0210 -0.4006
13884TIP3    H263068   2.699   3.389   0.501 -0.4984 -1.8803 -1.0037
13885TIP3   OH263069   2.799   1.182  15.647 -0.4564 -0.2300  0.8482
13885TIP3    H163070   2.773   1.188  15.739 -0.1337 -1.3912  1.0229
13885TIP3    H263071   2.719   1.197  15.598 -0.5110  1.0199  1.3054
13886TIP3   OH263072   6.365   2.140   4.050 -0.2818  0.0788 -0.7585
13886TIP3    H163073   6.402   2.182   3.973  0.9007  0.2379 -0.1052
13886TIP3    H263074   6.285   2.097   4.018 -1.8791  3.3206 -1.3087
13887TIP3   OH263075   5.881   1.453   4.180 -0.0370  0.2909  0.4442
13887TIP3    H163076   5.914   1.514   4.114 -1.9027  0.1576 -0.6519
13887TIP3    H263077   5.787   1.450   4.164 -0.4203 -0.2839  2.6814
13888TIP3   OH263078   0.091   1.284  11.580 -0.8172 -0.3782  0.1371
13888TIP3    H163079  -0.000   1.312  11.590 -0.9919 -1.2427  1.0133
13888TIP3    H263080   0.112   1.302  11.488 -0.6566  3.4097  0.8306
13889TIP3   OH263081   0.257   1.291   2.430 -0.1141  0.2628  0.2048
13889TIP3    H163082   0.201   1.287   2.508 -0.0754  0.2092  0.2302
13889TIP3    H263083   0.284   1.200   2.416  0.5872  0.4047  0.6454
13890TIP3   OH263084   4.319   6.424  14.356 -0.0150  0.2495  0.5833
13890TIP3    H163085   4.306   6.333  14.328  1.0728 -0.4356  2.2850
13890TIP3    H263086   4.232   6.464  14.347 -0.5487 -1.0007  0.0152
13891TIP3   OH263087   4.121   2.765  16.512 -0.0441  0.4515  0.0732
13891TIP3    H163088   4.078   2.697  16.460 -0.7190  1.5164 -0.7773
13891TIP3    H263089   4.097   2.745  16.602 -0.6233 -0.1643 -0.2174
13892TIP3   OH263090   4.899   6.407  12.971  0.3898  0.2158  0.1131
13892TIP3    H163091   4.907   6.379  13.063 -0.1148  0.4663  0.2311
13892TIP3    H263092   4.844   6.485  12.974  0.8810  0.5827 -0.3436
13893TIP3   OH263093   3.530   3.975  13.441 -0.1021  0.5991  0.6385
13893TIP3    H163094   3.603   4.011  13.491 -0.0768  0.4516  0.7075
13893TIP3    H263095   3.485   4.052  13.407 -0.3273  0.7102  1.1840
13894TIP3   OH263096   0.498   4.977  11.198  0.4611 -0.3907 -0.0780
13894TIP3    H163097   0.494   4.894  11.246  1.3497 -0.5472 -0.2644
13894TIP3    H263098   0.539   4.954  11.114 -0.9897 -0.1007 -0.8719
13895TIP3   OH263099   1.896   0.252  16.633  0.2477  0.3972 -0.4891
13895TIP3    H163100   1.924   0.243  16.724  0.6559 -0.4785 -0.6989
13895TIP3    H263101   1.817   0.198  16.626 -0.8364  1.8921 -0.2115
13896TIP3   OH263102   4.526   1.299  16.819 -0.4563  0.1814  0.5845
13896TIP3    H163103   4.575   1.221  16.846 -3.4451 -1.7330  0.7234
13896TIP3    H263104   4.549   1.366  16.883  1.1369 -0.9966  1.2734
13897TIP3   OH263105   1.091   5.084   0.287  0.2326 -1.0495 -0.7156
13897TIP3    H163106   1.179   5.077   0.324  0.4842 -0.0942 -1.1327
13897TIP3    H263107   1.033   5.070   0.362  0.7257 -1.9670 -0.4897
13898TIP3   OH263108   6.352   0.711   4.098  0.2461  0.4734  0.6530
13898TIP3    H163109   6.327   0.638   4.155  1.2724 -0.7912 -0.4822
13898TIP3    H263110   6.269   0.748   4.068 -0.3019 -1.5935 -0.4521
13899TIP3   OH263111   4.392   3.468   4.860  0.3952  0.1731  0.5072
13899TIP3    H163112   4.428   3.532   4.922  1.8174  0.1355 -0.2702
13899TIP3    H263113   4.419   3.383   4.894 -0.9011 -0.0032  1.1520
13900TIP3   OH263114   4.662   5.365   3.811  0.0668  0.0152  0.1326
13900TIP3    H163115   4.632   5.430   3.875 -1.3138 -0.8234  0.3547
13900TIP3    H263116   4.714   5.415   3.748 -1.4274  1.4331 -0.0027
13901TIP3   OH263117   6.546   2.268   0.124  0.1079 -0.1692 -0.1522
13901TIP3    H163118   6.624   2.315   0.154 -0.1986  1.9169 -2.5181
13901TIP3    H263119   6.573   2.229   0.040 -1.2397  0.1109 -0.7213
13902TIP3   OH263120   6.590   6.112  12.060  0.0382  0.3805 -0.3311
13902TIP3    H163121   6.552   6.200  12.065  0.5631  0.7273 -2.0152
13902TIP3    H263122   6.550   6.064  12.132 -2.3985  1.1968 -1.0917
13903TIP3   OH263123   2.738   1.880  15.299  0.3044  0.4610 -0.1850
13903TIP3    H163124   2.729   1.969  15.266 -0.9010  0.2462 -0.4708
13903TIP3    H263125   2.648   1.847  15.303  0.5410 -0.0320  1.8581
13904TIP3   OH263126   3.969   1.190   4.636  0.3056  0.1390  0.4648
13904TIP3    H163127   3.929   1.103   4.644  1.0434 -0.2300  0.1320
13904TIP3    H263128   4.061   1.173   4.616  0.7725  0.9733  1.7783
13905TIP3   OH263129   5.901   0.760   0.140 -0.1367  0.6404 -0.8456
13905TIP3    H163130   5.863   0.847   0.150 -0.0987  0.5222  0.4351
13905TIP3    H263131   5.919   0.752   0.046  1.0885  2.5370 -0.8095
13906TIP3   OH263132   6.271   6.637  13.291 -0.2892  0.7268 -1.0717
13906TIP3    H163133   6.263   6.717  13.343  1.5592  1.3299 -1.6956
13906TIP3    H263134   6.235   6.569  13.348 -0.2173  1.7065  0.1797
13907TIP3   OH263135   2.139   0.105  15.424  0.6489  0.0695  0.0160
13907TIP3    H163136   2.145   0.195  15.392  0.2442 -0.8253 -2.7132
13907TIP3    H263137   2.045   0.088  15.431  0.7256 -0.1031  0.7245
13908TIP3   OH263138   1.295   1.139   1.517  0.1822 -0.2291 -0.4031
13908TIP3    H163139   1.261   1.213   1.466  0.9862 -1.1546 -2.3571
13908TIP3    H263140   1.240   1.065   1.492  0.1163 -0.5428  0.6529
13909TIP3   OH263141   2.775   3.133   0.295  0.0996 -0.9503 -0.0622
13909TIP3    H163142   2.758   3.095   0.209  0.1510  0.6272 -0.7936
13909TIP3    H263143   2.748   3.065   0.357 -0.1183 -2.0314 -1.3177
13910TIP3   OH263144   5.738   5.591   0.453 -0.2085 -0.5542  0.8154
13910TIP3    H163145   5.673   5.543   0.402 -0.4938  0.7677 -0.0643
13910TIP3    H263146   5.794   5.633   0.388  1.0734 -1.0700  1.5724
13911TIP3   OH263147   5.053   5.521  14.318 -0.3828  0.1470  0.1247
13911TIP3    H163148   5.035   5.520  14.412  2.2213  0.9363  0.6881
13911TIP3    H263149   5.002   5.449  14.283 -1.1341 -0.3709  2.2099
13912TIP3   OH263150   1.084   2.332   3.089  0.3814 -0.2413  0.0660
13912TIP3    H163151   1.096   2.316   2.995 -1.1870  0.0552 -0.2170
13912TIP3    H263152   1.084   2.246   3.129 -0.4080 -0.4761 -0.4205
13913TIP3   OH263153   1.382   3.522  12.898  0.3388  0.1539 -0.8566
13913TIP3    H163154   1.423   3.452  12.846  1.1919  0.9095 -1.2010
13913TIP3    H263155   1.389   3.491  12.989  1.9547  0.4178 -0.8788
13914TIP3   OH263156   3.298   2.016   2.018  0.3038 -1.1626  0.6792
13914TIP3    H163157   3.328   1.931   1.986 -1.4801 -1.0761 -1.3234
13914TIP3    H263158   3.338   2.080   1.959 -1.4608 -0.8834 -0.2599
13915TIP3   OH263159   1.992   4.568   6.250  0.2521 -0.2619  0.6483
13915TIP3    H163160   1.909   4.527   6.228  0.6098 -0.0771 -1.1681
13915TIP3    H263161   2.017   4.530   6.334 -1.3089 -0.8339  0.8663
13916TIP3   OH263162   5.743   6.319   2.866  0.3632 -0.1776  0.0485
13916TIP3    H163163   5.729   6.411   2.890  0.9028 -0.1139  0.1339
13916TIP3    H263164   5.732   6.317   2.771 -0.2438 -0.1403  0.1145
13917TIP3   OH263165   0.219   5.405  11.165 -0.3893  0.3077 -0.2643
13917TIP3    H163166   0.276   5.338  11.202 -2.3432 -1.3026 -0.0989
13917TIP3    H263167   0.170   5.439  11.240  0.8693  2.2660 -0.2719
13918TIP3   OH263168   5.984   6.544   0.595  0.3303  0.4608  0.2666
13918TIP3    H163169   5.927   6.620   0.609 -0.5581 -0.3581  1.2624
13918TIP3    H263170   5.991   6.505   0.682 -0.5266 -1.4992 -0.5181
13919TIP3   OH263171   5.014   3.587   5.496 -0.1759  0.1383  0.8128
13919TIP3    H163172   4.985   3.667   5.452  1.7387  0.1957 -0.4602
13919TIP3    H263173   4.995   3.517   5.433  0.0423 -0.1395  1.0527
13920TIP3   OH263174   0.021   1.632  13.626  0.2503 -0.7957 -0.7514
13920TIP3    H163175   0.070   1.664  13.702 -0.8903  0.2684 -0.4287
13920TIP3    H263176   0.085   1.625  13.556  0.7740  1.1254 -0.5017
13921TIP3   OH263177   0.776   0.147  14.983 -0.4583  0.0592  0.5316
13921TIP3    H163178   0.700   0.204  14.991 -1.0589 -0.5043 -1.0096
13921TIP3    H263179   0.815   0.172  14.899 -0.0947 -1.0475  0.3721
13922TIP3   OH263180   3.737   0.216  12.803  0.2054  0.0906 -0.2177
13922TIP3    H163181   3.819   0.167  12.796  0.6440  0.8428 -0.2807
13922TIP3    H263182   3.762   0.301  12.839 -0.1644  1.2646 -2.6096
13923TIP3   OH263183   1.803   4.178   1.965  0.3931 -0.0135 -0.6956
13923TIP3    H163184   1.723   4.193   1.914 -0.6013 -1.6875  0.3493
13923TIP3    H263185   1.774   4.132   2.043  2.4627 -1.2391 -0.6099
13924TIP3   OH263186   0.037   5.301  14.383 -0.0274 -0.2253 -0.5154
13924TIP3    H163187   0.088   5.276  14.306  0.5116  1.2069 -0.6205
13924TIP3    H263188  -0.034   5.354  14.348 -1.1282 -1.4925 -0.2720
13925TIP3   OH263189   5.839   6.142  14.846  0.3078 -0.8886 -0.5759
13925TIP3    H163190   5.932   6.148  14.868 -0.0675  0.8730  0.6185
13925TIP3    H263191   5.807   6.232  14.853 -2.1876 -1.9068  2.1170
13926TIP3   OH263192   1.267   2.112  12.287 -0.0800  0.2374  0.2913
13926TIP3    H163193   1.255   2.149  12.200 -0.9155  1.2450  0.8286
13926TIP3    H263194   1.294   2.021  12.270  0.0646  0.5058 -1.0110
13927TIP3   OH263195   2.896   2.125   5.895  0.4553  0.2593 -0.0958
13927TIP3    H163196   2.939   2.210   5.883  2.2270 -0.6135 -0.1929
13927TIP3    H263197   2.927   2.073   5.820  0.4423 -0.8758  0.6833
13928TIP3   OH263198   4.859   0.975   3.976  0.1249 -0.0129  0.6209
13928TIP3    H163199   4.878   1.064   4.005  0.1089  0.2057 -0.0287
13928TIP3    H263200   4.926   0.921   4.018  1.7324  0.6538 -1.0603
13929TIP3   OH263201   6.719   5.774   3.600 -0.6368  0.0866  0.7441
13929TIP3    H163202   6.699   5.746   3.510 -0.5577  1.7570  0.1826
13929TIP3    H263203   6.740   5.693   3.646 -1.5018 -0.8940 -0.5285
13930TIP3   OH263204   6.331   1.838  15.437  0.0831  0.2758  0.0690
13930TIP3    H163205   6.383   1.857  15.358  0.0644  0.4177  0.0896
13930TIP3    H263206   6.391   1.792  15.495  0.0425  0.0066 -0.1052
13931TIP3   OH263207   2.619   0.744   4.534 -1.0147 -0.3153 -0.7866
13931TIP3    H163208   2.641   0.784   4.450  1.3145 -0.4802 -0.2897
13931TIP3    H263209   2.647   0.653   4.525 -1.1825 -0.4479  0.0047
13932TIP3   OH263210   3.893   5.886   2.475 -0.5321  0.2023  0.4540
13932TIP3    H163211   3.876   5.843   2.391 -1.2549  1.2784  0.0377
13932TIP3    H263212   3.810   5.930   2.496 -0.5471 -0.5642  2.0318
13933TIP3   OH263213   2.409   0.907  14.603 -0.1430 -0.3545  0.7748
13933TIP3    H163214   2.318   0.922  14.627  0.1962 -0.3778  2.0768
13933TIP3    H263215   2.404   0.840  14.534 -0.9168 -3.0173  3.2960
13934TIP3   OH263216   6.719   3.660  11.967  0.0982 -0.3546  0.3168
13934TIP3    H163217   6.806   3.693  11.946  0.7952  0.1728  3.7400
13934TIP3    H263218   6.733   3.601  12.040 -2.4318 -0.2371  0.9379
13935TIP3   OH263219   4.033   2.800   2.231 -0.7803  0.2398 -0.8852
13935TIP3    H163220   4.036   2.840   2.144  0.3473  0.8644 -0.5678
13935TIP3    H263221   3.955   2.745   2.229 -1.0554  0.6539 -2.1168
13936TIP3   OH263222   2.280   1.462   0.267  0.1232 -0.1643 -0.2760
13936TIP3    H163223   2.212   1.523   0.239 -1.6617 -1.2872  1.4537
13936TIP3    H263224   2.281   1.395   0.199 -1.3414 -0.7412  0.2343
13937TIP3   OH263225   1.508   1.722   0.265 -0.3775  0.4345  0.0198
13937TIP3    H163226   1.582   1.668   0.293  1.1125  1.7817 -1.2253
13937TIP3    H263227   1.443   1.712   0.335  0.0443 -2.5721  0.0309
13938TIP3   OH263228   3.623   1.102   3.733 -0.2231 -0.6900  0.2500
13938TIP3    H163229   3.608   1.020   3.781 -0.2025 -0.5900  0.4266
13938TIP3    H263230   3.582   1.169   3.787 -1.3988 -0.7482 -0.5382
13939TIP3   OH263231   1.972   6.459   2.385  0.3937 -0.1515 -0.0827
13939TIP3    H163232   1.985   6.454   2.290  0.3859  2.0744 -0.2267
13939TIP3    H263233   2.037   6.398   2.421  1.6728  0.3826 -1.4307
13940TIP3   OH263234   0.752   2.663  14.713 -0.5736  0.4387  0.1776
13940TIP3    H163235   0.771   2.685  14.805 -0.5465  1.7544 -0.1244
13940TIP3    H263236   0.657   2.671  14.706 -0.5195  0.9535 -0.0437
13941TIP3   OH263237   3.054   4.312  13.323 -0.0993  0.0512 -0.2267
13941TIP3    H163238   3.009   4.296  13.406 -1.1925  0.9764 -0.6237
13941TIP3    H263239   3.012   4.253  13.261 -2.0404  2.1833 -1.0031
13942TIP3   OH263240   3.537   5.441  16.631  0.0112  0.3835 -0.0723
13942TIP3    H163241   3.568   5.530  16.613 -1.8745  0.5930 -2.5568
13942TIP3    H263242   3.514   5.442  16.724  4.3378  1.0937  1.1392
13943TIP3   OH263243   1.629   1.732  15.148  0.5689 -0.2007  0.3710
13943TIP3    H163244   1.551   1.706  15.099  1.0773 -2.0428  0.4811
13943TIP3    H263245   1.695   1.750  15.081  0.8412 -1.3343  0.3128
13944TIP3   OH263246   0.164   1.077   2.081 -0.7366  0.3624 -0.1276
13944TIP3    H163247   0.191   1.046   2.167 -2.7237 -1.8808 -0.2664
13944TIP3    H263248   0.080   1.121   2.096 -0.8798  0.3550 -0.8638
13945TIP3   OH263249   0.139   6.462  14.316 -0.4354  0.2313  0.3809
13945TIP3    H163250   0.057   6.505  14.342 -0.0286  0.1132  1.9039
13945TIP3    H263251   0.191   6.532  14.276 -1.4970  0.1827 -1.0883
13946TIP3   OH263252   5.138   5.957   4.560 -0.1499 -0.1790 -0.0540
13946TIP3    H163253   5.205   6.025   4.555  1.2676 -1.3559  1.9757
13946TIP3    H263254   5.175   5.882   4.513 -1.0831 -0.0505 -1.0139
13947TIP3   OH263255   2.197   4.581  13.462  0.4733 -0.2868 -0.2212
13947TIP3    H163256   2.111   4.538  13.457  0.8387 -1.0211 -0.3745
13947TIP3    H263257   2.181   4.670  13.432  0.0082 -0.7984 -1.5530
13948TIP3   OH263258   3.394   1.598  15.579  0.1260 -0.6943  0.5453
13948TIP3    H163259   3.337   1.675  15.585  0.8555 -0.0949 -0.1185
13948TIP3    H263260   3.336   1.524  15.599 -0.5877  0.0166  1.1619
13949TIP3   OH263261   0.139   2.065  15.422  0.2900  0.5458  0.6562
13949TIP3    H163262   0.224   2.097  15.392  0.7312  0.8586  2.2051
13949TIP3    H263263   0.106   2.135  15.478  0.0170 -0.5280  1.8524
13950TIP3   OH263264   6.026   0.815  13.337  0.4364 -0.1071  0.1576
13950TIP3    H163265   5.949   0.870  13.320  0.8221  0.0088 -1.3013
13950TIP3    H263266   6.100   0.872  13.317  0.9090 -0.1744  1.6942
13951TIP3   OH263267   2.262   4.404   3.952 -0.1888  0.2563  0.0394
13951TIP3    H163268   2.241   4.481   4.005 -0.3847  0.4944 -0.3855
13951TIP3    H263269   2.251   4.433   3.862  1.9642  0.3733 -0.1916
13952TIP3   OH263270   0.836   6.119   2.351  0.1486 -0.0764  0.0454
13952TIP3    H163271   0.899   6.174   2.397  0.2464 -0.2429  0.1122
13952TIP3    H263272   0.813   6.170   2.273 -0.7439  0.6237  0.7543
13953TIP3   OH263273   2.771   1.031   1.089 -0.4523  0.2114 -0.0407
13953TIP3    H163274   2.744   1.019   0.998  0.6774 -2.3098 -0.0798
13953TIP3    H263275   2.703   0.987   1.140 -0.0028 -0.1692  0.2286
13954TIP3   OH263276   4.621   3.178  16.588  0.5280 -0.0802  0.7171
13954TIP3    H163277   4.713   3.205  16.592  1.5630 -3.0464 -1.3690
13954TIP3    H263278   4.607   3.128  16.668  0.7563  0.2722  0.9795
13955TIP3   OH263279   6.522   0.674   0.873 -0.2055 -0.3415 -0.5002
13955TIP3    H163280   6.600   0.729   0.871 -0.9080  0.6933 -0.2149
13955TIP3    H263281   6.450   0.735   0.891 -0.8231 -1.5609  1.4028
13956TIP3   OH263282   0.715   3.612   4.970  0.0703 -0.1750  0.4260
13956TIP3    H163283   0.738   3.558   5.046 -1.4785 -0.0550  1.0057
13956TIP3    H263284   0.748   3.564   4.895 -3.3880 -3.2421  0.6945
13957TIP3   OH263285   4.920   5.684   3.425  0.3886 -0.0433  0.3332
13957TIP3    H163286   4.913   5.772   3.462  0.5895  0.1260 -0.0248
13957TIP3    H263287   4.970   5.696   3.344 -1.5951 -0.1113 -0.9497
13958TIP3   OH263288   6.719   4.972  12.108 -0.3235  0.2803 -0.0583
13958TIP3    H163289   6.734   4.878  12.105  0.8605  0.4349  0.5579
13958TIP3    H263290   6.796   5.010  12.065  0.1237  1.0337  1.3717
13959TIP3   OH263291   5.506   1.966   3.862  1.0690  0.3239  0.6677
13959TIP3    H163292   5.519   2.061   3.862 -0.8122  0.5939  0.3904
13959TIP3    H263293   5.517   1.941   3.770  1.1681  0.3230  0.6791
13960TIP3   OH263294   5.298   3.328  12.823  0.2772  0.2057 -0.0573
13960TIP3    H163295   5.272   3.409  12.866 -1.3137  0.7220 -1.8786
13960TIP3    H263296   5.288   3.261  12.891 -1.0312  1.1542  0.7232
13961TIP3   OH263297   5.051   2.127  14.587 -0.2991  0.2583  0.1165
13961TIP3    H163298   5.011   2.066  14.649 -2.2253  0.1510 -1.1839
13961TIP3    H263299   5.125   2.078  14.551 -0.3693 -0.4113  0.8546
13962TIP3   OH263300   1.172   4.253   0.770  0.0254 -0.1570  0.0025
13962TIP3    H163301   1.125   4.190   0.715  0.2539 -0.7380  0.4653
13962TIP3    H263302   1.104   4.289   0.827 -0.0801 -0.0858 -0.1665
13963TIP3   OH263303   1.335   5.367  12.735  0.3342  0.0340 -0.0812
13963TIP3    H163304   1.402   5.357  12.803 -0.6982  2.9931  1.4466
13963TIP3    H263305   1.265   5.308  12.762  0.1772  0.7598  1.1269
13964TIP3   OH263306   5.702   2.130  13.290  0.3555  0.1101 -0.0038
13964TIP3    H163307   5.797   2.126  13.287  0.3466 -0.5897  0.7520
13964TIP3    H263308   5.672   2.043  13.262 -0.0205 -0.4287  2.0341
13965TIP3   OH263309   6.486   0.020  17.022 -0.3776 -0.1410  0.0305
13965TIP3    H163310   6.444  -0.003  17.105 -1.5967 -2.4450 -1.1656
13965TIP3    H263311   6.520  -0.063  16.988 -0.8299  0.5605 -2.2698
13966TIP3   OH263312   6.019   4.321   4.626 -0.1436 -0.4656 -0.8123
13966TIP3    H163313   6.053   4.313   4.715 -1.8232  0.9347 -0.0025
13966TIP3    H263314   6.057   4.403   4.593 -0.0506 -0.6364 -1.1344
13967TIP3   OH263315   4.404   5.815  16.888 -0.4192 -0.7831  0.4246
13967TIP3    H163316   4.487   5.860  16.872 -0.1570 -0.9516  1.3008
13967TIP3    H263317   4.355   5.874  16.944 -0.2719 -1.3663  1.1713
13968TIP3   OH263318   2.404   3.712   4.441 -0.3768 -0.4552 -0.2965
13968TIP3    H163319   2.423   3.635   4.388 -0.5008  0.2572 -1.3936
13968TIP3    H263320   2.459   3.701   4.519  0.4391 -1.1124 -0.9454
13969TIP3   OH263321   1.879   6.338   1.141  0.1425 -0.1159 -0.1315
13969TIP3    H163322   1.865   6.355   1.234 -0.8431  1.9137 -0.6318
13969TIP3    H263323   1.796   6.362   1.099  1.5276  1.7901 -1.8731
13970TIP3   OH263324   1.045   4.514  11.612 -0.0895 -0.0299 -0.0797
13970TIP3    H163325   0.967   4.507  11.557 -1.0920  0.0042  1.3173
13970TIP3    H263326   1.099   4.440  11.585  0.2380  0.9773 -2.3286
13971TIP3   OH263327   3.693   3.530  11.388  0.1257  0.6943 -0.4957
13971TIP3    H163328   3.627   3.464  11.364  0.5519 -0.0341  0.2647
13971TIP3    H263329   3.756   3.529  11.316 -0.7673  1.4954 -1.2919
13972TIP3   OH263330   4.083   2.608   3.539 -0.0276 -0.1219  0.4449
13972TIP3    H163331   3.987   2.609   3.539 -0.0643 -2.2096 -0.4017
13972TIP3    H263332   4.106   2.518   3.560  1.7652  0.3690  0.6553
13973TIP3   OH263333   1.042   1.119  16.808 -0.5358  0.4779 -0.1484
13973TIP3    H163334   1.120   1.174  16.818 -0.8307  0.8698  0.0028
13973TIP3    H263335   0.980   1.174  16.762 -1.0635  0.4948  0.5706
13974TIP3   OH263336   4.799   5.567   6.206 -0.2802 -0.1076 -0.8697
13974TIP3    H163337   4.853   5.624   6.260  0.2106  0.1329 -1.6070
13974TIP3    H263338   4.826   5.478   6.231 -0.9209 -0.0176  0.1502
13975TIP3   OH263339   6.173   1.799   4.027 -0.5956  0.2097  0.0415
13975TIP3    H163340   6.138   1.710   4.030  0.5172 -0.2420  0.0871
13975TIP3    H263341   6.166   1.830   4.118  1.6859 -0.9198  0.6534
13976TIP3   OH263342   2.495   5.247  14.450  0.3401 -0.3260 -0.3762
13976TIP3    H163343   2.485   5.284  14.363 -1.5182  1.1240  0.4287
13976TIP3    H263344   2.486   5.153  14.438  0.2495 -0.1421 -1.7660
13977TIP3   OH263345   3.462   6.682   4.762  0.3394 -0.0481 -0.0743
13977TIP3    H163346   3.404   6.650   4.831  0.0024 -0.8145 -0.7116
13977TIP3    H263347   3.550   6.656   4.791  0.2430  0.0075  0.2714
13978TIP3   OH263348   5.772   5.861   5.900 -0.3053  0.4581 -0.0378
13978TIP3    H163349   5.808   5.945   5.927 -2.7422  1.3599  0.5618
13978TIP3    H263350   5.722   5.830   5.976 -0.2476 -1.0493 -0.5951
13979TIP3   OH263351   0.940   2.406  10.321  0.1349  0.0415  0.3584
13979TIP3    H163352   0.886   2.329  10.338 -0.1622  0.5870  1.9863
13979TIP3    H263353   0.888   2.479  10.355  1.7067  0.6156  1.5849
13980TIP3   OH263354   1.797   2.329   6.354  0.0984  0.1190 -0.0230
13980TIP3    H163355   1.803   2.368   6.267  0.5043  0.7888  0.3057
13980TIP3    H263356   1.715   2.280   6.352 -0.0493  0.3835 -0.6815
13981TIP3   OH263357   1.268   0.187   1.523  0.6671 -0.1982 -0.2379
13981TIP3    H163358   1.353   0.201   1.566 -0.0667  2.1217  0.5260
13981TIP3    H263359   1.243   0.273   1.491 -1.9148 -0.6499  0.4741
13982TIP3   OH263360   6.714   4.084   6.414  0.4616 -0.0486  0.1041
13982TIP3    H163361   6.804   4.095   6.384  0.0728 -1.4933 -1.6701
13982TIP3    H263362   6.661   4.095   6.335 -0.8781  0.0076  0.9918
13983TIP3   OH263363   6.068   5.404  15.117  0.6321  0.2365  0.4013
13983TIP3    H163364   6.006   5.443  15.056  0.5831 -3.0289 -1.7186
13983TIP3    H263365   6.142   5.465  15.118 -0.5176  1.6898 -0.8328
13984TIP3   OH263366   0.419   6.110   5.551  0.1415 -0.2971  0.0652
13984TIP3    H163367   0.328   6.082   5.540 -1.1135  3.3611  0.2041
13984TIP3    H263368   0.445   6.076   5.636 -1.5026 -0.3935  0.5407
13985TIP3   OH263369   0.589   2.184  16.045 -0.5594  0.1012 -0.2780
13985TIP3    H163370   0.532   2.162  15.971 -0.3653  1.1304 -0.7407
13985TIP3    H263371   0.637   2.262  16.016 -0.0579  0.1666  0.7105
13986TIP3   OH263372   6.734   5.611  12.791 -0.2158  0.3955  0.0711
13986TIP3    H163373   6.724   5.693  12.742 -1.1150  0.0173 -0.3920
13986TIP3    H263374   6.768   5.548  12.727  1.3708  0.6375  0.6568
13987TIP3   OH263375   0.571   4.594   3.520 -0.2019 -0.3678  0.4475
13987TIP3    H163376   0.534   4.623   3.603 -2.5711  0.1482 -0.7758
13987TIP3    H263377   0.553   4.665   3.459  0.1301 -1.4167 -0.8944
13988TIP3   OH263378   5.179   1.364  15.407  0.7719  0.0387 -0.1715
13988TIP3    H163379   5.146   1.278  15.434  1.2589  0.0298  0.4027
13988TIP3    H263380   5.207   1.351  15.316 -0.5532 -0.0195 -0.5756
13989TIP3   OH263381   5.724   1.474   1.507 -0.6443 -0.0877 -0.3818
13989TIP3    H163382   5.642   1.520   1.527 -0.5193  0.0642 -0.2126
13989TIP3    H263383   5.764   1.459   1.593 -0.9764 -1.0640 -0.3973
13990TIP3   OH263384   3.358   4.087   6.463 -0.4425 -0.3897  0.0671
13990TIP3    H163385   3.271   4.127   6.465  0.4791  1.7203 -0.4625
13990TIP3    H263386   3.398   4.112   6.546  0.6397  0.9823 -0.8451
13991TIP3   OH263387   0.571   4.184  13.797 -0.0273  0.5331 -0.7995
13991TIP3    H163388   0.624   4.212  13.722  0.4711  0.6090 -0.4173
13991TIP3    H263389   0.582   4.254  13.861  1.6769 -0.8032  0.3896
13992TIP3   OH263390   3.355   0.669   1.601  0.4498 -0.0697  0.6237
13992TIP3    H163391   3.301   0.717   1.539  1.1083  0.0742  0.1554
13992TIP3    H263392   3.300   0.598   1.632  0.2450 -0.3619 -0.4053
13993TIP3   OH263393   4.675   4.855  13.677 -0.0613  0.4641 -0.1280
13993TIP3    H163394   4.604   4.915  13.652 -0.7281 -0.3323 -0.1947
13993TIP3    H263395   4.754   4.894  13.640 -0.7743  0.2259 -1.9832
13994TIP3   OH263396   6.321   4.140   3.029 -0.1574 -0.0168  0.7102
13994TIP3    H163397   6.306   4.094   3.111 -1.6404  1.1552  1.1220
13994TIP3    H263398   6.251   4.206   3.025 -0.0375  0.0190 -1.4301
13995TIP3   OH263399   5.807   2.207   2.565  0.0980 -0.1262 -0.3799
13995TIP3    H163400   5.724   2.252   2.547  0.6685  1.5974  1.0956
13995TIP3    H263401   5.839   2.179   2.480 -2.4057 -1.6012 -0.9154
13996TIP3   OH263402   1.580   0.052   1.087  0.0233  0.2396  0.7651
13996TIP3    H163403   1.672   0.028   1.093 -0.3620 -1.1437  1.2998
13996TIP3    H263404   1.573   0.134   1.136  1.0345  0.5561  0.3821
13997TIP3   OH263405   5.100   1.110  15.560 -0.2412  0.2947  0.3059
13997TIP3    H163406   5.028   1.143  15.613 -0.9735 -1.8354  0.6574
13997TIP3    H263407   5.058   1.056  15.493  1.0927 -2.4854  1.6220
13998TIP3   OH263408   2.192   5.787   4.579 -0.1513  0.0982 -0.0809
13998TIP3    H163409   2.143   5.849   4.633  0.8568  1.0609 -0.2457
13998TIP3    H263410   2.182   5.703   4.624  0.6364  0.8777  1.5959
13999TIP3   OH263411   2.373   4.426   5.353 -0.9267 -0.2137 -0.0877
13999TIP3    H163412   2.356   4.353   5.293  2.6654 -0.4771 -0.8938
13999TIP3    H263413   2.327   4.402   5.433 -2.1956 -1.9576 -1.2918
14000TIP3   OH263414   1.997   3.715  15.217 -0.1623  0.3040 -0.2865
14000TIP3    H163415   1.979   3.808  15.205 -0.0366 -0.0111 -3.3205
14000TIP3    H263416   2.015   3.682  15.128 -2.8262 -3.1541  0.3380
14001TIP3   OH263417   0.533   5.036   2.565  0.0727 -0.0381  0.2121
14001TIP3    H163418   0.557   5.053   2.474 -1.6807 -1.3855 -0.5336
14001TIP3    H263419   0.450   5.082   2.577 -0.7904 -1.6234  0.4608
14002TIP3   OH263420   4.196   5.793   1.363 -1.0156  0.0608 -0.0854
14002TIP3    H163421   4.139   5.735   1.311 -1.5918 -0.4509  1.1101
14002TIP3    H263422   4.189   5.878   1.319 -1.5461 -0.3504 -0.8207
14003TIP3   OH263423   3.142   6.437  12.369  0.1314  0.2938 -0.7006
14003TIP3    H163424   3.166   6.486  12.447  0.0753  2.0303 -1.7546
14003TIP3    H263425   3.109   6.354  12.403  1.2927  0.5091  1.0588
14004TIP3   OH263426   0.240   2.135   5.789 -0.2700  0.4444 -0.2029
14004TIP3    H163427   0.316   2.083   5.815 -0.0089  1.1985  0.5823
14004TIP3    H263428   0.167   2.073   5.789 -0.1438  0.2654  1.6523
14005TIP3   OH263429   1.576   0.848  11.272  0.0766  0.1534  0.4146
14005TIP3    H163430   1.552   0.917  11.210  1.4974 -0.9221 -1.3745
14005TIP3    H263431   1.591   0.894  11.354 -1.2298  1.6954 -0.1740
14006TIP3   OH263432   6.033   6.036   6.160 -0.2030 -0.0891 -0.5521
14006TIP3    H163433   6.055   6.101   6.227 -1.5649 -1.4654  1.3025
14006TIP3    H263434   5.964   6.078   6.108 -2.6456 -0.7826  1.9879
14007TIP3   OH263435   4.781   0.252  12.627  0.6741 -0.0303 -0.2485
14007TIP3    H163436   4.748   0.330  12.671 -2.1489 -0.1547 -2.0280
14007TIP3    H263437   4.806   0.193  12.698  1.8184  2.0230  1.1155
14008TIP3   OH263438   4.816   4.847   4.133 -0.2521  0.0746  0.5958
14008TIP3    H163439   4.795   4.831   4.224 -2.3152 -0.5887  0.0303
14008TIP3    H263440   4.826   4.942   4.127  0.8380  0.0313  1.6872
14009TIP3   OH263441   4.151   0.956  10.738 -0.1760  0.2786  0.0850
14009TIP3    H163442   4.216   0.933  10.672 -1.4724 -1.1753 -0.6941
14009TIP3    H263443   4.120   1.043  10.713  0.2016  0.2372 -0.5189
14010TIP3   OH263444   6.687   3.257  14.554  0.5878 -0.1331  0.0495
14010TIP3    H163445   6.634   3.333  14.577 -1.4181 -0.7536 -2.2790
14010TIP3    H263446   6.769   3.294  14.522  0.1218  1.0061  0.1439
14011TIP3   OH263447   3.119   1.612   4.672 -0.1556  0.0416  0.1096
14011TIP3    H163448   3.025   1.592   4.663  0.0108 -0.0481 -1.4670
14011TIP3    H263449   3.163   1.539   4.629  0.6352  0.2187  0.6216
14012TIP3   OH263450   1.926   4.145  11.187 -0.6695  0.1117  0.2385
14012TIP3    H163451   1.923   4.132  11.282  0.7380  0.1827  0.3145
14012TIP3    H263452   1.953   4.237  11.177 -0.1559 -0.0840 -0.2130
14013TIP3   OH263453   2.335   1.508  15.422  0.0283  0.1367  0.0378
14013TIP3    H163454   2.293   1.558  15.492  2.6363  0.0016  1.7888
14013TIP3    H263455   2.312   1.554  15.342 -0.4010  2.1763  1.3030
14014TIP3   OH263456   2.163   6.458   5.748 -0.2231  0.5790 -0.0387
14014TIP3    H163457   2.155   6.394   5.819  0.8176 -0.1939 -0.6044
14014TIP3    H263458   2.183   6.405   5.671  0.3022  1.5617 -0.5777
14015TIP3   OH263459   2.788   5.879   4.502 -0.1774 -0.1815  0.3093
14015TIP3    H163460   2.714   5.865   4.562  0.1694 -0.0686  0.7683
14015TIP3    H263461   2.759   5.841   4.419 -0.5366 -0.6345  0.6388
14016TIP3   OH263462   4.094   5.742  10.700 -0.1376 -0.7314 -0.1758
14016TIP3    H163463   4.014   5.697  10.672 -0.7139  0.1031  0.0970
14016TIP3    H263464   4.062   5.817  10.750  0.8380 -2.0936  2.5957
14017TIP3   OH263465   3.983   3.010   2.031 -0.6457  0.4434 -0.4280
14017TIP3    H163466   3.888   3.013   2.040 -0.6726 -0.4006 -0.3328
14017TIP3    H263467   4.015   3.077   2.091 -1.1499  0.1757  0.1427
14018TIP3   OH263468   4.942   0.598  15.572  0.1768  0.3710  0.0342
14018TIP3    H163469   4.988   0.528  15.618 -1.4710 -0.7091  0.0545
14018TIP3    H263470   4.962   0.677  15.622  1.7636 -0.1180  0.2058
14019TIP3   OH263471   2.568   5.551   0.910 -0.1001  0.0175 -0.0249
14019TIP3    H163472   2.640   5.595   0.866  0.2598  1.3898  1.8942
14019TIP3    H263473   2.506   5.620   0.931  0.1120 -0.4435  2.3117
14020TIP3   OH263474   1.014   3.697   5.681 -0.3824  0.5935 -0.4000
14020TIP3    H163475   0.925   3.706   5.714 -1.0826 -0.4149 -1.9129
14020TIP3    H263476   1.048   3.620   5.727 -1.1449 -0.4527 -1.5414
14021TIP3   OH263477   6.469   1.511  11.031  0.8103  0.3163  0.4834
14021TIP3    H163478   6.481   1.439  11.093  0.2778  1.1599  1.5923
14021TIP3    H263479   6.435   1.470  10.952 -0.6095 -0.5036  1.5024
14022TIP3   OH263480   2.372   3.239   5.030  0.3435 -0.3558 -0.1314
14022TIP3    H163481   2.388   3.237   4.935  0.9301 -0.1107 -0.0356
14022TIP3    H263482   2.366   3.332   5.051  0.0880 -0.4147  0.0569
14023TIP3   OH263483   0.060   6.080  14.737 -0.2394  0.1214 -0.2421
14023TIP3    H163484   0.048   6.052  14.646  0.2278  3.0008 -1.2418
14023TIP3    H263485   0.142   6.038  14.764  0.0684 -0.0668 -1.4294
14024TIP3   OH263486   4.669   6.362   2.671  0.3606  0.5227 -0.0207
14024TIP3    H163487   4.621   6.279   2.662  1.1305  0.2237 -1.6826
14024TIP3    H263488   4.673   6.377   2.765 -2.2054  0.1041  0.1924
14025TIP3   OH263489   6.275   4.612  16.105 -0.3641 -0.1262 -0.0112
14025TIP3    H163490   6.251   4.524  16.077 -0.3867  0.0954 -0.6816
14025TIP3    H263491   6.364   4.603  16.139  0.1770 -0.1226 -1.4143
14026TIP3   OH263492   1.221   1.233   0.811 -0.1887  0.0848  0.2638
14026TIP3    H163493   1.136   1.276   0.820  0.2239  1.0566 -0.4637
14026TIP3    H263494   1.282   1.290   0.858 -0.0283 -0.9405  1.3383
14027TIP3   OH263495   6.557   4.931   2.093  0.6299 -0.0860 -0.3441
14027TIP3    H163496   6.480   4.894   2.050 -0.9140  1.8154  0.6838
14027TIP3    H263497   6.559   5.022   2.063  0.9423  0.5917  1.6729
14028TIP3   OH263498   4.403   0.345   2.106 -0.1967  0.0833  0.4887
14028TIP3    H163499   4.332   0.410   2.099 -0.8036 -0.4391  1.5938
14028TIP3    H263500   4.359   0.261   2.094  0.2513 -0.2416  1.1023
14029TIP3   OH263501   3.585   3.335  14.192 -0.9438 -0.3524  0.8969
14029TIP3    H163502   3.531   3.357  14.117 -2.0587  0.1973  1.8371
14029TIP3    H263503   3.569   3.241  14.207  2.1526 -1.3854 -1.7933
14030TIP3   OH263504   5.551   6.211  10.482 -0.0650 -0.5410 -0.2089
14030TIP3    H163505   5.562   6.305  10.495 -0.1917 -0.3269 -1.5585
14030TIP3    H263506   5.638   6.179  10.461 -0.1602 -0.5848 -0.5473
14031TIP3   OH263507   6.751   1.249  10.275 -0.6365 -0.3527  0.5204
14031TIP3    H163508   6.752   1.342  10.253  1.9784 -0.5050 -0.1391
14031TIP3    H263509   6.731   1.246  10.369  1.7129  1.0174  1.0859
14032TIP3   OH263510   0.110   4.770   2.521 -0.6383  0.0682 -0.1854
14032TIP3    H163511   0.030   4.742   2.567 -0.8264  0.3715 -0.3316
14032TIP3    H263512   0.083   4.778   2.430 -1.2498  3.2760  0.2327
14033TIP3   OH263513   1.177   0.044  12.493 -0.4395  0.1069 -0.1053
14033TIP3    H163514   1.102   0.102  12.509 -0.4630  0.3802 -1.1434
14033TIP3    H263515   1.253   0.097  12.518 -0.5278  0.1801  0.0128
14034TIP3   OH263516   6.029   5.260   3.502  0.6535 -0.1401  0.1198
14034TIP3    H163517   5.952   5.296   3.545  0.9305 -0.5251  0.9566
14034TIP3    H263518   6.036   5.308   3.420  1.3470  2.1503  1.4815
14035TIP3   OH263519   1.552   3.213  10.685  0.5869  0.4350  0.2859
14035TIP3    H163520   1.546   3.119  10.669 -2.6023  0.8311 -1.2803
14035TIP3    H263521   1.610   3.245  10.616  0.9133 -0.2737  0.2302
14036TIP3   OH263522   3.949   0.414   0.251  0.8052  0.0478 -0.7259
14036TIP3    H163523   3.989   0.441   0.334  0.6623 -0.6143 -0.4367
14036TIP3    H263524   4.020   0.416   0.188  0.8311  0.9545 -0.6853
14037TIP3   OH263525   0.868   0.714  12.980  0.3017 -0.1318  0.7814
14037TIP3    H163526   0.940   0.758  12.935  1.6468 -0.5192  2.5292
14037TIP3    H263527   0.907   0.637  13.020 -1.5867 -1.6970 -0.2860
14038TIP3   OH263528   6.204   5.820  14.298 -0.3112 -0.0028  0.2499
14038TIP3    H163529   6.194   5.903  14.345 -1.5324 -0.0930  0.1662
14038TIP3    H263530   6.172   5.753  14.358  0.6962 -0.4328  0.3270
14039TIP3   OH263531   4.543   2.740  10.956  0.2195  1.0614  0.5721
14039TIP3    H163532   4.504   2.654  10.969 -0.4514  1.3069  0.2396
14039TIP3    H263533   4.544   2.780  11.043 -1.8124  1.6878  0.3364
14040TIP3   OH263534   1.908   0.643   2.668  0.7553 -0.4572 -0.2611
14040TIP3    H163535   1.915   0.723   2.617 -0.3384 -0.7558 -0.8821
14040TIP3    H263536   1.951   0.664   2.751  0.1527  0.8792 -0.2806
14041TIP3   OH263537   3.413   0.410   0.108  0.2178 -0.3428  0.4359
14041TIP3    H163538   3.490   0.448   0.152  0.5670 -1.2314  0.5932
14041TIP3    H263539   3.437   0.319   0.091 -2.4749 -2.0148  4.6296
14042TIP3   OH263540   3.028   1.065   5.590 -0.3016  0.4209  0.0375
14042TIP3    H163541   2.967   1.001   5.627 -0.2202  1.2501  1.6497
14042TIP3    H263542   2.977   1.112   5.525 -2.1415  2.6687  2.9633
14043TIP3   OH263543   0.540   5.479   0.425  0.1761 -0.4465  0.4364
14043TIP3    H163544   0.559   5.515   0.511 -1.9743  0.4141  0.5607
14043TIP3    H263545   0.464   5.423   0.438 -0.5181  0.1373 -1.0125
14044TIP3   OH263546   2.954   0.825  10.815 -0.0154 -0.2431  0.2903
14044TIP3    H163547   3.018   0.884  10.776 -0.8246  0.6061  0.2521
14044TIP3    H263548   2.906   0.788  10.741  1.5952 -2.2378  0.1996
14045TIP3   OH263549   0.842   1.270  16.710 -0.0784 -0.2761  0.2414
14045TIP3    H163550   0.789   1.193  16.690  0.7752 -0.6255 -0.7514
14045TIP3    H263551   0.798   1.342  16.665  0.3188 -0.5800 -0.6454
14046TIP3   OH263552   5.597   3.677   0.267  0.5312  0.0537  0.5998
14046TIP3    H163553   5.682   3.650   0.233  0.3453  0.6818 -0.4111
14046TIP3    H263554   5.543   3.598   0.264  0.4317  0.1668 -0.8813
14047TIP3   OH263555   3.177   1.951   5.748  0.1546  0.4945  0.8470
14047TIP3    H163556   3.261   1.954   5.794  0.6309  0.7719 -0.0353
14047TIP3    H263557   3.178   2.028   5.691  0.0237 -0.4052 -0.4030
14048TIP3   OH263558   6.289   4.744  10.803  0.2009  0.0333  0.3535
14048TIP3    H163559   6.311   4.771  10.714  1.7994 -1.3605  0.3082
14048TIP3    H263560   6.213   4.687  10.792  0.1409  0.1960 -0.0833
14049TIP3   OH263561   6.356   6.035  11.615  0.1496  0.2762 -0.1609
14049TIP3    H163562   6.389   5.958  11.662  2.2748 -0.1122 -2.1984
14049TIP3    H263563   6.380   6.019  11.524  0.0364  3.0638 -0.7051
14050TIP3   OH263564   6.651   3.837  14.594 -0.3596  0.1584  1.0062
14050TIP3    H163565   6.655   3.932  14.585 -0.3660  0.1358  0.7609
14050TIP3    H263566   6.557   3.816  14.589 -0.5142  0.3283  3.0233
14051TIP3   OH263567   0.366   6.587  13.749  0.5192  0.0239 -0.2319
14051TIP3    H163568   0.381   6.571  13.842 -2.0967  2.9168  0.7515
14051TIP3    H263569   0.450   6.617  13.716  1.1724  0.1074  1.4527
14052TIP3   OH263570   3.103   1.375   5.303 -0.3414 -0.4260  0.0932
14052TIP3    H163571   3.188   1.408   5.275 -0.0651 -1.2971 -0.1167
14052TIP3    H263572   3.122   1.320   5.379 -0.6000 -1.3448 -0.4937
14053TIP3   OH263573   1.605   3.128   2.508 -0.8113 -0.6977 -0.6389
14053TIP3    H163574   1.674   3.153   2.446  0.4039  0.3637  1.1023
14053TIP3    H263575   1.564   3.210   2.533  0.0908 -0.8779  1.5350
14054TIP3   OH263576   4.702   2.495   2.164 -0.3105  0.5345  0.1102
14054TIP3    H163577   4.684   2.486   2.070  0.8637 -2.0180  0.0933
14054TIP3    H263578   4.797   2.479   2.171  0.3869  4.5666  1.2892
14055TIP3   OH263579   2.637   5.762  11.791  0.5510  0.3313 -0.1041
14055TIP3    H163580   2.610   5.813  11.867  0.4900 -1.0618  0.8218
14055TIP3    H263581   2.723   5.796  11.768  1.0520  0.0316  1.2669
14056TIP3   OH263582   4.249   6.735  13.537  0.2458  0.0092  0.0392
14056TIP3    H163583   4.314   6.682  13.491  0.4199  0.3304 -0.0885
14056TIP3    H263584   4.165   6.702  13.506  0.3339 -0.8729  0.7322
14057TIP3   OH263585   4.740   5.952   5.154 -0.0337  0.5590 -0.4833
14057TIP3    H163586   4.796   5.878   5.177 -1.3243 -0.6653 -1.1906
14057TIP3    H263587   4.653   5.926   5.184 -0.2258  2.4773  0.6698
14058TIP3   OH263588   3.805   0.835  16.529 -0.1610  0.5706 -0.6104
14058TIP3    H163589   3.775   0.846  16.620  1.7476 -1.1974  0.2769
14058TIP3    H263590   3.725   0.819  16.479 -1.1129  0.1909  0.9923
14059TIP3   OH263591   5.773   5.491   4.561  0.1284 -0.2223  0.5430
14059TIP3    H163592   5.732   5.486   4.474 -1.3554 -0.6283  1.2564
14059TIP3    H263593   5.807   5.580   4.566 -1.2598  0.3487  0.1918
14060TIP3   OH263594   6.392   4.159   4.603  0.5932  0.5079 -0.0116
14060TIP3    H163595   6.427   4.219   4.538  2.0917 -0.2300  0.0988
14060TIP3    H263596   6.411   4.200   4.687  2.5657 -0.5952  0.1038
14061TIP3   OH263597   2.579   0.731  13.012  0.0790 -0.0359  0.4026
14061TIP3    H163598   2.497   0.686  12.991 -0.7073  0.9636  1.2450
14061TIP3    H263599   2.560   0.779  13.093  1.6724 -0.2402  0.9172
14062TIP3   OH263600   0.808   3.610   3.423 -0.0441  0.5118 -0.5642
14062TIP3    H163601   0.753   3.663   3.364 -0.1579 -0.2831 -1.1786
14062TIP3    H263602   0.768   3.523   3.421 -1.8035  1.1688  2.9741
14063TIP3   OH263603   3.588   5.418   1.809 -0.3867  0.2222 -0.1847
14063TIP3    H163604   3.535   5.447   1.734 -0.3524  0.1284 -0.2458
14063TIP3    H263605   3.647   5.353   1.772  0.0671  0.6375 -0.2011
14064TIP3   OH263606   5.408   3.118  15.623 -0.1720 -0.4959 -0.3824
14064TIP3    H163607   5.314   3.116  15.641 -0.0914  0.8295  0.2700
14064TIP3    H263608   5.448   3.129  15.710  0.6380 -2.1079 -0.5505
14065TIP3   OH263609   5.280   6.292   0.524 -1.0155 -0.1757 -0.3220
14065TIP3    H163610   5.244   6.283   0.612 -2.2697 -0.2060 -0.8174
14065TIP3    H263611   5.276   6.387   0.507 -1.8736 -0.2798 -0.7698
14066TIP3   OH263612   5.955   3.460  10.788  0.3513 -0.2186  0.1688
14066TIP3    H163613   5.874   3.492  10.828  0.8115 -0.8439  1.6438
14066TIP3    H263614   6.021   3.472  10.856  1.3355 -0.5153 -0.7219
14067TIP3   OH263615   5.089   4.732  11.947 -0.2707 -0.4148 -0.5576
14067TIP3    H163616   5.079   4.639  11.926  1.3223 -0.5282 -0.8863
14067TIP3    H263617   5.050   4.741  12.034  1.7306 -1.9049  0.5378
14068TIP3   OH263618   2.489   6.767   6.899  0.1740  0.5851 -0.1471
14068TIP3    H163619   2.585   6.766   6.894  0.1813 -0.3235  0.0945
14068TIP3    H263620   2.461   6.702   6.835 -0.2111 -0.5518  1.1478
14069TIP3   OH263621   4.568   0.822  10.231  0.5430 -0.3659  0.0673
14069TIP3    H163622   4.638   0.877  10.195  1.1811 -0.6035  0.9277
14069TIP3    H263623   4.487   0.868  10.207  1.0640  0.9796  0.7968
14070TIP3   OH263624   2.676   0.800   1.898  0.6163 -0.3573  0.1209
14070TIP3    H163625   2.748   0.782   1.838  2.8303  1.7281  2.0786
14070TIP3    H263626   2.637   0.881   1.865 -1.2498 -1.7425 -1.2323
14071TIP3   OH263627   6.157   1.303  12.215  0.2582  0.2804  0.0517
14071TIP3    H163628   6.086   1.245  12.188 -0.1197  0.9766 -0.4749
14071TIP3    H263629   6.219   1.246  12.260  0.7849 -0.8915 -2.0779
14072TIP3   OH263630   3.576   2.639   1.685 -0.5341 -0.0883  0.3646
14072TIP3    H163631   3.497   2.630   1.739 -0.8179  0.2734  0.0159
14072TIP3    H263632   3.552   2.704   1.620 -0.3604 -0.8767 -0.4991
14073TIP3   OH263633   5.746   3.847  14.596  0.7185  0.1223  0.0343
14073TIP3    H163634   5.692   3.881  14.525  0.7852  0.9739  0.3849
14073TIP3    H263635   5.836   3.864  14.566  0.7819 -0.9161 -0.3644
14074TIP3   OH263636   1.150   1.308   2.689  0.3596 -0.1110  0.1016
14074TIP3    H163637   1.115   1.349   2.611 -2.1955 -1.8565  0.2548
14074TIP3    H263638   1.123   1.366   2.761  0.6069  0.2554 -0.1052
14075TIP3   OH263639   0.598   0.275   5.627  0.3421 -0.3377  0.2490
14075TIP3    H163640   0.650   0.303   5.702 -0.7948  1.7601  0.2745
14075TIP3    H263641   0.513   0.316   5.640 -0.8550 -2.5073 -0.5805
14076TIP3   OH263642   5.528   4.183  13.898 -0.0182 -0.1838 -0.0504
14076TIP3    H163643   5.581   4.104  13.890  0.7281  0.2439  0.6909
14076TIP3    H263644   5.577   4.250  13.852 -1.1417 -0.3675 -1.5788
14077TIP3   OH263645   6.239   3.421  15.803 -0.0638  0.1472  0.0616
14077TIP3    H163646   6.210   3.334  15.830  2.5334 -0.5979  0.5904
14077TIP3    H263647   6.268   3.409  15.712  0.2405  0.4789  0.1158
14078TIP3   OH263648   3.135   4.275  11.628 -0.6046 -0.5183  0.2558
14078TIP3    H163649   3.211   4.325  11.600 -0.6769 -0.2687  0.5064
14078TIP3    H263650   3.130   4.202  11.566  1.7233 -2.3289  2.0881
14079TIP3   OH263651   6.319   3.762  15.681  0.3740  0.2450 -0.5646
14079TIP3    H163652   6.350   3.748  15.592 -0.3830 -2.0942 -0.4845
14079TIP3    H263653   6.393   3.737  15.736 -0.4168 -2.0008 -0.4678
14080TIP3   OH263654   6.064   2.520  11.238 -0.6622  0.2911  0.2376
14080TIP3    H163655   6.097   2.485  11.156 -2.8413 -0.8646 -0.1664
14080TIP3    H263656   6.123   2.593  11.258  1.6533 -1.2284 -0.8167
14081TIP3   OH263657   2.896   4.571   6.212 -1.2656 -0.3349 -0.3897
14081TIP3    H163658   2.875   4.491   6.260 -1.4621  0.1705  0.3743
14081TIP3    H263659   2.953   4.620   6.272  1.5555 -1.3692 -2.1346
14082TIP3   OH263660   2.218   1.555   2.878  0.0431  0.2853  0.1907
14082TIP3    H163661   2.238   1.622   2.943  0.1714 -1.9931  2.5716
14082TIP3    H263662   2.301   1.510   2.863 -0.2510  0.0129 -0.6739
14083TIP3   OH263663   0.728   5.351  17.076 -0.3187  0.2282  0.0809
14083TIP3    H163664   0.754   5.402  17.153  1.8543 -0.7264  0.0058
14083TIP3    H263665   0.810   5.326  17.035 -1.4381 -0.0115 -2.0907
14084TIP3   OH263666   0.966   2.227   0.418 -1.0660  0.2167 -0.3434
14084TIP3    H163667   0.904   2.161   0.451 -0.9119 -0.0898 -0.6665
14084TIP3    H263668   0.911   2.295   0.380 -1.3173  1.3409  1.9455
14085TIP3   OH263669   3.634   5.347  16.991 -0.7103 -0.2097  0.0421
14085TIP3    H163670   3.550   5.384  16.964 -0.9329  0.3667  1.4693
14085TIP3    H263671   3.669   5.410  17.054  1.6375  0.4157 -1.8404
14086TIP3   OH263672   1.063   2.290   3.378 -0.2649  1.3844  0.1508
14086TIP3    H163673   1.124   2.324   3.443  0.6921  0.2969 -0.1753
14086TIP3    H263674   1.098   2.320   3.294 -0.0076  0.4952 -0.0595
14087TIP3   OH263675   4.807   6.095   2.057  0.4024  0.2832  0.1162
14087TIP3    H163676   4.857   6.136   2.128  0.7195  0.1467 -0.0284
14087TIP3    H263677   4.726   6.066   2.099  0.5524  0.2744  0.4055
14088TIP3   OH263678   1.119   4.907  14.678 -0.5782 -0.1858 -0.0125
14088TIP3    H163679   1.049   4.964  14.709  0.1446  1.3396 -1.1274
14088TIP3    H263680   1.109   4.827  14.729 -0.8331  1.3943  2.4902
14089TIP3   OH263681   4.322   6.201  14.682  0.4749  0.1042  0.8012
14089TIP3    H163682   4.301   6.126  14.738 -2.4790 -1.7355 -2.5807
14089TIP3    H263683   4.412   6.186  14.655  0.8899 -0.6414  2.5119
14090TIP3   OH263684   1.607   0.387  14.035 -0.4304 -0.1323 -0.3628
14090TIP3    H163685   1.632   0.428  13.952 -0.2870  2.3835  0.8680
14090TIP3    H263686   1.689   0.383  14.085 -0.9299  0.4206  0.5002
14091TIP3   OH263687   6.720   6.437  13.567 -0.6195 -0.0332 -0.0945
14091TIP3    H163688   6.654   6.450  13.635  0.4606 -1.2998  1.2027
14091TIP3    H263689   6.783   6.508  13.581 -1.1029  0.5110 -0.6365
14092TIP3   OH263690   4.660   1.209   0.234 -0.3363 -0.6968 -0.1176
14092TIP3    H163691   4.714   1.262   0.292 -2.4235  2.0585 -0.5900
14092TIP3    H263692   4.708   1.206   0.151 -0.1213  0.3295 -0.0326
14093TIP3   OH263693   6.136   0.356   5.088  0.1534  0.4140 -0.0652
14093TIP3    H163694   6.168   0.321   5.004 -0.8008  0.2032 -0.3542
14093TIP3    H263695   6.080   0.429   5.063 -0.0575  0.4111  0.3996
14094TIP3   OH263696   1.964   4.227  16.069  0.0838  0.6609  0.1378
14094TIP3    H163697   1.992   4.138  16.047 -1.8669  0.3184 -1.1323
14094TIP3    H263698   2.007   4.283  16.004 -0.8516  0.3249 -0.7794
14095TIP3   OH263699   4.478   6.040   1.404  0.0906  0.3903 -0.0343
14095TIP3    H163700   4.517   5.953   1.409  2.2366  1.3615  0.5370
14095TIP3    H263701   4.383   6.024   1.407  0.4582 -1.9119 -0.0733
14096TIP3   OH263702   1.732   5.823  16.762  0.2115 -0.2588 -0.3516
14096TIP3    H163703   1.645   5.816  16.724 -0.1855  2.7118 -0.0856
14096TIP3    H263704   1.779   5.884  16.704  0.1581  2.9513  2.8030
14097TIP3   OH263705   1.248   5.202   4.251  0.2498  0.3822 -0.4736
14097TIP3    H163706   1.278   5.285   4.288  1.9592 -1.0274  1.4025
14097TIP3    H263707   1.314   5.180   4.185  0.2261  0.1076 -0.4047
14098TIP3   OH263708   4.920   1.143  16.877 -0.1513  0.2230  0.0201
14098TIP3    H163709   4.868   1.209  16.923 -0.2836  2.3861 -3.0900
14098TIP3    H263710   4.991   1.193  16.836 -0.3160 -1.5301 -2.4948
14099TIP3   OH263711   2.869   2.370  13.080 -0.0737  0.9380 -0.2372
14099TIP3    H163712   2.832   2.306  13.141  2.4649 -0.0677  0.3029
14099TIP3    H263713   2.870   2.452  13.130  0.8997  0.3760  0.6923
14100TIP3   OH263714   3.342   4.871  11.677 -0.3686 -0.0048  0.0875
14100TIP3    H163715   3.258   4.918  11.680  0.3979  1.3533  0.5298
14100TIP3    H263716   3.362   4.864  11.583 -1.7914 -1.8533 -0.1236
14101TIP3   OH263717   5.193   6.467  14.009 -0.0092  0.0305  0.1415
14101TIP3    H163718   5.177   6.541  14.067 -1.5405 -0.2408  0.0891
14101TIP3    H263719   5.151   6.492  13.927  2.0102  0.3427 -0.8236
14102TIP3   OH263720   5.633   3.049  14.547  0.8692 -0.6263 -0.3111
14102TIP3    H163721   5.711   3.029  14.495  0.0862 -0.3614 -1.6188
14102TIP3    H263722   5.564   3.059  14.482  0.2858  1.7538  0.6209
14103TIP3   OH263723   1.521   2.675  12.836 -0.3250 -0.2995  0.1836
14103TIP3    H163724   1.542   2.764  12.862  0.3830 -0.2643 -0.5050
14103TIP3    H263725   1.426   2.669  12.845  0.0555 -0.8768  4.5900
14104TIP3   OH263726   0.788   2.177   1.152  0.0536 -0.1640 -0.5656
14104TIP3    H163727   0.701   2.156   1.185  0.2725 -0.7955 -0.3849
14104TIP3    H263728   0.822   2.242   1.213  0.0747 -0.6150 -0.0874
14105TIP3   OH263729   2.973   2.931  13.344  0.1994  0.7913  0.6489
14105TIP3    H163730   2.977   2.885  13.428  0.2653  1.4110  0.9857
14105TIP3    H263731   3.032   2.881  13.287  0.1884  0.3935  0.9801
14106TIP3   OH263732   4.690   1.856   3.457  0.2592 -0.4690  0.3177
14106TIP3    H163733   4.744   1.918   3.407 -0.2497 -2.0563 -2.2903
14106TIP3    H263734   4.749   1.822   3.524  0.8899  1.8866  1.0096
14107TIP3   OH263735   0.353   1.468   6.152  0.0416  0.1692  1.0213
14107TIP3    H163736   0.260   1.462   6.131  0.8173 -0.2228 -2.6163
14107TIP3    H263737   0.366   1.560   6.174 -0.9261  0.5539  0.0422
14108TIP3   OH263738   4.188   6.176   5.010 -0.0882  0.2345  0.2157
14108TIP3    H163739   4.238   6.172   5.091  0.0260 -0.0456  0.1342
14108TIP3    H263740   4.182   6.269   4.989  1.1855  0.2261 -0.2593
14109TIP3   OH263741   0.531   3.215  16.718  0.3822  0.3799  0.1092
14109TIP3    H163742   0.496   3.266  16.645 -2.5590 -0.1054  1.1071
14109TIP3    H263743   0.548   3.280  16.786  1.5466  0.6309 -0.4125
14110TIP3   OH263744   2.692   4.402  10.486 -0.6362 -0.0259  0.0654
14110TIP3    H163745   2.726   4.444  10.565  0.9642 -1.2436  0.0472
14110TIP3    H263746   2.742   4.443  10.414 -0.2112 -0.8056 -0.0868
14111TIP3   OH263747   2.844   1.617  13.398  1.2930  0.7601  0.5548
14111TIP3    H163748   2.800   1.572  13.470  1.9279  1.6689  1.5186
14111TIP3    H263749   2.820   1.567  13.320 -1.7503  1.4412  1.0094
14112TIP3   OH263750   1.318   0.633  13.622 -0.6035  0.5458 -0.3426
14112TIP3    H163751   1.329   0.668  13.711  1.1237 -0.2946 -0.1927
14112TIP3    H263752   1.358   0.700  13.566 -1.3848  0.9164 -0.4588
14113TIP3   OH263753   1.669   0.816  13.955 -0.3608  0.1616  0.3825
14113TIP3    H163754   1.723   0.744  13.987  0.5871  0.7150  0.0506
14113TIP3    H263755   1.634   0.784  13.871  0.1826  0.1348  0.1580
14114TIP3   OH263756   5.233   4.065  12.916  0.2978 -0.2992 -0.9036
14114TIP3    H163757   5.257   3.976  12.887 -0.6015 -1.3444  1.4769
14114TIP3    H263758   5.142   4.057  12.944  0.1721  1.4207 -0.7989
14115TIP3   OH263759   4.332   0.121  11.813  0.2198 -0.3359 -0.2376
14115TIP3    H163760   4.271   0.053  11.838 -0.1567 -0.2578 -0.9365
14115TIP3    H263761   4.342   0.175  11.892 -0.5528 -0.3935 -0.0952
14116TIP3   OH263762   1.012   0.444  16.155  0.4944 -0.2788  0.4934
14116TIP3    H163763   0.966   0.361  16.147  0.2296 -0.1048  0.1540
14116TIP3    H263764   1.097   0.430  16.114 -1.3847  1.0248 -4.2677
14117TIP3   OH263765   3.918   4.354   4.381  0.8500 -0.4455 -0.0689
14117TIP3    H163766   3.923   4.420   4.450 -0.3086  0.5115 -0.8696
14117TIP3    H263767   3.829   4.361   4.348  1.1113 -1.5382 -1.0328
14118TIP3   OH263768   1.809   4.523   0.272 -0.0009  0.1542  0.0378
14118TIP3    H163769   1.716   4.531   0.292 -0.4337 -1.1604 -1.3667
14118TIP3    H263770   1.834   4.610   0.240 -0.3687  0.9473  1.8601
14119TIP3   OH263771   6.493   3.715  16.993  0.5395 -0.5821 -0.0408
14119TIP3    H163772   6.478   3.797  17.041 -0.0102  0.4641 -1.9255
14119TIP3    H263773   6.416   3.662  17.012 -0.1496  0.2212 -0.5253
14120TIP3   OH263774   0.494   0.726   1.267  0.2213 -0.1273  0.2711
14120TIP3    H163775   0.449   0.677   1.336  0.4905 -0.4214  0.2359
14120TIP3    H263776   0.465   0.816   1.280 -0.0149 -0.2404  0.5427
14121TIP3   OH263777   4.413   1.030   3.549 -0.5223  0.0255 -0.3645
14121TIP3    H163778   4.365   1.106   3.517 -1.5041 -0.6001 -0.4157
14121TIP3    H263779   4.363   0.955   3.516 -0.6508 -0.6363  1.2779
14122TIP3   OH263780   3.333   3.209   0.337  0.2227 -0.0934  0.2210
14122TIP3    H163781   3.266   3.141   0.336  0.5645 -0.4712  1.8352
14122TIP3    H263782   3.414   3.164   0.314  0.2987 -0.0676  0.4349
14123TIP3   OH263783   2.196   4.021  16.924  0.1949 -0.7006 -0.1516
14123TIP3    H163784   2.125   4.027  16.988  1.6293  0.5671  1.3631
14123TIP3    H263785   2.157   4.051  16.842 -0.9289  0.3812  0.7639
14124TIP3   OH263786   2.013   2.493   4.959  0.2831  0.1885 -0.0264
14124TIP3    H163787   2.009   2.586   4.981 -0.7062  0.0193  0.5154
14124TIP3    H263788   1.922   2.468   4.944  0.4858 -0.8486  0.4837
14125TIP3   OH263789   3.724   1.542   4.852  0.5795  0.6178  0.1317
14125TIP3    H163790   3.636   1.541   4.889  0.8979  1.7336  0.9528
14125TIP3    H263791   3.775   1.487   4.911  0.1714 -1.0814 -1.0624
14126TIP3   OH263792   4.114   1.758  12.749 -0.4260 -0.0358  0.3513
14126TIP3    H163793   4.148   1.715  12.670 -0.4647  0.3365  0.1280
14126TIP3    H263794   4.132   1.851  12.735 -0.8921  0.0894  0.5501
14127TIP3   OH263795   4.394   0.212   9.942  0.0210  0.3656 -0.3769
14127TIP3    H163796   4.374   0.296   9.901  1.2279  1.3875  1.0551
14127TIP3    H263797   4.485   0.194   9.918  0.9194  1.2404  2.2002
14128TIP3   OH263798   6.180   0.498  14.145  0.4114 -0.0563  0.0785
14128TIP3    H163799   6.180   0.593  14.155  1.6183  0.0477 -0.8741
14128TIP3    H263800   6.267   0.477  14.112  0.4054 -1.5714  0.9790
14129TIP3   OH263801   2.496   4.670   3.970  0.3193  0.2115 -0.1127
14129TIP3    H163802   2.518   4.715   3.888 -0.9616  1.2126  0.0862
14129TIP3    H263803   2.490   4.578   3.945 -0.5276  0.5607 -1.2719
14130TIP3   OH263804   5.753   4.769   3.736  0.2741  0.0434  0.8458
14130TIP3    H163805   5.828   4.821   3.705  0.1857  0.1055  0.7356
14130TIP3    H263806   5.686   4.782   3.669  0.1756 -0.0389  0.9288
14131TIP3   OH263807   2.797   3.836  11.857 -0.1861 -0.5683  0.4250
14131TIP3    H163808   2.887   3.811  11.836 -0.1022 -0.7802  1.0321
14131TIP3    H263809   2.745   3.758  11.838 -0.4388 -0.0079 -1.2561
14132TIP3   OH263810   6.468   3.268   3.565 -0.3362 -0.6534  0.1621
14132TIP3    H163811   6.537   3.307   3.619  0.1289 -1.3953  0.1144
14132TIP3    H263812   6.429   3.200   3.621  1.4351 -2.7491 -1.0760
14133TIP3   OH263813   0.213   3.046  15.262  0.0100  0.3300 -0.3301
14133TIP3    H163814   0.139   3.101  15.237 -0.9139  0.0340  1.6606
14133TIP3    H263815   0.284   3.108  15.279 -0.4369  0.7787 -0.0876
14134TIP3   OH263816   4.836   2.076   4.932  0.2681 -0.0763  0.0568
14134TIP3    H163817   4.929   2.099   4.940  0.2601 -0.3207  1.0109
14134TIP3    H263818   4.809   2.111   4.848  1.5092 -0.9853 -0.7296
14135TIP3   OH263819   4.203   3.116  16.654  0.0986  0.1076 -0.2667
14135TIP3    H163820   4.285   3.067  16.653  0.2043  0.2781 -1.4780
14135TIP3    H263821   4.228   3.204  16.680  0.1736 -0.0579  0.2163
14136TIP3   OH263822   0.179   3.404  16.163 -0.7325  0.4498  0.0197
14136TIP3    H163823   0.161   3.349  16.239 -0.3903  2.0878  1.3068
14136TIP3    H263824   0.267   3.438  16.178 -1.6295  2.8022  0.1780
14137TIP3   OH263825   0.531   4.877  13.506  0.5735 -0.3337 -0.3197
14137TIP3    H163826   0.487   4.806  13.553  2.2305 -1.1372  0.0731
14137TIP3    H263827   0.621   4.874  13.538  0.6410  2.0154 -0.2516
14138TIP3   OH263828   5.071   0.939  17.154  0.4885 -0.2018 -0.4561
14138TIP3    H163829   5.051   0.918  17.246  0.0274 -0.6539 -0.6541
14138TIP3    H263830   5.156   0.899  17.138 -1.0566 -3.3605 -1.2819
14139TIP3   OH263831   6.694   4.158  17.207  0.0214  0.2803  0.1526
14139TIP3    H163832   6.744   4.190  17.282 -0.8879 -1.0244  1.3606
14139TIP3    H263833   6.626   4.225  17.194 -0.6860 -0.1639  1.4226
14140TIP3   OH263834   1.371   3.113  13.913  0.1297  0.1538  0.4221
14140TIP3    H163835   1.402   3.199  13.883 -0.8475 -0.1904 -1.6689
14140TIP3    H263836   1.311   3.084  13.844 -0.1546 -1.8627  1.4923
14141TIP3   OH263837   2.241   0.608   3.752  0.3575  0.7382  0.2589
14141TIP3    H163838   2.179   0.572   3.816  0.1016  0.1254 -0.3173
14141TIP3    H263839   2.189   0.672   3.703 -0.0569 -0.3524 -0.7518
14142TIP3   OH263840   6.297   2.201   3.083 -0.3438 -0.1356  0.0682
14142TIP3    H163841   6.326   2.218   2.993  0.9199  1.1535  0.6978
14142TIP3    H263842   6.271   2.109   3.083 -2.2729  0.3362 -2.1237
14143TIP3   OH263843   3.041   3.908   3.497 -0.0006 -0.0658 -0.3945
14143TIP3    H163844   3.080   3.830   3.458 -1.5446  0.3696 -2.9300
14143TIP3    H263845   2.949   3.887   3.507 -0.3561  1.2698 -0.7160
14144TIP3   OH263846   6.502   0.129   0.972 -0.2765 -0.3653  0.0074
14144TIP3    H163847   6.428   0.122   0.912  0.0696  1.5113 -0.6490
14144TIP3    H263848   6.491   0.055   1.032 -1.7777 -1.0386 -1.0739
14145TIP3   OH263849   5.439   1.394  16.290  0.1450  0.2006  0.0968
14145TIP3    H163850   5.519   1.442  16.310 -0.5165  0.9163  1.0539
14145TIP3    H263851   5.440   1.320  16.351 -0.0346  0.3371  0.2668
14146TIP3   OH263852   3.770   1.686   0.099  0.2490  0.2729  0.5731
14146TIP3    H163853   3.819   1.739   0.036  1.6894  0.4234  1.7891
14146TIP3    H263854   3.786   1.728   0.183  0.1877 -1.2204  1.3522
14147TIP3   OH263855   6.669   5.282  12.071 -0.2397 -0.4344  0.0177
14147TIP3    H163856   6.616   5.305  12.147 -0.9687 -2.4575  0.1377
14147TIP3    H263857   6.609   5.235  12.013  1.0489 -1.4378 -0.5153
14148TIP3   OH263858   2.601   1.921  13.804  0.1473 -0.2948  0.0252
14148TIP3    H163859   2.569   1.987  13.865  1.1730 -0.3570  0.6365
14148TIP3    H263860   2.627   1.848  13.859 -0.9959 -1.2400 -0.6442
14149TIP3   OH263861   3.487   1.126  11.277  0.0180 -0.3004  0.1820
14149TIP3    H163862   3.580   1.116  11.294  0.4005  4.2177  1.3637
14149TIP3    H263863   3.481   1.139  11.182  0.5109 -1.1832  0.0290
14150TIP3   OH263864   3.661   3.421   5.253 -0.0023  0.3112 -0.1648
14150TIP3    H163865   3.636   3.354   5.190  0.9284  0.0143 -0.2255
14150TIP3    H263866   3.604   3.406   5.328  1.1196 -1.4354  0.3670
14151TIP3   OH263867   0.764   0.904   0.993 -0.4586 -0.4035 -0.0598
14151TIP3    H163868   0.843   0.957   0.992  1.1624 -2.5610  4.1036
14151TIP3    H263869   0.701   0.954   1.045  0.1047 -1.1944  1.4119
14152TIP3   OH263870   4.684   1.862   4.869  0.0638 -0.0515  0.1550
14152TIP3    H163871   4.737   1.918   4.926  0.3228 -2.6602  2.5978
14152TIP3    H263872   4.735   1.781   4.862 -1.3910 -0.8394 -1.3727
14153TIP3   OH263873   5.123   1.783  12.981  0.7506  0.0550 -0.0867
14153TIP3    H163874   5.189   1.747  12.922  0.5369  1.0431 -0.9414
14153TIP3    H263875   5.039   1.758  12.941  0.6065 -1.0495  0.9028
14154TIP3   OH263876   0.741   3.536   0.165  0.1831 -0.1469 -0.1867
14154TIP3    H163877   0.752   3.585   0.083  0.6147  0.7381  0.3969
14154TIP3    H263878   0.717   3.602   0.229  0.1727 -0.7967  0.4824
14155TIP3   OH263879   5.250   0.048   3.158 -0.3373  0.1010 -0.4908
14155TIP3    H163880   5.178   0.081   3.211 -0.2002 -0.3862 -0.0041
14155TIP3    H263881   5.219  -0.037   3.125  0.9156 -1.2578  1.6689
14156TIP3   OH263882   4.793   5.832  16.715  0.2023  0.2762  0.0790
14156TIP3    H163883   4.772   5.782  16.794  1.6254 -0.7876 -0.1865
14156TIP3    H263884   4.709   5.848  16.673 -0.4330 -0.3904  1.0749
14157TIP3   OH263885   0.093   6.509  15.011  0.2430 -0.5202  0.5501
14157TIP3    H163886   0.176   6.462  15.017  0.7842  0.4073  0.3998
14157TIP3    H263887   0.033   6.447  14.969  1.7947  0.0046 -2.5721
14158TIP3   OH263888   6.457   2.971  14.763 -0.0417 -0.6697  0.4366
14158TIP3    H163889   6.434   2.879  14.753 -1.3481 -0.1716 -1.3871
14158TIP3    H263890   6.516   2.989  14.690  0.6427 -0.1700  1.0958
14159TIP3   OH263891   3.684   5.680   5.814  0.2421  0.1988 -0.4700
14159TIP3    H163892   3.643   5.653   5.732  0.0067  1.0242 -0.6310
14159TIP3    H263893   3.743   5.608   5.836  0.9388  0.3365 -1.8050
14160TIP3   OH263894   6.313   2.850   5.107 -0.3202  0.0318 -0.6639
14160TIP3    H163895   6.387   2.904   5.133 -1.2544  1.1371 -0.2535
14160TIP3    H263896   6.353   2.773   5.065  1.1027 -0.4933  1.5789
14161TIP3   OH263897   5.939   5.332  15.520 -0.2001  0.0680  0.0606
14161TIP3    H163898   5.903   5.414  15.553 -0.2918 -0.1601  0.5294
14161TIP3    H263899   6.034   5.345  15.522 -0.2149  0.1681  0.1246
14162TIP3   OH263900   1.814   1.365   2.453 -0.0757  0.0624  0.0467
14162TIP3    H163901   1.754   1.439   2.446  0.8621  0.8453  0.1373
14162TIP3    H263902   1.825   1.334   2.363  0.9301  1.1806 -0.2315
14163TIP3   OH263903   1.583   5.981   5.189 -0.2194  0.2127  0.0849
14163TIP3    H163904   1.537   5.948   5.112  2.0380  1.8348 -2.0262
14163TIP3    H263905   1.627   5.904   5.225 -1.5985 -0.6335  0.0435
14164TIP3   OH263906   4.264   3.654   1.307 -0.0593  0.3118 -0.1870
14164TIP3    H163907   4.192   3.620   1.361 -0.7516  0.5028 -0.9747
14164TIP3    H263908   4.324   3.694   1.370 -1.0491  0.8879  0.4118
14165TIP3   OH263909   1.990   5.816   3.243  0.0353  0.2467 -0.7571
14165TIP3    H163910   2.033   5.901   3.241 -0.3449  0.4554 -0.1632
14165TIP3    H263911   1.957   5.808   3.332  0.9833 -0.9845 -0.5059
14166TIP3   OH263912   1.340   4.534  16.302 -0.1375 -0.1753  0.2249
14166TIP3    H163913   1.370   4.601  16.240 -1.7086 -0.6070 -1.0435
14166TIP3    H263914   1.256   4.505  16.267  0.5768 -2.9463  0.6291
14167TIP3   OH263915   2.235   6.362   5.471 -0.1539 -0.3683  0.3317
14167TIP3    H163916   2.235   6.452   5.438  0.6514 -0.6069 -0.3330
14167TIP3    H263917   2.143   6.335   5.468 -0.5884  0.8760  1.7877
14168TIP3   OH263918   0.234   0.136   2.187  0.3267 -0.1802 -0.3138
14168TIP3    H163919   0.253   0.098   2.102  0.6833  0.4984 -0.5434
14168TIP3    H263920   0.262   0.227   2.180 -1.3448  0.3840 -0.0831
14169TIP3   OH263921   4.274   3.383  16.725  0.2000  0.4638 -0.5147
14169TIP3    H163922   4.317   3.428  16.653  1.8366 -0.2023  0.0164
14169TIP3    H263923   4.324   3.409  16.803 -1.1204  0.6481  0.2911
14170TIP3   OH263924   3.482   6.047  11.650 -0.3110  0.2562  0.0800
14170TIP3    H163925   3.539   5.978  11.617 -0.3066  0.1105  0.3854
14170TIP3    H263926   3.538   6.097  11.710 -1.0112 -1.0591  1.8923
14171TIP3   OH263927   0.375   5.503  13.065 -0.1618  0.2731  0.2777
14171TIP3    H163928   0.414   5.532  13.148 -1.5841 -0.5763  1.2676
14171TIP3    H263929   0.329   5.580  13.032  2.6070  1.4103 -1.1081
14172TIP3   OH263930   2.715   6.727  15.529 -0.1949  0.2505  0.6040
14172TIP3    H163931   2.768   6.695  15.456 -2.1228 -0.9631 -0.2863
14172TIP3    H263932   2.779   6.745  15.598  1.7033  1.7711 -1.4740
14173TIP3   OH263933   1.684   4.969  12.013 -0.0251 -0.2158  0.2293
14173TIP3    H163934   1.637   4.953  12.095 -0.0511 -1.0803  0.0427
14173TIP3    H263935   1.767   5.007  12.040  0.4064 -1.4863  0.7146
14174TIP3   OH263936   5.619   6.742  11.370 -0.3126  0.0958 -0.2910
14174TIP3    H163937   5.561   6.669  11.349 -1.1493  1.0107 -1.2577
14174TIP3    H263938   5.671   6.755  11.291 -1.4141  1.6671 -0.7879
14175TIP3   OH263939   1.787   3.653   3.469 -0.2421  0.3697  0.6130
14175TIP3    H163940   1.728   3.600   3.415 -0.0649  1.1515 -0.3469
14175TIP3    H263941   1.734   3.678   3.545 -1.2238  1.2983 -0.3759
14176TIP3   OH263942   4.517   1.562   0.560  0.0696 -0.3612 -0.2825
14176TIP3    H163943   4.594   1.614   0.585 -0.8081  0.5949  0.4674
14176TIP3    H263944   4.444   1.624   0.562 -0.9307 -1.5367  0.2712
14177TIP3   OH263945   3.476   3.834   6.026  0.1288 -0.5718 -0.4996
14177TIP3    H163946   3.506   3.925   6.030  0.1258 -0.6191  0.9293
14177TIP3    H263947   3.556   3.782   6.023  0.1681 -0.5778  0.3911
14178TIP3   OH263948   2.737   2.034  16.040 -0.1429  0.6208 -0.7813
14178TIP3    H163949   2.662   2.005  15.987 -0.1949  1.5417 -1.2237
14178TIP3    H263950   2.808   2.043  15.976 -0.1284  1.4625 -0.6435
14179TIP3   OH263951   3.112   3.149  11.621 -0.9694  0.2272  0.5059
14179TIP3    H163952   3.114   3.146  11.717 -0.9980 -0.2505  0.4897
14179TIP3    H263953   3.194   3.192  11.597 -1.0647  0.5543  0.7492
14180TIP3   OH263954   4.086   3.488   6.160 -0.0134  0.4083 -0.0399
14180TIP3    H163955   4.029   3.457   6.229 -0.3409 -0.6817 -0.7814
14180TIP3    H263956   4.163   3.524   6.206 -0.1646 -0.4230  0.8664
14181TIP3   OH263957   5.596   1.507  12.856  0.5574 -0.3835  0.1772
14181TIP3    H163958   5.555   1.593  12.844 -0.7005 -1.0489 -0.4441
14181TIP3    H263959   5.676   1.511  12.803  1.2577  0.8825  1.2986
14182TIP3   OH263960   6.341   1.025  14.911  0.4214  0.0276  0.2111
14182TIP3    H163961   6.257   0.993  14.943 -0.1490  0.2727 -1.0056
14182TIP3    H263962   6.402   1.006  14.982 -0.7763  0.4634  1.3779
14183TIP3   OH263963   0.999   0.992  16.535 -0.1777 -0.4404  0.2526
14183TIP3    H163964   0.917   0.953  16.566 -0.7028 -1.6660 -2.5384
14183TIP3    H263965   1.044   1.021  16.615 -3.7079  1.0793  1.7805
14184TIP3   OH263966   2.361   3.155  16.147  0.0891  0.5715  0.4933
14184TIP3    H163967   2.351   3.249  16.161 -0.3974  0.6178 -0.1264
14184TIP3    H263968   2.283   3.116  16.187 -0.9153  0.6411 -1.3313
14185TIP3   OH263969   4.752   1.022  11.008  0.1417 -0.4355 -0.1482
14185TIP3    H163970   4.790   1.049  10.924 -0.7477 -0.8904 -0.6996
14185TIP3    H263971   4.660   1.006  10.988 -0.1959  0.0029  1.0421
14186TIP3   OH263972   2.063   2.339   2.823  0.1754  0.2139  0.3990
14186TIP3    H163973   1.995   2.404   2.844  1.0707  1.3541 -0.2017
14186TIP3    H263974   2.041   2.263   2.878 -1.3494  0.7176  0.5092
14187TIP3   OH263975   4.275   5.541  11.203 -0.5729 -0.6669 -0.3473
14187TIP3    H163976   4.365   5.575  11.204 -0.9776  0.5395 -2.1393
14187TIP3    H263977   4.221   5.616  11.226 -1.1976 -1.1279 -0.3096
14188TIP3   OH263978   0.909   3.021  16.826  0.0515 -0.0584 -0.0156
14188TIP3    H163979   0.876   3.100  16.869 -1.5848 -0.4245 -0.5730
14188TIP3    H263980   0.831   2.977  16.793  0.9963 -1.6247 -0.2191
14189TIP3   OH263981   1.123   6.725  13.119  0.4987 -0.5766  0.1172
14189TIP3    H163982   1.118   6.731  13.023 -0.3567 -0.9645  0.1390
14189TIP3    H263983   1.033   6.715  13.148  0.8044 -1.0189  0.9329
14190TIP3   OH263984   3.909   5.268   1.069  0.0698 -0.1567 -0.2353
14190TIP3    H163985   3.855   5.346   1.055 -1.5890 -0.9008  1.8878
14190TIP3    H263986   3.962   5.290   1.146  0.2087 -0.8126 -0.1479
14191TIP3   OH263987   1.170   2.233  14.428  0.0244 -0.2083 -0.4915
14191TIP3    H163988   1.219   2.211  14.508 -0.1984 -1.8414 -0.7971
14191TIP3    H263989   1.180   2.328  14.420  4.6615 -0.6450 -1.4892
14192TIP3   OH263990   4.304   6.461   2.594  0.3710 -0.3539 -0.1576
14192TIP3    H163991   4.256   6.424   2.520 -0.9130 -0.2207  0.5789
14192TIP3    H263992   4.331   6.548   2.564  0.5886 -0.6250 -0.7577
14193TIP3   OH263993   0.849   5.715   3.683  0.2755  0.3603  0.5830
14193TIP3    H163994   0.852   5.708   3.779 -0.5402 -1.0206  0.5252
14193TIP3    H263995   0.933   5.754   3.659  1.0401 -0.5071  1.7660
14194TIP3   OH263996   0.538   0.817  13.580 -0.0097 -0.4125 -0.3077
14194TIP3    H163997   0.522   0.745  13.640 -2.1748 -1.3535 -1.9334
14194TIP3    H263998   0.634   0.823  13.574  0.2098 -3.0848 -0.0649
14195TIP3   OH263999   1.337   1.366   2.249  0.2859  0.5274 -0.0704
14195TIP3    H164000   1.298   1.279   2.238 -1.4706  1.1386  1.0905
14195TIP3    H264001   1.337   1.404   2.161  0.1819 -0.2717 -0.4241
14196TIP3   OH264002   6.397   0.471   5.952 -0.0427  0.2634  0.2917
14196TIP3    H164003   6.368   0.419   5.876  0.1898  0.0577  0.3421
14196TIP3    H264004   6.341   0.442   6.024 -1.1578  1.4092 -0.1015
14197TIP3   OH264005   2.952   4.778   3.415  0.0387  0.1255 -0.1641
14197TIP3    H164006   3.009   4.848   3.447  0.5687 -1.0655  1.5895
14197TIP3    H264007   2.892   4.761   3.488 -0.9135 -0.3637 -1.0569
14198TIP3   OH264008   2.918   6.095  16.517  0.3742 -0.5856  0.3054
14198TIP3    H164009   2.925   6.006  16.481 -2.3073 -1.0565  0.8004
14198TIP3    H264010   2.917   6.083  16.612 -1.0359 -0.1503  0.3595
14199TIP3   OH264011   0.895   1.925   2.100 -0.1265  0.4904 -0.2600
14199TIP3    H164012   0.867   1.995   2.159 -1.2532 -0.0857 -0.0977
14199TIP3    H264013   0.911   1.850   2.158 -1.0182 -0.0117 -0.6639
14200TIP3   OH264014   4.560   0.494  15.960  0.4969 -0.1183 -0.2834
14200TIP3    H164015   4.654   0.513  15.957  0.3487  0.4624 -1.7296
14200TIP3    H264016   4.555   0.403  15.987  1.4182  0.2999  1.3607
14201TIP3   OH264017   4.286   5.604   1.767  0.1015 -0.3651 -0.2888
14201TIP3    H164018   4.253   5.677   1.819 -1.1131 -1.7529  0.9519
14201TIP3    H264019   4.209   5.570   1.722  0.8750 -0.1424 -1.7897
14202TIP3   OH264020   3.007   1.763   0.264 -0.4086  0.7410 -0.0462
14202TIP3    H164021   2.956   1.737   0.187  0.4907 -1.9923  0.2243
14202TIP3    H264022   3.098   1.747   0.239  0.0381  1.8603  0.8428
14203TIP3   OH264023   0.696   3.728   3.928  0.2088  0.4476  0.1888
14203TIP3    H164024   0.760   3.797   3.945  0.6584  1.0270 -3.5316
14203TIP3    H264025   0.748   3.650   3.909 -0.1414  0.7988 -2.3633
14204TIP3   OH264026   0.014   1.519   4.561  0.0087 -0.4103 -0.3066
14204TIP3    H164027   0.053   1.603   4.538  0.5188 -0.6922 -0.4977
14204TIP3    H264028  -0.078   1.527   4.537 -0.7138  1.2731  2.8149
14205TIP3   OH264029   1.187   1.403   1.405  1.2018  0.0834 -0.4646
14205TIP3    H164030   1.162   1.468   1.340  0.3235 -0.0626 -0.2696
14205TIP3    H264031   1.128   1.329   1.389 -0.0996  0.6633  1.5371
14206TIP3   OH264032   0.238   0.735  13.220  0.0385  0.1385  0.0510
14206TIP3    H164033   0.203   0.728  13.131  0.6473  0.1189 -0.1924
14206TIP3    H264034   0.306   0.667  13.224 -0.3086 -0.1760  0.6856
14207TIP3   OH264035   2.907   5.452  12.421  0.8113  0.3496 -0.0916
14207TIP3    H164036   2.968   5.389  12.383  0.4923 -0.3032  0.4599
14207TIP3    H264037   2.949   5.481  12.502  0.0334 -0.7466  0.7339
14208TIP3   OH264038   0.342   3.918   2.856 -0.4672  0.0704  0.4930
14208TIP3    H164039   0.323   3.950   2.768  0.1607  0.7268  0.5935
14208TIP3    H264040   0.366   3.826   2.844 -0.5650  0.1096 -0.0009
14209TIP3   OH264041   1.502   4.214   5.289 -0.1242 -0.0301  0.3372
14209TIP3    H164042   1.456   4.193   5.371 -1.3406 -0.7093 -0.5025
14209TIP3    H264043   1.578   4.156   5.289 -0.9175 -1.0790  0.2844
14210TIP3   OH264044   4.442   4.932   6.133  0.2919  0.2493 -0.4405
14210TIP3    H164045   4.470   4.941   6.224 -0.6099  0.1626 -0.1549
14210TIP3    H264046   4.350   4.906   6.138 -0.0908  1.3950 -1.3926
14211TIP3   OH264047   0.611   1.863   1.305 -0.2932  0.2630  0.0399
14211TIP3    H164048   0.660   1.867   1.387 -2.7506  2.3587  1.4916
14211TIP3    H264049   0.557   1.784   1.312 -2.4169  1.7721  1.6811
14212TIP3   OH264050   6.771   3.688   1.790  0.3703  0.3037 -0.2995
14212TIP3    H164051   6.750   3.661   1.879  0.9553 -2.7061 -1.0135
14212TIP3    H264052   6.738   3.778   1.783 -1.2026 -0.0235  2.3937
14213TIP3   OH264053   6.216   0.428   6.151  0.2573  0.0109 -0.0455
14213TIP3    H164054   6.134   0.472   6.174  1.7873  2.1043  1.6115
14213TIP3    H264055   6.239   0.378   6.229 -0.2729 -1.9008 -1.0974
14214TIP3   OH264056   2.199   5.820  16.401 -0.4107 -0.0749  0.4601
14214TIP3    H164057   2.274   5.850  16.452 -0.9804  0.5422  0.9403
14214TIP3    H264058   2.138   5.894  16.402 -0.4376 -0.0583 -1.0849
14215TIP3   OH264059   6.215   0.103  14.468  0.0462 -0.0043 -0.1460
14215TIP3    H164060   6.280   0.138  14.529 -1.1395  1.1753  0.4737
14215TIP3    H264061   6.263   0.040  14.415  1.6732  0.7846  0.3620
14216TIP3   OH264062   2.881   4.822   3.157 -0.5254  0.0898 -0.0481
14216TIP3    H164063   2.937   4.807   3.232  1.6661  0.1437 -1.6190
14216TIP3    H264064   2.835   4.903   3.177 -1.5986 -1.0180  2.1511
14217TIP3   OH264065   4.506   6.508  12.778  0.8285  0.3456 -0.5331
14217TIP3    H164066   4.576   6.458  12.735  0.6678 -2.1723  1.9209
14217TIP3    H264067   4.478   6.451  12.850 -1.9936  2.4347  0.0928
14218TIP3   OH264068   5.376   4.603  11.388  0.1235 -0.3862 -0.5861
14218TIP3    H164069   5.296   4.651  11.369  0.9274  1.3098  0.1891
14218TIP3    H264070   5.347   4.514  11.410 -1.5122  0.1485 -0.5500
14219TIP3   OH264071   5.044   3.212  14.573  0.3147  0.4169  0.1592
14219TIP3    H164072   5.046   3.290  14.517 -0.5326  0.1147 -0.2917
14219TIP3    H264073   5.136   3.183  14.576  0.3847  0.5031 -0.9848
14220TIP3   OH264074   2.589   1.286   6.073 -0.5540 -0.5705 -0.1958
14220TIP3    H164075   2.676   1.249   6.088 -0.5349  0.4992  2.4717
14220TIP3    H264076   2.586   1.302   5.978  1.8565 -1.3459 -0.4235
14221TIP3   OH264077   2.579   1.932  16.296 -0.2089 -0.5392  0.7042
14221TIP3    H164078   2.663   1.977  16.289 -0.7434  0.6894  2.0184
14221TIP3    H264079   2.585   1.861  16.231  1.2000  0.5176 -0.3693
14222TIP3   OH264080   5.909   5.967   1.292 -0.2312 -0.0241 -0.1780
14222TIP3    H164081   5.968   6.040   1.272 -1.7352  1.6622  1.3033
14222TIP3    H264082   5.829   5.987   1.243 -1.1069 -0.0102  1.2487
14223TIP3   OH264083   2.047   0.259   0.518  0.1655  0.6965  0.0635
14223TIP3    H164084   2.130   0.232   0.556  0.4553 -0.5861 -1.4275
14223TIP3    H264085   1.986   0.260   0.592  0.9705 -0.6664  0.7652
14224TIP3   OH264086   6.025   3.195   1.383  0.7936  0.7202  0.6029
14224TIP3    H164087   6.005   3.127   1.447 -0.7661 -1.3195 -1.9333
14224TIP3    H264088   5.951   3.256   1.390  0.3063  0.1717  0.3557
14225TIP3   OH264089   1.931   1.997   4.488  0.1484 -0.2643  0.1723
14225TIP3    H164090   1.860   1.933   4.481  0.2854 -0.3385 -0.4976
14225TIP3    H264091   2.007   1.953   4.450  0.6341 -0.3033  1.1724
14226TIP3   OH264092   5.796   0.005  11.138 -0.7863  0.3830 -0.2654
14226TIP3    H164093   5.801  -0.083  11.101  0.9316  0.0809  0.6253
14226TIP3    H264094   5.795   0.063  11.062 -0.4194 -0.3495 -0.8336
14227TIP3   OH264095   6.619   5.682  13.744  0.7542  0.2865 -0.4114
14227TIP3    H164096   6.669   5.745  13.692 -0.6525  0.4131 -1.6560
14227TIP3    H264097   6.544   5.732  13.776  0.0374 -0.5428 -0.7645
14228TIP3   OH264098   3.113   3.905  16.794 -0.0606  0.3070  0.1618
14228TIP3    H164099   3.139   3.837  16.732  1.2417  0.3025  0.6878
14228TIP3    H264100   3.195   3.949  16.818 -0.6538  0.9083  1.1772
14229TIP3   OH264101   3.187   2.233   4.933  0.2494 -0.1886  0.6718
14229TIP3    H164102   3.092   2.229   4.938  0.2309  0.6732  1.1512
14229TIP3    H264103   3.214   2.144   4.912 -0.8647  0.2097 -2.7227
14230TIP3   OH264104   4.552   5.304  12.808 -0.4420 -0.2268 -0.1593
14230TIP3    H164105   4.607   5.380  12.828 -0.0327 -0.3711 -0.7449
14230TIP3    H264106   4.464   5.340  12.799  0.1327  0.5902 -3.0200
14231TIP3   OH264107   4.772   5.388  14.709  0.5922  0.1254 -0.5290
14231TIP3    H164108   4.793   5.411  14.618  1.6975 -0.0327 -0.3210
14231TIP3    H264109   4.735   5.468  14.746 -0.2163  0.0833 -1.2218
14232TIP3   OH264110   6.522   4.072   6.609 -0.1070 -0.2791  0.3538
14232TIP3    H164111   6.589   4.074   6.540 -1.1329  0.5988 -0.6269
14232TIP3    H264112   6.462   4.003   6.582  0.1175 -0.7267  0.9824
14233TIP3   OH264113   1.305   6.639   2.553 -0.1682  0.1996  0.1744
14233TIP3    H164114   1.393   6.620   2.586  0.9760  0.5109 -2.5813
14233TIP3    H264115   1.312   6.725   2.513 -1.2509 -0.5093 -1.6112
14234TIP3   OH264116   3.293   5.016   3.521 -0.4968 -0.2850  0.3049
14234TIP3    H164117   3.355   4.961   3.568  0.1860  2.1287  2.3214
14234TIP3    H264118   3.282   5.093   3.577 -0.4167  2.2475 -3.0190
14235TIP3   OH264119   1.080   3.960   6.391  0.5383 -0.1651 -0.4143
14235TIP3    H164120   1.000   3.917   6.420 -0.1554  0.8561 -0.8180
14235TIP3    H264121   1.151   3.907   6.429 -0.2954 -1.7158 -0.9698
14236TIP3   OH264122   3.281   2.873   2.095 -0.0370  0.5189 -0.3964
14236TIP3    H164123   3.249   2.916   2.174 -2.1802 -1.2622 -0.2451
14236TIP3    H264124   3.375   2.890   2.094 -0.0487  0.8493  2.3572
14237TIP3   OH264125   0.412   6.193  15.160  0.1690 -0.4958  0.2675
14237TIP3    H164126   0.363   6.205  15.241 -2.3159 -3.8519 -0.6305
14237TIP3    H264127   0.484   6.135  15.184 -0.5994 -1.5345  0.0806
14238TIP3   OH264128   1.946   0.581  16.351  0.2847  0.3798 -0.6224
14238TIP3    H164129   1.879   0.647  16.338  0.6585  1.0596  0.7724
14238TIP3    H264130   2.026   0.621  16.316  0.0826 -0.2336 -1.8237
14239TIP3   OH264131   0.208   6.052   1.115 -0.1276  0.3674 -0.7011
14239TIP3    H164132   0.231   5.968   1.076 -1.3452 -0.7822  0.9940
14239TIP3    H264133   0.288   6.104   1.109  1.4903 -1.8723  0.7326
14240TIP3   OH264134   5.754   4.785  15.165 -0.1713  0.0857  0.1042
14240TIP3    H164135   5.738   4.715  15.230  1.6344 -0.2093  0.2453
14240TIP3    H264136   5.774   4.862  15.218 -1.1502  0.4731 -0.0750
14241TIP3   OH264137   4.997   6.478   2.500  0.1277 -0.2621 -0.5863
14241TIP3    H164138   4.996   6.547   2.434 -0.0508 -0.8479 -1.2022
14241TIP3    H264139   4.928   6.418   2.473  0.8180 -1.1046 -0.4981
14242TIP3   OH264140   0.309   1.926  12.853  0.3789  0.0475 -0.3999
14242TIP3    H164141   0.221   1.900  12.881  0.9946 -0.4800  1.1111
14242TIP3    H264142   0.319   1.888  12.765 -0.3498 -1.1671  0.0276
14243TIP3   OH264143   6.486   1.564  14.433 -0.5827  0.4723  0.3128
14243TIP3    H164144   6.534   1.487  14.465 -1.2413  0.3066  0.9194
14243TIP3    H264145   6.526   1.584  14.349  0.5794  0.3558  0.8266
14244TIP3   OH264146   1.713   3.932  14.777 -0.1072  0.1204 -0.0486
14244TIP3    H164147   1.769   3.970  14.710  1.5056  0.7701  1.5995
14244TIP3    H264148   1.655   3.872  14.730  1.9671 -0.5589 -1.8133
14245TIP3   OH264149   6.331   4.704   2.802  0.0554 -0.1509 -0.1864
14245TIP3    H164150   6.270   4.764   2.759 -2.2210 -0.6681  2.2120
14245TIP3    H264151   6.305   4.617   2.771 -0.3971 -0.3592  0.7488
14246TIP3   OH264152   6.569   3.398  13.555 -0.4076 -0.3397  0.4899
14246TIP3    H164153   6.519   3.345  13.493  0.1851  0.4238 -0.6611
14246TIP3    H264154   6.623   3.335  13.603 -1.7517 -1.0651  1.0703
14247TIP3   OH264155   1.632   2.708  11.863  0.2542  0.0467  0.1135
14247TIP3    H164156   1.574   2.691  11.938  0.3850 -0.8066  0.0307
14247TIP3    H264157   1.720   2.691  11.897  0.2701 -0.8293 -0.3729
14248TIP3   OH264158   2.460   0.046   5.627 -0.1493 -0.5163  0.7787
14248TIP3    H164159   2.472   0.112   5.695  1.4677 -0.2796  0.2831
14248TIP3    H264160   2.365   0.036   5.620 -0.3830  0.9702  1.6100
14249TIP3   OH264161   6.123   1.649  13.521  0.0240  0.1462  0.0964
14249TIP3    H164162   6.130   1.675  13.613  3.3523  1.3645 -0.4304
14249TIP3    H264163   6.063   1.713  13.483  0.7426  1.2929  0.8549
14250TIP3   OH264164   2.770   3.878   4.032 -0.5197  0.9758 -0.0112
14250TIP3    H164165   2.843   3.937   4.050 -0.1634  0.4200  0.4025
14250TIP3    H264166   2.698   3.935   4.005 -0.0497  1.5579 -0.0365
14251TIP3   OH264167   5.129   1.865  16.031 -0.3068  0.9633 -0.3536
14251TIP3    H164168   5.079   1.908  16.100  1.8886  1.7622  0.7581
14251TIP3    H264169   5.079   1.786  16.012 -1.7212  1.4768  1.0969
14252TIP3   OH264170   4.082   2.697   1.678 -0.0764 -0.3270 -0.6633
14252TIP3    H164171   4.096   2.787   1.651  0.5113  0.2284  1.4433
14252TIP3    H264172   3.988   2.683   1.664 -0.1214  0.5135 -1.2535
14253TIP3   OH264173   2.591   5.675   2.659  0.3396  0.0404  0.5374
14253TIP3    H164174   2.605   5.763   2.624 -0.1868 -0.4739 -0.9674
14253TIP3    H264175   2.521   5.639   2.606  0.3002 -1.1622  1.3983
14254TIP3   OH264176   5.873   2.174  15.993  0.1064  0.3129 -0.2812
14254TIP3    H164177   5.916   2.141  15.915 -1.1528 -1.7465 -0.1437
14254TIP3    H264178   5.788   2.130  15.994 -0.2502  0.9956  1.7531
14255TIP3   OH264179   2.131   5.211   0.988 -0.6120 -0.0448  0.3353
14255TIP3    H164180   2.091   5.149   1.050 -0.7082  1.5490  1.9085
14255TIP3    H264181   2.224   5.188   0.989 -0.8240 -0.9721 -0.0617
14256TIP3   OH264182   6.426   5.789  13.104 -0.2926 -0.3913 -0.4659
14256TIP3    H164183   6.404   5.814  13.014 -1.2994 -1.5047 -0.5384
14256TIP3    H264184   6.493   5.721  13.094 -0.6734 -0.7795 -0.3900
14257TIP3   OH264185   0.214   5.407   0.171 -0.0630  0.2608 -0.4691
14257TIP3    H164186   0.217   5.392   0.265 -1.0668 -0.5381 -0.5568
14257TIP3    H264187   0.304   5.393   0.141 -0.0425 -0.9471  0.1451
14258TIP3   OH264188   5.183   3.555   0.037 -0.1230  0.1345  0.4125
14258TIP3    H164189   5.127   3.570  -0.039 -0.2721 -1.1685  0.2559
14258TIP3    H264190   5.126   3.512   0.101 -0.1283  1.6776  1.4591
14259TIP3   OH264191   3.443   1.740   3.975 -0.0676 -0.3285  0.0073
14259TIP3    H164192   3.350   1.761   3.967 -0.2365 -0.9505  0.2904
14259TIP3    H264193   3.479   1.756   3.888 -0.4517 -0.1663 -0.1225
14260TIP3   OH264194   2.416   2.900  11.891  0.2236  0.4327  0.4251
14260TIP3    H164195   2.501   2.936  11.916  0.6311 -1.4800  1.8975
14260TIP3    H264196   2.437   2.829  11.831 -0.5195  1.8083 -1.5230
14261TIP3   OH264197   0.714   1.925   3.332 -0.6744  0.1230 -0.3546
14261TIP3    H164198   0.708   1.997   3.270  0.6503  0.7770  0.2611
14261TIP3    H264199   0.777   1.864   3.293 -1.9140 -0.8013 -0.9543
14262TIP3   OH264200   3.593   3.935   1.406 -0.4500 -0.0065 -0.1060
14262TIP3    H164201   3.515   3.976   1.368 -1.6711 -1.3798  0.8417
14262TIP3    H264202   3.602   3.852   1.359  0.3578  0.0849 -0.1174
14263TIP3   OH264203   4.264   3.163  14.800 -0.0861  0.0578  0.0321
14263TIP3    H164204   4.238   3.175  14.891  1.7391 -0.0049  0.5949
14263TIP3    H264205   4.316   3.241  14.780  2.5771 -1.6007  0.2318
14264TIP3   OH264206   0.321   2.295   3.733  0.1764  0.0538  0.1763
14264TIP3    H164207   0.296   2.237   3.804  0.8090  0.5393  0.8068
14264TIP3    H264208   0.322   2.240   3.655  0.3608 -0.6761  0.6969
14265TIP3   OH264209   4.618   0.221  16.218 -0.1997  0.4399 -0.5387
14265TIP3    H164210   4.561   0.252  16.288  0.8819  0.1156  0.5101
14265TIP3    H264211   4.563   0.224  16.139 -1.1730  1.6168  0.1599
14266TIP3   OH264212   1.321   3.304  16.671 -0.3215  0.3144 -0.4624
14266TIP3    H164213   1.349   3.218  16.640 -0.4280 -0.3667  1.2866
14266TIP3    H264214   1.365   3.366  16.613 -0.0504 -0.9108 -1.5786
14267TIP3   OH264215   6.400   6.073  10.820  0.3915  0.5793  0.0452
14267TIP3    H164216   6.375   6.014  10.891 -0.1890 -0.4667 -1.0095
14267TIP3    H264217   6.318   6.118  10.797  0.5105  0.6779 -0.1832
14268TIP3   OH264218   2.292   5.899  15.234  0.2899 -0.6615  0.6188
14268TIP3    H164219   2.352   5.947  15.177 -0.9515  1.4142  1.0224
14268TIP3    H264220   2.271   5.820  15.184  0.9900  0.0312 -0.8229
14269TIP3   OH264221   6.543   0.361  13.472 -0.0413 -0.1612  0.4428
14269TIP3    H164222   6.598   0.385  13.398  0.7254  0.2588  1.1374
14269TIP3    H264223   6.600   0.309  13.529 -0.2684  0.5527  1.3279
14270TIP3   OH264224   1.493   3.854   5.614 -0.3556 -0.2927  0.9113
14270TIP3    H164225   1.493   3.759   5.611 -0.5387 -0.3937  3.3282
14270TIP3    H264226   1.401   3.878   5.622 -0.5119  0.2226 -1.7307
14271TIP3   OH264227   6.394   1.218   2.979  0.6799  0.3870  0.1277
14271TIP3    H164228   6.362   1.296   2.934 -0.0243 -0.4579 -0.8555
14271TIP3    H264229   6.314   1.174   3.009  1.1273  0.8079  2.0026
14272TIP3   OH264230   1.175   5.786   3.020  0.4254 -0.1428 -0.1454
14272TIP3    H164231   1.188   5.806   3.113  0.4242 -0.7246 -0.0209
14272TIP3    H264232   1.243   5.722   3.000  1.3701  1.0665 -0.9145
14273TIP3   OH264233   4.507   3.014  14.770 -0.0713  0.4757  0.0174
14273TIP3    H164234   4.419   3.027  14.805 -0.4942  0.4683 -1.0186
14273TIP3    H264235   4.560   3.082  14.811 -0.5395  0.4176  0.7161
14274TIP3   OH264236   4.000   3.519  14.008 -0.3068  0.4329  0.2185
14274TIP3    H164237   4.015   3.588  13.943 -0.2852 -0.2918 -0.5558
14274TIP3    H264238   3.905   3.517  14.019 -0.4195 -0.3838 -0.8370
14275TIP3   OH264239   2.345   6.368  15.590 -0.6197 -0.1709  0.2692
14275TIP3    H164240   2.409   6.436  15.612 -0.5699 -0.2617  0.3978
14275TIP3    H264241   2.311   6.395  15.504 -0.4648 -0.0822  0.2362
14276TIP3   OH264242   4.772   4.732   4.403  0.1522  0.3626  0.5660
14276TIP3    H164243   4.751   4.663   4.340 -0.4581  0.1684  0.9797
14276TIP3    H264244   4.803   4.684   4.480 -0.1631  0.5598  0.8110
14277TIP3   OH264245   3.253   2.405  15.966  0.0162 -0.0133 -0.6412
14277TIP3    H164246   3.219   2.459  16.038 -1.1360 -0.2764 -0.9804
14277TIP3    H264247   3.331   2.452  15.936 -0.3581  0.9005 -0.2134
14278TIP3   OH264248   2.836   0.095  14.614  0.1523 -0.4616  0.2745
14278TIP3    H164249   2.780   0.021  14.590  0.2314 -0.9968  1.7223
14278TIP3    H264250   2.896   0.060  14.680  2.4699  0.0040 -1.5283
14279TIP3   OH264251   0.849   1.959  16.952  0.5940 -0.8752  0.3076
14279TIP3    H164252   0.893   2.026  16.901 -2.6950  0.4132 -0.9662
14279TIP3    H264253   0.872   1.979  17.043  1.9555  0.2388 -0.2684
14280TIP3   OH264254   5.918   0.866   1.045  0.0699  0.4529  0.6282
14280TIP3    H164255   5.890   0.908   1.127 -1.2431  0.1914  0.3276
14280TIP3    H264256   5.990   0.921   1.013  0.4776  0.6504  1.8709
14281TIP3   OH264257   6.719   2.325   2.723 -0.4410 -0.0240  0.3278
14281TIP3    H164258   6.683   2.382   2.655 -0.8057  0.2287  0.7322
14281TIP3    H264259   6.796   2.371   2.755 -0.1297 -0.2550 -0.0739
14282TIP3   OH264260   0.354   4.870  11.453  0.4580  0.2898 -0.1271
14282TIP3    H164261   0.379   4.812  11.525  1.2173  0.0324 -0.5787
14282TIP3    H264262   0.337   4.954  11.494  0.7188  0.1009  0.3750
14283TIP3   OH264263   6.362   1.999  13.003  0.0724 -0.0037  0.1455
14283TIP3    H164264   6.282   2.019  12.955  0.2185  0.4987  0.1110
14283TIP3    H264265   6.432   2.012  12.939  0.1679 -0.7374  0.0862
14284TIP3   OH264266   5.021   3.721  12.529  0.9729  0.2895 -0.0610
14284TIP3    H164267   5.101   3.683  12.492  0.9359  1.2122 -1.1076
14284TIP3    H264268   4.963   3.646  12.541  0.5544  0.0911 -2.9761
14285TIP3   OH264269   3.783   6.246  12.953  0.1586 -0.1914  0.8339
14285TIP3    H164270   3.827   6.285  12.877  0.7157 -1.1574  0.6402
14285TIP3    H264271   3.776   6.153  12.930  0.3098 -0.4819  1.9664
14286TIP3   OH264272   0.229   5.868  15.940 -0.1219  0.3201  0.4411
14286TIP3    H164273   0.173   5.800  15.978  0.1401 -0.4662 -0.5602
14286TIP3    H264274   0.318   5.835  15.949 -0.0784 -0.0643 -1.1939
14287TIP3   OH264275   0.285   5.928  10.502  0.7189 -0.5761 -0.1947
14287TIP3    H164276   0.215   5.903  10.442  1.5656  0.1573 -1.5003
14287TIP3    H264277   0.306   5.846  10.548 -1.0375 -0.7881  0.2943
14288TIP3   OH264278   0.159   5.188   2.146  0.2984  0.1526 -0.5266
14288TIP3    H164279   0.120   5.262   2.193  0.0046 -0.5643  0.3874
14288TIP3    H264280   0.253   5.194   2.166  0.2062 -0.0135 -0.0165
14289TIP3   OH264281   0.916   3.711  14.442  0.1174  0.0235 -0.6299
14289TIP3    H164282   0.834   3.751  14.471 -0.1128  1.8684 -3.5887
14289TIP3    H264283   0.960   3.684  14.522 -2.8713  0.0335  1.0689
14290TIP3   OH264284   2.011   5.342   2.882 -0.3124 -0.2373  0.0263
14290TIP3    H164285   2.061   5.418   2.850  0.0751 -0.6674 -0.4010
14290TIP3    H264286   1.922   5.358   2.850 -0.0463 -0.3916 -0.8213
14291TIP3   OH264287   1.038   6.775   3.175 -0.1595  0.0982  0.2553
14291TIP3    H164288   0.965   6.824   3.212 -0.5715  0.1943 -0.6730
14291TIP3    H264289   1.115   6.811   3.219 -0.5960  0.5331  0.6770
14292TIP3   OH264290   0.605   0.777  17.036 -0.3793  0.0375  0.4948
14292TIP3    H164291   0.545   0.739  16.972  0.5622 -0.9116  0.1669
14292TIP3    H264292   0.687   0.788  16.988 -0.1717  0.9737  1.0476
14293TIP3   OH264293   2.459   4.017   2.001  0.1687 -0.5099 -0.1641
14293TIP3    H164294   2.463   4.008   2.096 -0.5192  1.2188  0.0520
14293TIP3    H264295   2.367   4.031   1.981  0.2097 -1.5945 -1.1699
14294TIP3   OH264296   3.549   5.858   3.710 -0.3905  0.5340  0.4098
14294TIP3    H164297   3.627   5.870   3.655 -0.1082  0.0970  0.7120
14294TIP3    H264298   3.476   5.862   3.649 -0.2306  2.3671  0.3018
14295TIP3   OH264299   6.195   4.971  13.676  0.3255  0.4368 -0.1219
14295TIP3    H164300   6.232   5.021  13.603  0.5195  0.6389  0.1120
14295TIP3    H264301   6.134   5.032  13.717 -1.1272 -0.2768 -1.1985
14296TIP3   OH264302   2.602   3.553   4.615 -0.4274 -0.1740 -0.6769
14296TIP3    H164303   2.579   3.463   4.639  0.4967 -0.2891 -0.1984
14296TIP3    H264304   2.654   3.545   4.535  1.7503 -0.2712  0.7122
14297TIP3   OH264305   4.779   2.625   4.165 -0.0262  0.2177  0.4434
14297TIP3    H164306   4.870   2.618   4.193 -0.0551 -1.3114  0.2111
14297TIP3    H264307   4.731   2.645   4.245  0.3314 -0.4427  0.8268
14298TIP3   OH264308   2.776   1.060   2.614 -0.6788  0.1407 -0.5564
14298TIP3    H164309   2.787   1.037   2.522  0.2101 -0.9350 -0.1845
14298TIP3    H264310   2.846   1.013   2.660  0.7676  3.0278  0.3029
14299TIP3   OH264311   3.212   5.767   5.067 -0.0104  0.2589 -0.4466
14299TIP3    H164312   3.190   5.733   4.980  0.1741 -0.1273 -0.3389
14299TIP3    H264313   3.161   5.714   5.128 -0.5539  0.8807 -0.3511
14300TIP3   OH264314   4.798   1.502  16.212 -0.1806  0.6005  0.3378
14300TIP3    H164315   4.705   1.498  16.189  0.3580 -0.3744 -1.7487
14300TIP3    H264316   4.799   1.542  16.299 -2.4472  2.0256 -0.2438
14301TIP3   OH264317   0.487   1.938  13.972 -0.0145  0.0199 -0.4034
14301TIP3    H164318   0.571   1.942  14.019  0.1760 -1.4313 -0.5824
14301TIP3    H264319   0.511   1.907  13.884 -0.7003 -0.0601 -0.5603
14302TIP3   OH264320   3.140   5.153  14.855  0.0243  0.2686 -0.1741
14302TIP3    H164321   3.128   5.161  14.950 -1.1659  0.6530 -0.3474
14302TIP3    H264322   3.228   5.117  14.845 -0.4057 -1.2278  1.1371
14303TIP3   OH264323   3.670   1.425  13.475 -0.3651 -0.0856  0.1086
14303TIP3    H164324   3.739   1.481  13.439  2.1529 -1.4884  2.5196
14303TIP3    H264325   3.650   1.465  13.561 -0.6227 -1.2125  0.5766
14304TIP3   OH264326   3.199   2.175  12.915 -0.1654 -0.1380  0.6912
14304TIP3    H164327   3.181   2.269  12.917  0.6091 -0.0117  2.5740
14304TIP3    H264328   3.290   2.168  12.888  0.3264 -0.2577  2.3627
14305TIP3   OH264329   3.476   2.563  15.183 -0.0309 -0.0869 -0.2511
14305TIP3    H164330   3.435   2.500  15.125  1.5230  0.3461 -1.8687
14305TIP3    H264331   3.472   2.646  15.135  2.1564  0.0728 -0.2235
14306TIP3   OH264332   0.013   0.138   3.006  0.3447  0.3657 -0.0183
14306TIP3    H164333   0.000   0.165   3.097  1.0771 -0.8084  0.4472
14306TIP3    H264334  -0.076   0.119   2.975  0.1891 -0.3485  0.8201
14307TIP3   OH264335   6.246   2.917  12.891  0.3695  0.0169  0.1576
14307TIP3    H164336   6.263   2.891  12.981  1.7115 -1.2233 -0.4427
14307TIP3    H264337   6.151   2.907  12.881  0.5081 -2.0317  0.7569
14308TIP3   OH264338   5.132   6.551   4.253  0.2973 -0.2025 -0.4753
14308TIP3    H164339   5.051   6.601   4.246  1.0601  0.8919 -1.7544
14308TIP3    H264340   5.149   6.545   4.347 -1.3698 -0.6394 -0.1794
14309TIP3   OH264341   0.446   4.487  14.949  0.4769  0.1263  0.1320
14309TIP3    H164342   0.367   4.501  14.897  0.2409 -2.0680 -0.1514
14309TIP3    H264343   0.420   4.512  15.038 -0.5431 -0.5360  0.0330
14310TIP3   OH264344   3.668   6.781   2.059  0.6153  0.2111 -0.6468
14310TIP3    H164345   3.599   6.828   2.012  1.7881  2.2433 -0.4047
14310TIP3    H264346   3.749   6.822   2.029  1.5514 -0.4087  0.9898
14311TIP3   OH264347   1.386   0.457   2.799 -0.0713  0.4385  0.7605
14311TIP3    H164348   1.358   0.419   2.883 -1.0791  0.9460  0.6685
14311TIP3    H264349   1.459   0.515   2.822 -0.6664  0.9541  1.3642
14312TIP3   OH264350   2.260   1.129   4.389 -0.1383  0.5499  0.0289
14312TIP3    H164351   2.177   1.151   4.432 -0.5786 -1.0306  0.0213
14312TIP3    H264352   2.247   1.040   4.356 -0.0014  1.8627 -3.8513
14313TIP3   OH264353   1.219   0.437   1.405 -0.2316  0.3557 -0.1991
14313TIP3    H164354   1.306   0.476   1.404  0.0343 -0.0185  2.9197
14313TIP3    H264355   1.176   0.478   1.481 -2.5824  0.1302 -1.3761
14314TIP3   OH264356   3.037   1.792  15.867  0.0595  0.1828  0.4438
14314TIP3    H164357   3.111   1.816  15.812 -1.5674  2.2314 -0.9071
14314TIP3    H264358   3.014   1.872  15.913 -1.3594 -0.4249  0.8251
14315TIP3   OH264359   3.104   2.917  14.453 -0.2066 -0.6832  0.2487
14315TIP3    H164360   3.113   2.881  14.541 -1.9689  1.3465  1.2809
14315TIP3    H264361   3.044   2.857  14.409 -2.1392  0.2459  1.5723
14316TIP3   OH264362   5.404   0.317   4.960 -0.3386  0.1703 -0.1703
14316TIP3    H164363   5.486   0.269   4.949 -1.5648 -1.9331 -0.4461
14316TIP3    H264364   5.392   0.323   5.055  0.2621  0.7481 -0.1235
14317TIP3   OH264365   0.182   3.266  14.853 -0.6155 -0.3727 -0.0238
14317TIP3    H164366   0.104   3.231  14.897 -1.6562  1.1344 -0.5935
14317TIP3    H264367   0.224   3.320  14.920 -1.9830  1.5993 -0.6858
14318TIP3   OH264368   1.530   4.574   4.225 -0.0017 -0.3719 -0.3897
14318TIP3    H164369   1.458   4.621   4.267  0.4274 -0.6870  0.7368
14318TIP3    H264370   1.585   4.642   4.187 -0.4796 -0.0867 -0.5737
14319TIP3   OH264371   4.348   4.894  16.798  0.1189  0.1868 -0.2649
14319TIP3    H164372   4.418   4.864  16.856  0.4453 -0.1541 -0.8286
14319TIP3    H264373   4.362   4.846  16.717 -1.0334 -0.2218 -0.2419
14320TIP3   OH264374   3.646   1.213   1.692 -0.2199 -0.8341  0.2372
14320TIP3    H164375   3.691   1.133   1.719 -1.3895 -0.4333  3.5708
14320TIP3    H264376   3.686   1.282   1.744  0.1887  0.6818 -1.9953
14321TIP3   OH264377   4.448   2.257   0.410 -0.0412  0.8137  0.3393
14321TIP3    H164378   4.402   2.330   0.452 -0.1675  0.8619  0.1183
14321TIP3    H264379   4.536   2.260   0.448 -0.2665  0.6186  0.8818
14322TIP3   OH264380   1.904   3.962   3.013 -0.1267  0.3879 -0.3783
14322TIP3    H164381   1.900   3.998   2.925 -1.2514  0.6257 -0.2346
14322TIP3    H264382   1.824   3.912   3.023 -0.4707  1.1507  0.8493
14323TIP3   OH264383   2.394   1.025  13.117  0.3307  0.3275 -0.1239
14323TIP3    H164384   2.304   0.993  13.122  1.1888 -2.0440  0.7165
14323TIP3    H264385   2.412   1.034  13.023  0.6229 -3.4449 -0.5057
14324TIP3   OH264386   4.631   5.223   3.227  0.2988 -0.5271  0.1671
14324TIP3    H164387   4.717   5.263   3.238 -0.8102  2.3768 -1.1121
14324TIP3    H264388   4.617   5.224   3.132 -1.0257 -1.2519  0.3485
14325TIP3   OH264389   0.531   0.143   0.580  0.5318 -0.2538 -0.2550
14325TIP3    H164390   0.465   0.205   0.611  0.8413  0.3392 -0.7439
14325TIP3    H264391   0.558   0.094   0.657  0.0401  0.0002  0.0758
14326TIP3   OH264392   4.720   6.042   4.773  0.5062 -0.2265  0.0902
14326TIP3    H164393   4.693   6.079   4.858 -1.0297 -1.2645  0.0713
14326TIP3    H264394   4.707   5.948   4.783  3.8519 -0.7688 -0.0563
14327TIP3   OH264395   2.051   1.286  15.825 -0.1274 -0.1418 -0.1649
14327TIP3    H164396   2.067   1.250  15.738  0.1248  1.7943 -0.9478
14327TIP3    H264397   1.976   1.344  15.813 -0.0860  0.1465  0.9145
14328TIP3   OH264398   3.612   5.589   1.477  0.1946  0.1123 -1.1420
14328TIP3    H164399   3.529   5.578   1.523  1.2558  0.3832  0.9270
14328TIP3    H264400   3.640   5.678   1.499  1.6973 -0.4629 -0.6180
14329TIP3   OH264401   2.578   5.987   5.787 -0.7042 -0.3222  0.0366
14329TIP3    H164402   2.551   5.896   5.772 -0.5625  0.0068 -2.5013
14329TIP3    H264403   2.545   6.034   5.710  0.8561  1.4246  0.4022
14330TIP3   OH264404   2.498   1.483   4.987  0.1172  0.6356 -0.1732
14330TIP3    H164405   2.471   1.439   5.068 -0.3119  1.1614 -0.0296
14330TIP3    H264406   2.540   1.414   4.935  1.0468  0.4572  0.8012
14331TIP3   OH264407   0.501   1.218  13.342 -0.3129  0.5386  1.3226
14331TIP3    H164408   0.460   1.303  13.358  1.2054  1.6118 -0.2139
14331TIP3    H264409   0.588   1.227  13.381  0.4213  0.2622 -0.2166
14332TIP3   OH264410   2.333   5.697  11.609 -0.1353  0.0023  0.3462
14332TIP3    H164411   2.334   5.661  11.698 -1.7736 -1.7367 -0.2999
14332TIP3    H264412   2.421   5.680  11.575  0.5010  0.6729  1.6010
14333TIP3   OH264413   1.036   5.045  13.905 -0.3841 -0.1532 -0.0130
14333TIP3    H164414   1.047   5.130  13.861  0.3228  1.5818  3.3757
14333TIP3    H264415   1.096   4.987  13.858 -0.6101  1.2735 -2.1611
14334TIP3   OH264416   2.747   3.178  15.555 -0.2238  0.6412  0.2651
14334TIP3    H164417   2.667   3.214  15.594 -0.3570  0.7712 -0.1265
14334TIP3    H264418   2.740   3.084  15.571 -0.7774  0.5750 -0.3528
14335TIP3   OH264419   0.996   3.059  13.075 -0.0254 -0.0887 -0.3376
14335TIP3    H164420   0.964   2.977  13.037  0.5136 -0.3565 -0.2231
14335TIP3    H264421   1.057   3.093  13.010  0.2303 -0.1007 -0.1066
14336TIP3   OH264422   3.590   0.702   0.876  0.4169 -0.7420 -0.3838
14336TIP3    H164423   3.625   0.735   0.959  0.7509  0.8101 -1.1097
14336TIP3    H264424   3.660   0.646   0.842  1.7920  1.3948 -1.2484
14337TIP3   OH264425   6.668   5.855   0.862 -0.2302  0.2867 -0.2074
14337TIP3    H164426   6.632   5.881   0.946 -1.2546 -1.2660 -0.1340
14337TIP3    H264427   6.742   5.798   0.884  0.1260  0.6905 -0.3569
14338TIP3   OH264428   2.756   2.404  15.101 -0.8611 -0.6236 -0.1165
14338TIP3    H164429   2.739   2.310  15.109  0.2929 -0.7828  0.5552
14338TIP3    H264430   2.793   2.415  15.013 -2.4050 -0.5703 -0.7794
14339TIP3   OH264431   6.467   0.068   4.553  0.5167  0.0067  0.2025
14339TIP3    H164432   6.411   0.134   4.512 -0.2599 -1.2529 -0.7879
14339TIP3    H264433   6.407   0.000   4.583  1.4977 -1.4771 -1.0695
14340TIP3   OH264434   1.194   1.942  15.835 -0.6615  0.9150  0.1877
14340TIP3    H164435   1.258   1.879  15.802 -1.8159  1.1768 -2.7293
14340TIP3    H264436   1.118   1.889  15.860 -0.9115  0.9881 -0.4229
14341TIP3   OH264437   6.582   4.561   1.152 -0.1394 -0.3558  0.0771
14341TIP3    H164438   6.523   4.614   1.099 -0.0036 -1.5202 -1.2831
14341TIP3    H264439   6.650   4.532   1.091  0.7047 -0.7102  1.1618
14342TIP3   OH264440   0.977   6.612  11.928  1.2599  0.3518 -0.1074
14342TIP3    H164441   0.905   6.616  11.864  0.6654  1.2423  0.6031
14342TIP3    H264442   1.047   6.664  11.888  1.0533  0.5373 -0.2300
14343TIP3   OH264443   6.580   5.193   3.548 -0.2121  0.6346 -0.4070
14343TIP3    H164444   6.620   5.159   3.628 -0.4097  0.3294 -0.4376
14343TIP3    H264445   6.509   5.132   3.529 -0.6004  1.0942 -0.4326
14344TIP3   OH264446   3.681   4.648  11.742 -0.4618 -0.0988  0.7172
14344TIP3    H164447   3.657   4.582  11.677 -0.1622 -0.7416  1.2501
14344TIP3    H264448   3.735   4.711  11.695 -1.2837  0.1119  0.0490
14345TIP3   OH264449   4.635   1.667  11.973  0.3945  0.1204  0.0882
14345TIP3    H164450   4.582   1.746  11.975  1.5905  0.9207  3.5520
14345TIP3    H264451   4.711   1.690  11.919  1.0157  1.5258  1.5532
14346TIP3   OH264452   4.703   1.409  14.605 -1.3029 -0.0765 -0.0510
14346TIP3    H164453   4.738   1.372  14.685 -0.7739  2.2768  0.8438
14346TIP3    H264454   4.775   1.459  14.567 -1.8219 -0.3850 -1.5061
14347TIP3   OH264455   1.427   1.575   4.973 -0.2225  0.5660  0.3998
14347TIP3    H164456   1.503   1.630   4.991 -0.7377  1.0582  1.1069
14347TIP3    H264457   1.365   1.596   5.044  0.3661 -2.4182  1.8847
14348TIP3   OH264458   3.674   3.013   1.675 -0.2528  0.0487  0.1368
14348TIP3    H164459   3.756   3.047   1.711 -1.2658  1.3555  1.2749
14348TIP3    H264460   3.615   3.011   1.750 -2.0808  1.7789 -1.2027
14349TIP3   OH264461   5.843   5.274   3.063  0.3393 -0.6813 -0.2356
14349TIP3    H164462   5.850   5.341   2.996 -0.3972 -1.4230 -1.0673
14349TIP3    H264463   5.761   5.292   3.108  1.3070  0.4096  1.1453
14350TIP3   OH264464   3.213   4.734   3.163 -0.0415  0.0590 -0.9214
14350TIP3    H164465   3.160   4.667   3.206  0.1832  0.3056 -0.2612
14350TIP3    H264466   3.299   4.694   3.152  0.0505  0.1822 -0.6609
14351TIP3   OH264467   5.835   6.327   3.280  0.3066  0.0860  0.1587
14351TIP3    H164468   5.744   6.325   3.250  0.9328 -1.1171 -1.7091
14351TIP3    H264469   5.885   6.292   3.207  2.5483  2.8730  0.2956
14352TIP3   OH264470   5.378   1.319   1.375 -0.1188  0.1405  0.3635
14352TIP3    H164471   5.396   1.406   1.410 -0.1818  0.4326 -0.3339
14352TIP3    H264472   5.413   1.320   1.286  1.1927 -1.0171  0.8489
14353TIP3   OH264473   5.711   0.678   0.702  0.0081  0.2161 -0.0132
14353TIP3    H164474   5.759   0.749   0.660 -0.0765  0.3420  0.1024
14353TIP3    H264475   5.690   0.618   0.631 -0.0715  0.3939 -0.1415
14354TIP3   OH264476   3.427   2.069  16.764 -0.0039 -0.3109  0.4067
14354TIP3    H164477   3.412   1.977  16.787 -0.6976 -0.8072 -1.9356
14354TIP3    H264478   3.340   2.108  16.761  0.1775  0.0696 -0.0296
14355TIP3   OH264479   3.010   4.026   4.744 -0.6400  0.2916 -0.0447
14355TIP3    H164480   3.062   3.961   4.792 -2.2823 -0.7210  0.4066
14355TIP3    H264481   2.980   3.979   4.667 -1.9742  0.4624  0.3682
14356TIP3   OH264482   6.474   1.090  13.436 -0.2712 -0.0057 -0.2963
14356TIP3    H164483   6.474   1.126  13.347  0.1006  0.8163  0.0277
14356TIP3    H264484   6.484   0.996  13.424  2.1640  0.3078 -1.0675
14357TIP3   OH264485   3.931   4.839   4.647  0.3493 -0.7144 -0.5883
14357TIP3    H164486   3.916   4.823   4.740 -0.0198 -2.3398 -0.9067
14357TIP3    H264487   4.026   4.847   4.639  0.2666  1.4222  0.2045
14358TIP3   OH264488   1.801   6.583   0.162  0.6883  0.8373 -0.3147
14358TIP3    H164489   1.836   6.519   0.224  1.5385  1.7145  0.1364
14358TIP3    H264490   1.876   6.638   0.141 -0.3816  2.6711  0.5470
14359TIP3   OH264491   4.879   1.385   1.025  0.0421  0.0566  0.0517
14359TIP3    H164492   4.804   1.432   1.060  0.2070 -1.0293  1.9284
14359TIP3    H264493   4.945   1.389   1.095  1.1961 -0.2659 -0.9950
14360TIP3   OH264494   4.107   5.947   2.722 -0.7541 -0.3978  0.1285
14360TIP3    H164495   4.094   5.853   2.708 -0.9693 -0.3181 -0.2296
14360TIP3    H264496   4.198   5.962   2.696 -1.5161 -0.0280 -2.5258
14361TIP3   OH264497   2.641   6.357  15.775  0.2879 -0.0580 -0.6055
14361TIP3    H164498   2.612   6.397  15.693 -1.9062 -2.4919 -1.1023
14361TIP3    H264499   2.734   6.341  15.762 -0.2404 -1.4098 -3.1327
14362TIP3   OH264500   2.654   3.966  12.790 -0.4716  0.5651 -0.5448
14362TIP3    H164501   2.728   3.956  12.849 -2.7056 -0.9037  2.1047
14362TIP3    H264502   2.651   4.060  12.771 -1.1142  1.4615  3.6003
14363TIP3   OH264503   3.648   5.934   6.130 -0.2227 -0.1563  0.2271
14363TIP3    H164504   3.696   5.969   6.205  1.0358  2.3779 -1.6995
14363TIP3    H264505   3.574   5.995   6.119 -1.2562 -1.3791  0.3095
14364TIP3   OH264506   4.887   3.409  15.609 -0.0149 -0.3700  0.2285
14364TIP3    H164507   4.804   3.375  15.642 -1.1722  1.0650 -1.1837
14364TIP3    H264508   4.929   3.447  15.686 -1.3307  0.2256  0.6656
14365TIP3   OH264509   4.598   1.953   3.692  0.0660 -0.3241 -0.3024
14365TIP3    H164510   4.647   1.898   3.753  1.1896  0.5783 -0.3797
14365TIP3    H264511   4.622   1.920   3.605 -0.2970 -0.5779 -0.3060
14366TIP3   OH264512   4.386   4.558  13.176  0.0619  0.3862  0.2430
14366TIP3    H164513   4.379   4.476  13.226  2.1129  0.0682  0.0676
14366TIP3    H264514   4.423   4.532  13.092 -0.3418  1.3520 -0.2417
14367TIP3   OH264515   1.620   5.556   0.834  0.5380  0.0341 -0.1814
14367TIP3    H164516   1.550   5.575   0.896 -0.5884  0.9923 -1.6995
14367TIP3    H264517   1.634   5.461   0.842 -0.3122 -0.0207  0.7738
14368TIP3   OH264518   6.373   5.996  11.333  0.5539  0.0531 -0.3797
14368TIP3    H164519   6.357   5.910  11.296 -0.2201 -0.2388  0.6202
14368TIP3    H264520   6.421   6.043  11.265  0.1837 -0.8641 -1.2738
14369TIP3   OH264521   2.017   4.130  10.503  0.0583 -0.3829 -0.3189
14369TIP3    H164522   2.019   4.043  10.463  0.0991 -1.6469  2.2691
14369TIP3    H264523   2.105   4.141  10.541  0.4345  1.3038 -1.6259
14370TIP3   OH264524   6.025   3.900   0.231  0.2290  0.5795 -0.0062
14370TIP3    H164525   6.116   3.925   0.247 -0.1185  1.2678  0.9328
14370TIP3    H264526   6.013   3.820   0.283  0.5778 -0.0805 -0.9228
14371TIP3   OH264527   3.424   2.602  12.341 -0.2874  0.3771  0.0155
14371TIP3    H164528   3.433   2.510  12.316  0.4100  0.3486  0.3611
14371TIP3    H264529   3.503   2.621  12.392 -1.4491  0.5654  1.8038
14372TIP3   OH264530   2.767   3.884  13.642 -0.7085 -0.0196 -0.3282
14372TIP3    H164531   2.829   3.812  13.655 -0.6135  0.3704  1.4737
14372TIP3    H264532   2.681   3.843  13.645 -0.6494 -0.0784  0.5397
14373TIP3   OH264533   5.460   5.429   1.633  0.5758  0.2749 -0.1237
14373TIP3    H164534   5.435   5.347   1.593  1.6725  0.6235 -1.5859
14373TIP3    H264535   5.458   5.493   1.561  1.8000  1.0710  0.5199
14374TIP3   OH264536   2.874   2.618  14.606  0.4552  0.2981 -0.0385
14374TIP3    H164537   2.829   2.662  14.533  1.2393  0.2588 -0.5464
14374TIP3    H264538   2.914   2.690  14.656  0.1031  0.3079  0.2316
14375TIP3   OH264539   4.542   6.656   1.613 -0.3348  0.3023 -0.8353
14375TIP3    H164540   4.555   6.575   1.662 -2.3178  1.4638  1.6889
14375TIP3    H264541   4.628   6.675   1.575  0.8397 -1.4854  0.8480
14376TIP3   OH264542   4.937   0.361  14.000 -0.1264  0.6244  0.4698
14376TIP3    H164543   4.896   0.313  14.073  1.1982 -0.2763  0.6402
14376TIP3    H264544   5.031   0.357  14.019  0.1246  1.6077 -0.5597
14377TIP3   OH264545   0.695   1.101  14.353  0.7654  0.3197  0.4522
14377TIP3    H164546   0.639   1.036  14.310  2.1360 -1.7535  1.6934
14377TIP3    H264547   0.744   1.141  14.281 -1.0494  0.9202 -0.4575
14378TIP3   OH264548   0.307   2.791  15.319 -0.7673 -0.6435  0.1615
14378TIP3    H164549   0.293   2.884  15.301  0.3572 -0.5481 -0.2522
14378TIP3    H264550   0.262   2.746  15.248 -2.9258 -0.4848  1.3874
14379TIP3   OH264551   0.659   4.651  13.996  0.0567 -0.7903  0.1998
14379TIP3    H164552   0.735   4.705  13.977 -0.2811 -0.4188 -0.1014
14379TIP3    H264553   0.662   4.638  14.091  0.0462 -0.1070  0.2940
14380TIP3   OH264554   3.120   0.605  13.116 -0.0827  0.2941  0.1930
14380TIP3    H164555   3.102   0.580  13.207 -1.8526  0.2191 -0.1727
14380TIP3    H264556   3.057   0.674  13.097 -1.4573 -1.4448 -1.7766
14381TIP3   OH264557   5.933   1.206  12.113  0.0428  0.5108  0.6536
14381TIP3    H164558   5.912   1.120  12.150  0.3498  0.3609  0.4753
14381TIP3    H264559   5.861   1.224  12.052 -0.1132  0.4586  0.8213
14382TIP3   OH264560   1.935   2.459  13.095 -0.2378 -0.6422  0.0627
14382TIP3    H164561   1.895   2.373  13.101  1.6875 -1.4849  1.2601
14382TIP3    H264562   2.020   2.450  13.139  0.4363  1.5878 -0.6822
14383TIP3   OH264563   3.835   4.491   5.740  0.0952 -0.5058 -0.0972
14383TIP3    H164564   3.756   4.515   5.691 -0.8913 -0.3687  1.5195
14383TIP3    H264565   3.906   4.533   5.692 -1.0245  0.9605 -0.5241
14384TIP3   OH264566   1.624   5.277   0.917  0.0010 -0.1399  0.2405
14384TIP3    H164567   1.604   5.183   0.921  0.9075 -0.4302 -1.6339
14384TIP3    H264568   1.720   5.280   0.915 -0.0601  0.7479 -1.5101
14385TIP3   OH264569   5.986   2.039  14.942  0.0315 -0.1637  0.8708
14385TIP3    H164570   5.970   2.107  15.008 -0.4413 -0.6847  1.2923
14385TIP3    H264571   5.903   2.034  14.894  1.2714  2.2558 -1.6590
14386TIP3   OH264572   2.578   3.538  15.082  0.1392 -0.0967 -0.1662
14386TIP3    H164573   2.541   3.454  15.110  0.9335 -0.2252  0.5423
14386TIP3    H264574   2.672   3.529  15.099  0.0451  1.4734  1.2795
14387TIP3   OH264575   4.903   1.698   3.322  0.1491  0.3532  0.0173
14387TIP3    H164576   4.952   1.618   3.342  0.6977  0.6843 -0.0039
14387TIP3    H264577   4.959   1.769   3.353 -0.3165  0.7303 -0.0120
14388TIP3   OH264578   6.091   2.942  15.519  0.1359  0.1110  0.1092
14388TIP3    H164579   6.066   2.917  15.430 -1.6095 -0.4917  0.7463
14388TIP3    H264580   6.178   2.981  15.509 -1.1095  2.4746 -2.2199
14389TIP3   OH264581   6.039   4.716  10.991  0.3061 -0.8918 -0.6183
14389TIP3    H164582   5.961   4.742  10.942  1.1135  1.0771 -0.9200
14389TIP3    H264583   6.072   4.638  10.945 -0.3908 -0.5839 -1.6458
14390TIP3   OH264584   1.982   5.565   1.571  0.6675 -0.4628  0.1255
14390TIP3    H164585   2.053   5.515   1.612  0.0555 -1.0857  0.4569
14390TIP3    H264586   1.954   5.510   1.498  0.2106 -0.4464  0.2880
14391TIP3   OH264587   6.488   5.215  14.746  0.3277  0.1835  0.5787
14391TIP3    H164588   6.571   5.216  14.699  0.5681  3.3518  0.9323
14391TIP3    H264589   6.454   5.304  14.736 -2.1389 -0.5518  1.9751
14392TIP3   OH264590   3.251   3.429  10.979  0.0243  0.4426 -0.7392
14392TIP3    H164591   3.305   3.350  10.971  1.0283  1.0960 -0.5647
14392TIP3    H264592   3.162   3.396  10.992  0.7668 -0.6855  1.7469
14393TIP3   OH264593   6.297   5.479   3.346 -0.1217  0.1030 -0.0298
14393TIP3    H164594   6.355   5.542   3.303 -2.0843  1.3569 -0.9066
14393TIP3    H264595   6.268   5.524   3.425  0.9325 -0.9393  0.9593
14394TIP3   OH264596   2.657   5.263  11.849 -0.0391 -0.4273  0.0949
14394TIP3    H164597   2.628   5.193  11.907 -3.9046  0.9235 -0.0661
14394TIP3    H264598   2.584   5.275  11.788  1.9986  1.3733 -2.0609
14395TIP3   OH264599   6.190   1.626   3.668 -0.0773  0.2959 -0.2128
14395TIP3    H164600   6.105   1.638   3.710 -0.3425  0.3668 -0.7766
14395TIP3    H264601   6.226   1.715   3.662  0.5702  0.1397  1.1407
14396TIP3   OH264602   0.946   1.772  15.738  0.0461  0.0793 -0.8191
14396TIP3    H164603   0.943   1.779  15.833  1.3737 -2.0383 -0.6026
14396TIP3    H264604   0.866   1.726  15.714  0.5199 -0.8665 -0.5807
14397TIP3   OH264605   2.108   5.348  13.412 -0.0157  0.2579  0.0381
14397TIP3    H164606   2.037   5.283  13.415  1.0430 -0.8787  1.1206
14397TIP3    H264607   2.160   5.330  13.490  1.4861  1.0620 -0.7547
14398TIP3   OH264608   0.821   5.504  15.503 -0.4381  0.3077  0.4235
14398TIP3    H164609   0.827   5.544  15.590  1.2436 -2.4398  1.6418
14398TIP3    H264610   0.764   5.427  15.517  1.8287 -1.5546 -0.2976
14399TIP3   OH264611   6.678   2.581  14.811  0.2591  0.3670  0.1055
14399TIP3    H164612   6.720   2.628  14.739 -1.6936  1.7188 -0.1757
14399TIP3    H264613   6.696   2.635  14.888  1.0472 -0.2947  0.3977
14400TIP3   OH264614   2.124   4.126   4.886 -0.1790 -0.6190 -0.3110
14400TIP3    H164615   2.054   4.185   4.857 -0.8194 -0.4388  1.5592
14400TIP3    H264616   2.111   4.047   4.833 -1.1253 -0.1866 -0.7489
14401TIP3   OH264617   3.435   5.045   2.064  0.3294 -0.2668 -0.0155
14401TIP3    H164618   3.451   5.140   2.065 -1.0400 -0.0294  0.9694
14401TIP3    H264619   3.461   5.016   2.151  0.8360 -0.8276 -0.3486
14402TIP3   OH264620   1.544   1.044  11.997 -0.0425 -0.1615  0.1054
14402TIP3    H164621   1.626   0.995  11.999  0.4709  0.7444  1.3948
14402TIP3    H264622   1.561   1.123  12.047 -2.5859 -1.3339  2.9984
14403TIP3   OH264623   4.576   0.965   3.960  0.1986 -0.1994 -0.0754
14403TIP3    H164624   4.588   1.044   3.906  0.1040 -2.5615 -3.7308
14403TIP3    H264625   4.665   0.942   3.988  0.3696  0.4783 -0.0310
14404TIP3   OH264626   2.283   3.502   1.786 -0.1254  0.6728 -0.6979
14404TIP3    H164627   2.216   3.509   1.854  0.4966  2.3544 -0.2197
14404TIP3    H264628   2.283   3.589   1.745  1.5372  0.5878 -0.8925
14405TIP3   OH264629   0.981   4.121  15.509  0.3514  0.5997 -0.1484
14405TIP3    H164630   1.062   4.070  15.500  0.8106  1.2904  0.0257
14405TIP3    H264631   1.010   4.212  15.510 -0.0936  0.7888  3.2034
14406TIP3   OH264632   6.030   4.433   0.241  0.6142  0.0856 -0.1586
14406TIP3    H164633   6.030   4.519   0.198  0.8934 -0.0304 -0.3945
14406TIP3    H264634   6.102   4.385   0.199 -0.5157 -0.8044 -1.1214
14407TIP3   OH264635   5.353   3.040  12.474  0.5284 -0.2176  0.2520
14407TIP3    H164636   5.381   3.017  12.563  0.5293  1.7516  0.7865
14407TIP3    H264637   5.310   3.125  12.484 -0.1333 -0.3264 -1.5271
14408TIP3   OH264638   4.231   2.514  11.059 -0.1663 -0.0130  0.4358
14408TIP3    H164639   4.214   2.427  11.024 -1.0354  0.5364 -0.5169
14408TIP3    H264640   4.326   2.523  11.055 -0.2333 -0.0648 -1.5392
14409TIP3   OH264641   1.809   6.180  13.766 -0.2392  0.1868 -0.4126
14409TIP3    H164642   1.751   6.236  13.817  0.2593 -0.2059  0.6008
14409TIP3    H264643   1.750   6.129  13.709 -0.7323  1.2601 -0.8709
14410TIP3   OH264644   1.959   3.780   2.215  0.1932 -0.0726 -0.3526
14410TIP3    H164645   2.038   3.740   2.253  0.6774  0.5496 -0.6942
14410TIP3    H264646   1.887   3.730   2.252  0.7505 -0.6345 -0.0131
14411TIP3   OH264647   2.530   0.492  17.141 -0.1612 -1.0464  0.6039
14411TIP3    H164648   2.587   0.477  17.065  1.6997  1.1000  1.5098
14411TIP3    H264649   2.582   0.463  17.216  0.8435  3.1502  1.6932
14412TIP3   OH264650   3.494   4.481   6.423  0.0146 -0.5508  0.1231
14412TIP3    H164651   3.556   4.533   6.474 -0.0585 -1.1169  0.7921
14412TIP3    H264652   3.412   4.530   6.428  0.1992 -0.2134 -0.1019
14413TIP3   OH264653   6.647   2.928   3.801  0.7244  0.0114 -0.0497
14413TIP3    H164654   6.716   2.974   3.849  1.1889 -0.5999 -0.1302
14413TIP3    H264655   6.693   2.859   3.753  0.2789  0.6660 -1.4369
14414TIP3   OH264656   1.994   3.427   3.003 -0.1417  0.0209  0.3617
14414TIP3    H164657   2.036   3.443   3.087  0.1735 -0.1927  0.2466
14414TIP3    H264658   1.983   3.514   2.964  1.7098 -0.0257 -0.3382
14415TIP3   OH264659   2.051   1.802   5.165  0.1040 -0.2357 -0.1994
14415TIP3    H164660   2.002   1.724   5.138  0.1485 -0.1792 -0.4453
14415TIP3    H264661   2.011   1.874   5.117 -0.7203  0.0754  0.9420
14416TIP3   OH264662   0.215   6.405  12.817 -0.1925 -0.1902  0.4930
14416TIP3    H164663   0.241   6.480  12.870  3.5755 -1.1955  0.2092
14416TIP3    H264664   0.205   6.440  12.729  1.2090  0.0445  0.4236
14417TIP3   OH264665   4.635   5.821  15.622 -0.5151 -0.1289 -0.0417
14417TIP3    H164666   4.557   5.799  15.571 -0.1439 -2.1284  0.1869
14417TIP3    H264667   4.632   5.916  15.632 -2.8848 -0.1661 -0.0870
14418TIP3   OH264668   2.979   6.666  12.510 -0.0331 -0.3376  0.4305
14418TIP3    H164669   2.920   6.620  12.451  2.1028 -1.0230 -1.2319
14418TIP3    H264670   2.989   6.607  12.585 -0.7128 -0.6079  0.3139
14419TIP3   OH264671   3.720   4.879  11.523  0.2858  0.0360 -0.1846
14419TIP3    H164672   3.629   4.904  11.539 -0.1634 -2.4339  1.3793
14419TIP3    H264673   3.771   4.939  11.579 -0.5035  0.1342  0.4481
14420TIP3   OH264674   5.899   0.537  11.748 -0.3281  0.1052  0.0764
14420TIP3    H164675   5.973   0.592  11.771  0.0876  0.1733 -1.3718
14420TIP3    H264676   5.851   0.587  11.682 -0.5565 -0.7757 -0.4391
14421TIP3   OH264677   1.078   3.760  14.171  0.3228 -0.2907  0.1678
14421TIP3    H164678   1.067   3.669  14.146  1.1094 -0.7962  1.6126
14421TIP3    H264679   0.993   3.786  14.206  0.6585 -1.0819  1.6149
14422TIP3   OH264680   3.038   1.479   0.787  0.4144 -0.5123 -0.2070
14422TIP3    H164681   3.130   1.457   0.775  0.6223  0.2554 -0.0586
14422TIP3    H264682   3.039   1.569   0.819 -0.4227 -0.2500 -0.9033
14423TIP3   OH264683   2.003   5.769  12.630  0.0779 -0.4098  0.7685
14423TIP3    H164684   1.925   5.740  12.676 -1.0290  0.9318 -0.2048
14423TIP3    H264685   1.971   5.798  12.544  1.1759  2.7518  1.3352
14424TIP3   OH264686   0.720   3.856  12.535 -0.6520  0.1869 -0.2065
14424TIP3    H164687   0.639   3.853  12.587  1.0313  0.6175  2.5054
14424TIP3    H264688   0.753   3.766  12.537 -1.1118 -0.0219 -1.4445
14425TIP3   OH264689   5.779   0.658   0.351 -0.1945 -0.5831 -0.3605
14425TIP3    H164690   5.811   0.693   0.268  1.9926 -0.1885  0.6255
14425TIP3    H264691   5.857   0.651   0.406 -1.8654  0.7731  2.2404
14426TIP3   OH264692   1.584   5.422   3.629 -0.1596 -0.0037  0.2918
14426TIP3    H164693   1.558   5.331   3.618 -0.1634  0.0342 -0.0325
14426TIP3    H264694   1.608   5.430   3.721  0.4850 -0.5018  0.1651
14427TIP3   OH264695   3.630   0.260  13.671 -0.0885  0.1215 -0.3188
14427TIP3    H164696   3.636   0.326  13.601  1.3831  0.8036  0.4161
14427TIP3    H264697   3.712   0.211  13.665  0.3686  0.6390  1.3550
14428TIP3   OH264698   1.511   3.858  16.231  0.0413 -0.1250  0.5287
14428TIP3    H164699   1.514   3.851  16.136  1.6189 -0.5632  0.6009
14428TIP3    H264700   1.418   3.871  16.251 -0.1494  1.2620 -1.1469
14429TIP3   OH264701   2.309   1.631   0.522  0.5990  0.6315  0.4766
14429TIP3    H164702   2.288   1.592   0.437  0.0961  0.1041  0.8398
14429TIP3    H264703   2.393   1.676   0.508  0.1409  1.1909 -0.4971
14430TIP3   OH264704   1.355   2.550   0.359 -0.1574  0.0816  0.2619
14430TIP3    H164705   1.327   2.461   0.381 -1.5701  0.4538  0.0049
14430TIP3    H264706   1.273   2.600   0.350  0.5857  1.1718 -0.5896
14431TIP3   OH264707   0.598   2.886   2.458  0.3592 -0.6929 -0.7766
14431TIP3    H164708   0.576   2.806   2.409  0.7434 -2.2794  1.5276
14431TIP3    H264709   0.693   2.880   2.471  0.2252 -0.4913  0.3981
14432TIP3   OH264710   5.934   3.998   1.039  0.6984 -0.4480  0.4103
14432TIP3    H164711   5.992   3.931   1.075  0.2645 -0.8217  0.4115
14432TIP3    H264712   5.993   4.068   1.011  1.1214 -0.6542  0.7799
14433TIP3   OH264713   0.161   5.623  17.012 -0.3639 -0.1678  0.4032
14433TIP3    H164714   0.098   5.574  17.065 -1.7022 -0.0069 -0.9628
14433TIP3    H264715   0.170   5.571  16.932  1.7073 -0.4749  0.8232
14434TIP3   OH264716   5.077   2.137   3.038 -0.1917 -0.5718 -0.4171
14434TIP3    H164717   4.985   2.122   3.016 -0.2917 -0.1422 -0.2921
14434TIP3    H264718   5.089   2.231   3.029 -0.5607 -0.1997  2.5601
14435TIP3   OH264719   4.686   5.141  14.373  0.2282 -0.5153  0.4194
14435TIP3    H164720   4.624   5.213  14.363 -0.7402 -1.4867 -0.7954
14435TIP3    H264721   4.711   5.118  14.283  0.4072 -1.7842  0.7833
14436TIP3   OH264722   4.060   0.285   2.389  0.2039 -0.3720  0.3525
14436TIP3    H164723   4.112   0.321   2.460 -0.2957  0.4951  0.2893
14436TIP3    H264724   4.113   0.214   2.353  1.4416  0.6655  0.1231
14437TIP3   OH264725   5.962   5.319  14.246 -0.4374 -0.5026 -0.5373
14437TIP3    H164726   5.908   5.351  14.174 -2.2424 -1.6925  0.2473
14437TIP3    H264727   6.052   5.324  14.213 -0.9419  2.1965 -1.5964
14438TIP3   OH264728   4.595   4.051  12.658  0.1055  0.0031  0.2898
14438TIP3    H164729   4.577   4.029  12.567  2.9787  2.5841 -0.9739
14438TIP3    H264730   4.666   3.991  12.684 -0.2705 -0.2909  0.6580
14439TIP3   OH264731   3.855   1.505   5.710 -0.2375 -0.0489  0.7663
14439TIP3    H164732   3.913   1.573   5.744  1.2407 -1.9140  2.1244
14439TIP3    H264733   3.826   1.457   5.788 -3.2919  0.5822  0.0454
14440TIP3   OH264734   3.587   5.897  11.173  0.5602  0.3184 -0.0535
14440TIP3    H164735   3.559   5.835  11.106  0.8818 -0.0323  0.1355
14440TIP3    H264736   3.635   5.965  11.125  0.1635  0.4520 -0.2660
14441TIP3   OH264737   1.578   1.628  16.434  0.4279  0.1069 -0.0437
14441TIP3    H164738   1.506   1.644  16.494  1.1496  0.5569  0.7223
14441TIP3    H264739   1.627   1.711  16.431  0.9377 -0.1980 -0.5154
14442TIP3   OH264740   3.111   6.535   2.187  0.1222 -0.2761  0.1603
14442TIP3    H164741   3.118   6.586   2.268 -0.5174 -0.2983  0.2311
14442TIP3    H264742   3.157   6.453   2.207  0.4329 -0.0647  0.3199
14443TIP3   OH264743   4.730   4.018   5.325  0.3478  0.5505 -0.8165
14443TIP3    H164744   4.778   4.090   5.284  0.6068  0.3464 -0.8735
14443TIP3    H264745   4.638   4.039   5.312  0.4308  0.3020 -1.8335
14444TIP3   OH264746   5.508   6.363  16.133 -0.2813 -0.1536  0.5723
14444TIP3    H164747   5.477   6.319  16.211 -0.1597 -0.1909  0.6005
14444TIP3    H264748   5.428   6.385  16.084 -0.2762 -2.0518 -0.3377
14445TIP3   OH264749   4.111   2.979   0.629 -0.2666  0.8211 -0.5950
14445TIP3    H164750   4.160   3.045   0.679  0.5326 -1.3656  1.5958
14445TIP3    H264751   4.150   2.982   0.541  0.0194  2.9701 -0.4124
14446TIP3   OH264752   5.415   5.730   2.806 -1.0568  0.2286 -0.1457
14446TIP3    H164753   5.457   5.779   2.876 -2.1672 -0.0911  0.7482
14446TIP3    H264754   5.368   5.660   2.850  0.4463 -1.6124 -1.4132
14447TIP3   OH264755   1.133   0.026   1.202  0.4170 -0.3537  0.2439
14447TIP3    H164756   1.160   0.091   1.136  2.5487 -0.9377  0.5263
14447TIP3    H264757   1.075   0.075   1.260  2.6401  1.5648  0.9369
14448TIP3   OH264758   3.401   4.900   5.372  0.1556  0.2970  0.0134
14448TIP3    H164759   3.354   4.983   5.374 -0.8932 -0.2848 -0.1203
14448TIP3    H264760   3.412   4.880   5.280 -0.2857 -0.0991  0.0463
14449TIP3   OH264761   3.627   5.726  13.415 -0.1673 -0.0422  0.0911
14449TIP3    H164762   3.666   5.811  13.434  3.2961 -2.0166  2.2782
14449TIP3    H264763   3.574   5.706  13.492 -1.2078  0.2187 -0.5426
14450TIP3   OH264764   2.352   2.273  16.733  0.1203  0.1700 -0.2582
14450TIP3    H164765   2.356   2.337  16.662  1.5133  1.7751  1.2186
14450TIP3    H264766   2.378   2.190  16.693  0.7670  1.0290 -1.6331
14451TIP3   OH264767   3.743   3.911  12.351 -0.2531  0.0091 -0.4033
14451TIP3    H164768   3.828   3.883  12.386  0.1736  2.0005  0.2356
14451TIP3    H264769   3.700   3.830  12.324  0.2399 -1.4099  2.8847
14452TIP3   OH264770   0.634   4.151   1.491  0.2330  0.1626  0.1335
14452TIP3    H164771   0.640   4.092   1.566 -1.2129  0.4628  0.4920
14452TIP3    H264772   0.580   4.223   1.521  1.2897  1.2800 -0.5792
14453TIP3   OH264773   2.510   5.096  14.888  0.7475 -0.1367  0.4853
14453TIP3    H164774   2.504   5.183  14.927  1.5520  0.5134 -0.8030
14453TIP3    H264775   2.422   5.061  14.895  0.4299  0.7594  1.0832
14454TIP3   OH264776   5.319   1.604   0.096 -0.6552 -0.4657 -0.0665
14454TIP3    H164777   5.375   1.592   0.019 -0.9874 -0.3998 -0.3189
14454TIP3    H264778   5.329   1.523   0.146 -0.4009 -0.4879 -0.1542
14455TIP3   OH264779   2.234   1.948   0.086  0.2848  0.2071 -0.0916
14455TIP3    H164780   2.228   1.915  -0.004  1.3563 -2.0361  0.6437
14455TIP3    H264781   2.272   1.877   0.136 -1.6234  0.8900  2.4614
14456TIP3   OH264782   1.652   6.403   3.885  0.1616  0.0890  0.0091
14456TIP3    H164783   1.711   6.330   3.900 -1.0872 -0.3399  3.4172
14456TIP3    H264784   1.655   6.453   3.967  0.5507  3.5625 -2.0258
14457TIP3   OH264785   2.544   0.606  12.173 -0.1866 -0.1653 -0.2098
14457TIP3    H164786   2.552   0.601  12.078  1.4347 -0.2528 -0.0817
14457TIP3    H264787   2.551   0.516  12.203  0.2561 -0.0416  0.0603
14458TIP3   OH264788   6.213   3.154  12.408  0.0149  0.4138  1.1036
14458TIP3    H164789   6.220   3.113  12.494 -0.8146 -0.4880  0.7511
14458TIP3    H264790   6.180   3.242  12.426  0.4946  0.4637  1.7570
14459TIP3   OH264791   1.539   0.303  11.615  0.0046 -0.3167  0.6864
14459TIP3    H164792   1.534   0.262  11.701  0.0548  0.2437  0.9588
14459TIP3    H264793   1.631   0.327  11.605 -0.2971  1.1164  1.1843
14460TIP3   OH264794   6.585   4.067   0.635  0.6769 -0.1649 -0.5116
14460TIP3    H164795   6.584   3.981   0.593  1.1671  0.1280 -1.1289
14460TIP3    H264796   6.649   4.117   0.584  2.0380 -0.1178  1.2167
14461TIP3   OH264797   1.609   3.198   4.897  0.1557  0.5299 -0.1900
14461TIP3    H164798   1.687   3.224   4.846 -0.7574  2.1255 -0.8334
14461TIP3    H264799   1.562   3.281   4.911 -1.2020 -0.3585  0.5596
14462TIP3   OH264800   3.017   0.739  13.350 -0.4682 -0.5882 -0.6220
14462TIP3    H164801   2.953   0.800  13.313  1.0425  1.4093 -0.0275
14462TIP3    H264802   2.966   0.661  13.370 -2.2077 -0.0070 -2.5867
14463TIP3   OH264803   6.698   0.391   0.404 -0.1615 -0.4348  0.1429
14463TIP3    H164804   6.748   0.469   0.381  2.1196 -1.4627  1.5541
14463TIP3    H264805   6.763   0.322   0.413 -2.1038 -2.4142 -0.5948
14464TIP3   OH264806   0.080   2.642   5.271  0.4311 -0.3287  0.5396
14464TIP3    H164807   0.067   2.612   5.361  0.1437 -0.7397  0.3586
14464TIP3    H264808   0.051   2.570   5.216  1.1261 -0.2943  0.1129
14465TIP3   OH264809   3.852   6.701   0.962  0.0534  0.6173 -0.2766
14465TIP3    H164810   3.787   6.631   0.948 -0.2545  0.8427  0.0243
14465TIP3    H264811   3.908   6.697   0.884 -1.5116  1.7260 -1.4784
14466TIP3   OH264812   1.760   5.069  12.460 -0.2219  0.1744 -0.0734
14466TIP3    H164813   1.788   5.056  12.550  0.1654  1.7378  0.0448
14466TIP3    H264814   1.712   5.152  12.462  0.9615  0.9200 -1.5601
14467TIP3   OH264815   2.554   3.203   0.500  0.0415 -0.6861 -0.1549
14467TIP3    H164816   2.649   3.203   0.492  0.0051  1.2243 -1.0020
14467TIP3    H264817   2.524   3.142   0.432  0.6054 -0.1281 -0.9122
14468TIP3   OH264818   6.083   5.237  16.157  0.3108 -0.4896  0.5334
14468TIP3    H164819   6.024   5.232  16.083  3.0174  1.4848 -1.8937
14468TIP3    H264820   6.128   5.152  16.159  0.9671 -0.1763 -0.7634
14469TIP3   OH264821   4.993   1.900  14.382  0.4215  0.2009  0.4392
14469TIP3    H164822   5.082   1.897  14.418  0.0949  2.2699  1.5270
14469TIP3    H264823   4.938   1.925  14.457 -1.0858 -1.1021 -0.2151
14470TIP3   OH264824   6.672   1.586  13.920 -0.7410 -0.7027 -0.0930
14470TIP3    H164825   6.715   1.502  13.907 -0.1316 -0.4406  0.1925
14470TIP3    H264826   6.744   1.650  13.919 -1.0300 -0.3463  1.1946
14471TIP3   OH264827   4.905   1.090   3.309 -0.1589 -0.6592  0.0156
14471TIP3    H164828   4.810   1.079   3.309 -0.3149  0.5132 -2.2115
14471TIP3    H264829   4.926   1.120   3.398 -1.8507 -1.0346  0.5473
14472TIP3   OH264830   2.996   4.965   3.633  0.4141 -0.5468  0.1709
14472TIP3    H164831   3.032   4.948   3.719  0.1075  0.1221  0.4332
14472TIP3    H264832   3.059   5.024   3.591  0.9643 -1.4908 -0.3641
14473TIP3   OH264833   1.545   0.514  13.552 -0.0508  0.4488 -0.0929
14473TIP3    H164834   1.535   0.543  13.461  1.0470  3.0784  0.5987
14473TIP3    H264835   1.456   0.517  13.587 -0.1826  1.4772 -0.4953
14474TIP3   OH264836   5.816   0.352  14.396  0.1956 -0.0205 -0.3459
14474TIP3    H164837   5.838   0.410  14.322 -0.7147  1.1400  0.2728
14474TIP3    H264838   5.730   0.382  14.425 -0.7284 -2.3295 -0.6122
14475TIP3   OH264839   1.574   2.522   3.349  0.4922 -0.5492  0.4570
14475TIP3    H164840   1.605   2.548   3.436  1.1649 -0.8461  0.3108
14475TIP3    H264841   1.646   2.546   3.290  0.2412 -0.8014  0.0458
14476TIP3   OH264842   5.012   1.739  11.084 -0.0660  0.2016 -0.5365
14476TIP3    H164843   5.061   1.656  11.085 -0.0177  0.2312  0.0225
14476TIP3    H264844   5.057   1.793  11.149 -0.3700  0.5050 -0.5827
14477TIP3   OH264845   4.442   5.493   4.709 -0.4834 -0.3284 -0.1674
14477TIP3    H164846   4.474   5.554   4.643  0.4321 -0.6103  0.0188
14477TIP3    H264847   4.479   5.525   4.791  0.4445 -1.4383 -0.1433
14478TIP3   OH264848   4.408   5.093  16.530 -0.1218 -0.4036 -0.1868
14478TIP3    H164849   4.324   5.061  16.498  0.8430 -1.9676 -1.1991
14478TIP3    H264850   4.450   5.016  16.570  0.4969  0.5474  1.0456
14479TIP3   OH264851   4.036   3.789   2.185 -0.8542 -0.3402  0.2017
14479TIP3    H164852   4.010   3.819   2.272 -1.4512 -0.5600  0.1020
14479TIP3    H264853   4.028   3.693   2.189 -0.0265 -0.4087  0.1819
14480TIP3   OH264854   2.583   0.689  16.427  0.2403 -0.0451  0.0766
14480TIP3    H164855   2.676   0.675  16.444  0.3982 -0.4613 -1.0954
14480TIP3    H264856   2.581   0.765  16.369 -0.1472 -0.1026  0.0164
14481TIP3   OH264857   1.644   3.060  15.812 -0.2633  0.1321  0.0763
14481TIP3    H164858   1.581   3.036  15.745  1.1093 -3.6869  0.0647
14481TIP3    H264859   1.729   3.048  15.771  0.5883 -1.5046  2.2329
14482TIP3   OH264860   3.045   2.491  15.042 -0.1502 -0.2455  0.5787
14482TIP3    H164861   2.975   2.454  14.988  1.7211 -0.7569 -1.5482
14482TIP3    H264862   3.046   2.584  15.019 -1.7245  0.2549  2.4308
14483TIP3   OH264863   5.550   5.934   0.728  0.1482  0.1791  0.3829
14483TIP3    H164864   5.606   5.871   0.683 -0.6436 -0.4213  0.2229
14483TIP3    H264865   5.534   5.895   0.814  0.7707  0.8091  0.7873
14484TIP3   OH264866   4.797   0.357  12.356  0.1050 -0.1366  0.0843
14484TIP3    H164867   4.822   0.271  12.322  3.2349  0.9054 -0.3683
14484TIP3    H264868   4.825   0.356  12.448  2.2972  1.1610 -0.5205
14485TIP3   OH264869   0.533   1.917  11.899  0.2944  0.1086 -0.7615
14485TIP3    H164870   0.551   1.955  11.813  0.9498  1.2234 -0.1414
14485TIP3    H264871   0.459   1.968  11.932 -2.2397 -2.5696 -2.0860
14486TIP3   OH264872   1.381   5.163  16.925 -0.4526 -0.1082 -0.0317
14486TIP3    H164873   1.413   5.086  16.973 -0.2523  0.0581  0.1048
14486TIP3    H264874   1.454   5.225  16.928 -0.0664 -0.4741 -1.4190
14487TIP3   OH264875   1.174   5.660  16.047  0.5728 -0.5734 -0.0728
14487TIP3    H164876   1.174   5.568  16.073 -0.6398 -0.4325  0.4306
14487TIP3    H264877   1.166   5.708  16.129 -1.0239 -0.0788 -0.5016
14488TIP3   OH264878   3.447   1.107  11.971 -0.4905 -0.2964  0.0579
14488TIP3    H164879   3.360   1.127  11.938 -0.4541  0.5813  0.4644
14488TIP3    H264880   3.447   1.141  12.061  0.6883  0.9207 -0.3764
14489TIP3   OH264881   0.355   6.752  12.785 -0.3589 -0.4334  0.3990
14489TIP3    H164882   0.347   6.739  12.880 -3.5211 -2.1006 -0.0263
14489TIP3    H264883   0.347   6.664  12.748 -2.1952  0.5168 -1.5629
14490TIP3   OH264884   6.162   3.436   0.856 -0.9009 -0.4482  0.0081
14490TIP3    H164885   6.202   3.493   0.921  0.4258  0.7435 -1.8187
14490TIP3    H264886   6.188   3.348   0.883  1.7003  0.1969 -0.2484
14491TIP3   OH264887   3.554   1.983  14.529 -0.1775 -0.0125 -0.0779
14491TIP3    H164888   3.538   1.980  14.435 -0.8131 -0.9722  0.0521
14491TIP3    H264889   3.468   1.969  14.568  0.0512  0.5963  0.6479
14492TIP3   OH264890   1.562   0.610   1.940 -0.1510  0.1834  0.5529
14492TIP3    H164891   1.477   0.594   1.900 -0.5621  1.3651  0.9209
14492TIP3    H264892   1.626   0.591   1.872 -0.7568  0.1893 -0.0133
14493TIP3   OH264893   3.690   4.576   6.186 -0.0249 -0.0838 -0.4406
14493TIP3    H164894   3.694   4.655   6.240  0.1455 -0.4043  0.0254
14493TIP3    H264895   3.690   4.504   6.250 -0.5434 -0.4458 -0.8465
14494TIP3   OH264896   0.305   2.946  13.084 -0.0973 -0.0597  0.1312
14494TIP3    H164897   0.320   2.994  13.165 -0.7588  1.4651 -0.6067
14494TIP3    H264898   0.371   2.981  13.023 -0.2087 -0.5064 -0.2455
14495TIP3   OH264899   1.241   4.397   3.022 -0.8727  0.6754  0.3468
14495TIP3    H164900   1.336   4.404   3.014 -0.8814  0.0441 -0.2481
14495TIP3    H264901   1.206   4.460   2.958 -0.8800 -0.7890 -1.1075
14496TIP3   OH264902   5.009   4.382   1.348  0.6356  0.5717  0.4997
14496TIP3    H164903   5.008   4.295   1.308 -1.4960  0.1821  1.3417
14496TIP3    H264904   5.040   4.367   1.437 -0.4942  0.5609  0.8900
14497TIP3   OH264905   3.828   3.442   5.549  0.4051  0.0634 -0.6471
14497TIP3    H164906   3.915   3.414   5.578  0.7880  0.3482 -1.5196
14497TIP3    H264907   3.781   3.360   5.534  0.1236 -0.0898  0.9977
14498TIP3   OH264908   4.001   5.607   0.335  0.0446  0.3335 -0.2449
14498TIP3    H164909   4.071   5.608   0.399 -0.1802 -0.3210  0.0254
14498TIP3    H264910   3.928   5.564   0.380  0.1980 -1.0266 -1.2381
14499TIP3   OH264911   5.142   4.964  15.460 -0.0295  0.0476 -0.7297
14499TIP3    H164912   5.125   5.029  15.392  0.5403 -0.7844 -1.6876
14499TIP3    H264913   5.179   4.890  15.413  1.1904 -0.2121  0.6169
14500TIP3   OH264914   2.910   4.221   0.583 -0.8150 -0.2377 -0.5242
14500TIP3    H164915   2.980   4.156   0.589 -0.7120 -0.1876 -1.1469
14500TIP3    H264916   2.908   4.262   0.670 -0.4384 -0.6129 -0.3350
14501TIP3   OH264917   6.007   6.004   3.853 -0.3691  0.2168  0.4959
14501TIP3    H164918   6.069   5.933   3.870 -0.5996 -0.1895 -0.3804
14501TIP3    H264919   5.996   6.046   3.939  0.9512  0.1666  0.7059
14502TIP3   OH264920   5.091   5.948   6.152  0.4233 -0.4642  0.3781
14502TIP3    H164921   5.005   5.983   6.176  0.8826  0.7375  0.3297
14502TIP3    H264922   5.082   5.925   6.059 -0.4847 -2.3896  0.9160
14503TIP3   OH264923   5.936   1.688   3.757 -0.1882  0.5472 -0.2461
14503TIP3    H164924   5.923   1.781   3.775  2.3038  1.0765 -1.0577
14503TIP3    H264925   5.867   1.667   3.693 -0.5668  1.8927 -0.2964
14504TIP3   OH264926   5.614   4.390   0.179 -0.5840  0.3218 -0.1789
14504TIP3    H164927   5.657   4.317   0.134 -0.5372  0.1350  0.1672
14504TIP3    H264928   5.684   4.454   0.192 -0.8118  0.8071 -1.2645
14505TIP3   OH264929   3.615   4.884  16.872  0.0455 -0.6311  0.4237
14505TIP3    H164930   3.661   4.957  16.914  0.2016 -0.4538 -0.0579
14505TIP3    H264931   3.583   4.830  16.945  0.6169 -0.5051  0.7650
14506TIP3   OH264932   4.688   0.623  14.120 -0.1461 -0.1014  0.7313
14506TIP3    H164933   4.717   0.678  14.047 -2.2621  1.6497  1.1498
14506TIP3    H264934   4.667   0.539  14.080 -1.2689  0.8396 -0.7073
14507TIP3   OH264935   3.482   0.644  14.183 -0.4964 -0.4018 -0.3913
14507TIP3    H164936   3.515   0.700  14.254  0.7066 -0.6732 -0.7177
14507TIP3    H264937   3.429   0.703  14.129  0.4964  0.3596 -0.5556
14508TIP3   OH264938   3.088   6.152   1.685  0.4560  0.1439  0.7694
14508TIP3    H164939   3.028   6.091   1.728 -1.8663 -0.6559 -3.3060
14508TIP3    H264940   3.160   6.097   1.654 -0.7237 -0.2928 -1.2872
14509TIP3   OH264941   2.952   4.449  16.950  0.2384 -0.0528  0.4427
14509TIP3    H164942   3.032   4.405  16.920  1.5253  0.1876  3.3156
14509TIP3    H264943   2.981   4.536  16.978 -1.2173  0.4047  0.5671
14510TIP3   OH264944   3.696   5.871  15.049  0.2161  0.3519 -0.2971
14510TIP3    H164945   3.655   5.828  14.974  1.4201  0.7012 -1.1664
14510TIP3    H264946   3.780   5.827  15.061  0.2276  0.5866  0.5822
14511TIP3   OH264947   5.773   1.116   0.350 -0.0596 -0.3348  0.0407
14511TIP3    H164948   5.857   1.072   0.358  0.1866  0.2645  0.7899
14511TIP3    H264949   5.712   1.062   0.400 -0.0674 -0.6036 -0.2528
14512TIP3   OH264950   6.668   0.454  12.504 -0.1923 -0.6776  0.6393
14512TIP3    H164951   6.607   0.397  12.458 -0.5300 -0.2649  0.5793
14512TIP3    H264952   6.663   0.537  12.457 -0.6072 -0.2284  1.4779
14513TIP3   OH264953   1.974   0.285   3.796  1.1215  0.2215 -0.3033
14513TIP3    H164954   1.931   0.322   3.873  2.6080  1.9441 -0.2560
14513TIP3    H264955   2.035   0.220   3.831 -0.3471 -1.1877 -0.2741
14514TIP3   OH264956   6.173   6.000   6.421  0.7036  0.4522  0.3796
14514TIP3    H164957   6.170   5.922   6.476 -0.6115  0.6169  0.5508
14514TIP3    H264958   6.260   5.997   6.380  0.5561 -1.2374  0.1639
14515TIP3   OH264959   2.165   4.210   0.316  0.6410  0.0272 -0.1028
14515TIP3    H164960   2.081   4.250   0.291  1.1522  1.0073 -0.2554
14515TIP3    H264961   2.183   4.244   0.403  0.3408 -1.0546  0.3903
14516TIP3   OH264962   1.469   2.177  11.388  0.6978  0.4722 -0.2161
14516TIP3    H164963   1.444   2.117  11.459 -0.0181  1.7056  0.5945
14516TIP3    H264964   1.540   2.131  11.342 -1.1989 -1.9141 -0.9026
14517TIP3   OH264965   3.705   3.853   2.597  0.1446  0.0449 -0.2205
14517TIP3    H164966   3.719   3.761   2.573 -2.2931 -0.7846  1.2760
14517TIP3    H264967   3.707   3.900   2.513  1.0434 -1.4185 -1.0488
14518TIP3   OH264968   5.782   6.269   5.076 -0.1428 -0.1363 -0.1580
14518TIP3    H164969   5.716   6.331   5.044 -1.9693 -1.9533  0.0032
14518TIP3    H264970   5.798   6.211   5.002  0.2631 -0.5306  0.2387
14519TIP3   OH264971   3.979   4.744  13.905  0.4077  0.1960  0.4208
14519TIP3    H164972   3.962   4.655  13.936 -1.0417 -0.0096 -0.8969
14519TIP3    H264973   4.037   4.732  13.829  0.1587  0.3652  0.2040
14520TIP3   OH264974   5.352   3.900  14.088 -0.2922 -0.6194 -0.1063
14520TIP3    H164975   5.279   3.960  14.079 -0.9776 -1.5152 -0.6520
14520TIP3    H264976   5.335   3.852  14.169 -0.1375 -0.5944 -0.0582
14521TIP3   OH264977   3.542   0.117   1.836  0.0387 -0.1148 -0.3406
14521TIP3    H164978   3.511   0.171   1.763 -1.5653  0.6139  0.8443
14521TIP3    H264979   3.635   0.106   1.819  0.5975  3.6918 -0.2452
14522TIP3   OH264980   4.702   0.762  13.609 -0.4257  0.2269  0.2031
14522TIP3    H164981   4.614   0.798  13.598 -0.3904  0.1710 -0.2515
14522TIP3    H264982   4.758   0.838  13.623 -0.4595  0.2973 -0.0555
14523TIP3   OH264983   6.574   0.836  12.091  0.0863 -0.2936  0.0886
14523TIP3    H164984   6.653   0.849  12.144 -0.5848  0.0600  0.9985
14523TIP3    H264985   6.506   0.884  12.137 -0.7969 -1.0924 -0.3814
14524TIP3   OH264986   5.355   5.311   3.420  0.0221  0.4068  0.1728
14524TIP3    H164987   5.349   5.355   3.505 -0.4360 -1.0587  0.9250
14524TIP3    H264988   5.383   5.222   3.441 -0.3385 -0.0433 -1.1870
14525TIP3   OH264989   0.620   3.224  12.387 -0.3082 -0.4093  0.4448
14525TIP3    H164990   0.634   3.163  12.315 -0.3776  2.6337 -2.2130
14525TIP3    H264991   0.705   3.265  12.401 -0.6020 -0.0739  1.2894
14526TIP3   OH264992   1.233   2.750   3.652  0.0525  0.4037 -0.6101
14526TIP3    H164993   1.145   2.748   3.689  0.3926 -0.6906  0.1832
14526TIP3    H264994   1.274   2.827   3.691  0.4702 -0.8456  1.4899
14527TIP3   OH264995   1.027   6.275  14.483  0.1818 -0.7058 -0.2274
14527TIP3    H164996   1.050   6.299  14.573 -1.2778  0.2406 -0.0984
14527TIP3    H264997   1.112   6.262  14.440  0.9458  1.3214  0.6127
14528TIP3   OH264998   3.206   5.962  13.757  0.4471  0.5279  0.0556
14528TIP3    H164999   3.277   5.964  13.820 -0.4012 -0.2194  1.0731
14528TIP3    H265000   3.217   6.041  13.704  2.2277  0.2160 -0.0361
14529TIP3   OH265001   5.921   3.627  11.099 -0.1116 -0.7230 -0.4410
14529TIP3    H165002   5.852   3.614  11.034 -0.5521 -0.1795 -0.0770
14529TIP3    H265003   5.998   3.584  11.060  0.0194  0.8428 -1.9961
14530TIP3   OH265004   6.039   2.477   3.002 -0.0341  0.4749  0.3796
14530TIP3    H165005   6.060   2.560   2.959 -0.9758  0.1016 -0.8022
14530TIP3    H265006   5.944   2.471   2.998  0.1069 -1.2410 -0.6145
14531TIP3   OH265007   1.477   3.015  14.143 -0.3073 -0.1667 -0.3287
14531TIP3    H165008   1.524   2.946  14.097  0.4934  0.4914 -0.4996
14531TIP3    H265009   1.435   3.066  14.073 -0.8209 -0.4199 -0.2098
14532TIP3   OH265010   4.428   0.424   5.822  0.5875 -0.0961 -0.1354
14532TIP3    H165011   4.450   0.442   5.913 -0.6367 -0.3125  0.2098
14532TIP3    H265012   4.398   0.508   5.787  0.1480 -0.2212 -0.0659
14533TIP3   OH265013   4.909   5.493   4.010  0.2082  0.1302  0.0083
14533TIP3    H165014   4.961   5.566   3.978 -0.1340 -0.3458 -1.6678
14533TIP3    H265015   4.818   5.521   3.999  0.0643 -0.8232 -1.3270
14534TIP3   OH265016   5.367   3.262   3.229  0.5230 -0.5546  0.6583
14534TIP3    H165017   5.306   3.225   3.164 -0.5019 -0.6050  1.6390
14534TIP3    H265018   5.405   3.338   3.185  0.3162 -0.9631 -0.2379
14535TIP3   OH265019   2.056   5.572   3.669  0.2102 -0.3473  0.1125
14535TIP3    H165020   2.055   5.517   3.747  0.8963  0.4492  0.6979
14535TIP3    H265021   1.983   5.632   3.681 -0.1092 -0.6716 -0.1920
14536TIP3   OH265022   4.287   6.523   6.034  0.7393 -0.0654  0.2238
14536TIP3    H165023   4.324   6.447   6.079  0.0074 -0.8358 -0.4541
14536TIP3    H265024   4.354   6.547   5.969  1.5105  0.6470  1.2724
14537TIP3   OH265025   2.912   0.958  15.252  0.5722  0.2761 -0.1696
14537TIP3    H165026   2.961   0.876  15.259 -0.7126 -0.3753  1.8198
14537TIP3    H265027   2.828   0.938  15.292  0.3048  2.6370  0.4926
14538TIP3   OH265028   3.676   0.523   0.212  0.1093 -0.6416  0.3098
14538TIP3    H165029   3.690   0.597   0.271  1.5727  0.1814 -1.0313
14538TIP3    H265030   3.763   0.487   0.196 -0.4823 -2.0457  0.1585
14539TIP3   OH265031   3.758   0.557   1.593  0.1030 -0.3219 -0.7295
14539TIP3    H165032   3.849   0.559   1.566  0.1865  1.1523 -0.3570
14539TIP3    H265033   3.712   0.608   1.527  0.3787  3.7547  2.0496
14540TIP3   OH265034   4.179   6.633  15.218  0.7908  0.2925 -0.6660
14540TIP3    H165035   4.268   6.633  15.182  1.6662  1.9319  1.4209
14540TIP3    H265036   4.187   6.584  15.300  0.3800  2.7524  0.8944
14541TIP3   OH265037   3.022   0.321   4.394 -0.1536  0.6628  0.3517
14541TIP3    H165038   3.110   0.335   4.358 -0.1578  0.8135  0.3972
14541TIP3    H265039   3.022   0.230   4.423 -0.0713  0.6113  0.1900
14542TIP3   OH265040   0.213   5.762  15.425  0.3733 -0.1500  0.5434
14542TIP3    H165041   0.169   5.691  15.472 -0.2556  0.4951  0.9484
14542TIP3    H265042   0.168   5.841  15.454  1.3615  0.4615  0.4377
14543TIP3   OH265043   6.362   0.848   1.995 -0.5077 -0.0728 -0.5794
14543TIP3    H165044   6.275   0.862   1.959 -1.3704  0.3749  1.6459
14543TIP3    H265045   6.381   0.926   2.046  0.5712 -0.8155  0.1908
14544TIP3   OH265046   4.450   6.519  12.332  0.3629 -0.4548  0.1408
14544TIP3    H165047   4.540   6.543  12.312  0.5219 -0.9987  0.2163
14544TIP3    H265048   4.449   6.500  12.426  0.4936 -1.8996 -0.1392
14545TIP3   OH265049   5.459   2.280  17.136  0.3171 -0.5549 -0.1637
14545TIP3    H165050   5.523   2.251  17.071  2.3993 -0.7412  1.9033
14545TIP3    H265051   5.450   2.206  17.196 -0.9035 -0.0736  0.2696
14546TIP3   OH265052   3.519   2.565   2.091 -0.0966 -0.4278 -0.4795
14546TIP3    H165053   3.451   2.579   2.025  0.0779  0.8139 -0.3952
14546TIP3    H265054   3.509   2.473   2.116  0.3001 -1.1248 -2.7812
14547TIP3   OH265055   1.770   3.167   2.113  0.2970  1.3713 -0.2698
14547TIP3    H165056   1.827   3.202   2.045  0.5689 -0.8977 -1.2726
14547TIP3    H265057   1.768   3.072   2.096 -1.8473  1.1119  1.2017
14548TIP3   OH265058   0.115   5.181  11.939 -0.2597 -0.0018  0.5319
14548TIP3    H165059   0.143   5.138  11.859  0.0362  0.7729  0.2171
14548TIP3    H265060   0.024   5.207  11.922 -0.1834  0.1995  0.4349
14549TIP3   OH265061   2.006   0.389   4.907 -0.4064 -0.1724  0.3428
14549TIP3    H165062   2.037   0.474   4.939 -0.3329 -0.3307  0.6909
14549TIP3    H265063   2.042   0.326   4.969 -1.2769 -0.3713  0.6471
14550TIP3   OH265064   2.734   2.463  16.099 -0.3102 -0.3202  0.1390
14550TIP3    H165065   2.659   2.404  16.112  0.8295 -1.4424  1.8235
14550TIP3    H265066   2.811   2.406  16.106  0.7508  1.0505 -0.1396
14551TIP3   OH265067   0.567   4.027   0.737 -0.2170 -0.0777 -0.1987
14551TIP3    H165068   0.548   3.947   0.688  1.5806 -1.8238  1.8266
14551TIP3    H265069   0.660   4.021   0.759 -0.0335  2.6393 -0.1048
14552TIP3   OH265070   5.182   5.905   5.898 -0.8200 -0.0238  0.6250
14552TIP3    H165071   5.129   5.980   5.871 -1.9907 -0.8494  0.5830
14552TIP3    H265072   5.265   5.943   5.925 -0.7514  1.1177 -1.1250
14553TIP3   OH265073   0.779   1.031  12.252 -0.6069 -0.0646 -0.8698
14553TIP3    H165074   0.695   1.076  12.249 -0.1302  0.9262  0.2772
14553TIP3    H265075   0.758   0.940  12.270 -1.3357  0.4948  1.1768
14554TIP3   OH265076   0.990   6.557  17.012  0.2442 -0.5849  0.0694
14554TIP3    H165077   0.909   6.506  17.012  1.0562 -1.9047  1.5975
14554TIP3    H265078   0.963   6.645  17.040 -0.6566 -0.9878  0.4649
14555TIP3   OH265079   2.325   2.172   4.732  0.6127 -0.1518 -0.1647
14555TIP3    H165080   2.276   2.243   4.775 -0.1630  0.0907 -1.4289
14555TIP3    H265081   2.262   2.101   4.724  1.3557 -0.9630  0.9855
14556TIP3   OH265082   2.938   2.552  15.323 -0.8706 -0.3896  0.0181
14556TIP3    H165083   2.854   2.585  15.355 -0.8264 -0.8287  0.5971
14556TIP3    H265084   2.916   2.507  15.241 -1.1156 -0.0264 -0.1152
14557TIP3   OH265085   0.866   3.327   4.087  0.0043  0.4483  0.4482
14557TIP3    H165086   0.961   3.338   4.089  0.1585 -0.8870  1.3593
14557TIP3    H265087   0.852   3.238   4.119 -1.4181 -0.2723 -2.0561
14558TIP3   OH265088   4.744   5.979  14.510  0.2815 -0.1271 -0.6688
14558TIP3    H165089   4.783   6.010  14.429  0.5764  0.8427 -0.1554
14558TIP3    H265090   4.818   5.964  14.569  0.2663 -2.9724 -1.2814
14559TIP3   OH265091   1.795   0.732  14.244 -0.3156  0.0894  0.0106
14559TIP3    H165092   1.733   0.672  14.287  1.0910 -1.3412  0.0768
14559TIP3    H265093   1.743   0.811  14.226 -2.6191 -1.6901 -1.4663
14560TIP3   OH265094   4.717   1.288   2.298 -0.1594  0.7041  0.6103
14560TIP3    H165095   4.626   1.317   2.291 -0.0265  1.7820  2.9532
14560TIP3    H265096   4.759   1.355   2.352  1.4581 -1.0592  1.5667
14561TIP3   OH265097   1.947   1.626   1.498 -0.1282  0.1433  0.0143
14561TIP3    H165098   1.970   1.633   1.591  0.9318  2.0157 -0.3645
14561TIP3    H265099   2.031   1.628   1.453 -0.6288 -0.9814 -0.9828
14562TIP3   OH265100   2.264   2.636   0.284 -0.0890  0.5547  0.6287
14562TIP3    H165101   2.226   2.558   0.244  0.2419  1.0123 -0.5875
14562TIP3    H265102   2.357   2.615   0.292 -0.3560 -0.0429  2.3729
14563TIP3   OH265103   2.662   4.376   2.984  0.4702  0.0417 -0.2563
14563TIP3    H165104   2.753   4.360   3.011  0.1045 -1.5663  0.0470
14563TIP3    H265105   2.657   4.471   2.974  2.1013  0.1767  0.0406
14564TIP3   OH265106   3.722   5.363   2.375  0.0564  0.0414 -0.2810
14564TIP3    H165107   3.791   5.418   2.336  1.2983 -0.3352  1.3319
14564TIP3    H265108   3.732   5.278   2.334  0.4036  0.0508 -0.2145
14565TIP3   OH265109   5.073   2.687  14.586  0.2868  0.0174  0.2416
14565TIP3    H165110   4.989   2.733  14.581  0.8560  0.9236 -1.5840
14565TIP3    H265111   5.053   2.598  14.555 -0.2553 -0.1525  1.0703
14566TIP3   OH265112   3.628   6.657  11.415 -0.0269 -0.0196  0.2840
14566TIP3    H165113   3.619   6.696  11.328  0.8491 -1.4437 -0.4530
14566TIP3    H265114   3.541   6.624  11.435  0.0410 -0.7290 -0.5589
14567TIP3   OH265115   0.774   1.832   0.386  0.1340  0.4357  0.0056
14567TIP3    H165116   0.736   1.881   0.459 -2.1399 -2.0111  0.5443
14567TIP3    H265117   0.796   1.747   0.424 -0.7457 -0.7477 -2.0562
14568TIP3   OH265118   4.608   4.694   0.125  0.0713 -0.2248 -0.5901
14568TIP3    H165119   4.645   4.765   0.178  0.8004 -0.8947 -0.1965
14568TIP3    H265120   4.648   4.706   0.038 -1.4536  1.1341 -1.1428
14569TIP3   OH265121   6.278   4.119   2.606  0.0816  0.1938  0.0918
14569TIP3    H165122   6.369   4.095   2.623 -0.1339  0.0539  1.0509
14569TIP3    H265123   6.227   4.066   2.667 -0.5388  1.5195  0.7458
14570TIP3   OH265124   1.670   6.328  12.630 -0.3283  0.1139  0.4475
14570TIP3    H165125   1.608   6.297  12.565  0.6149 -1.6293  0.3266
14570TIP3    H265126   1.756   6.307  12.593  0.2692  0.8690  1.3816
14571TIP3   OH265127   0.362   3.199   0.414  0.5650  0.2360  0.1079
14571TIP3    H165128   0.327   3.207   0.325 -0.3949 -0.0438  0.4435
14571TIP3    H265129   0.324   3.273   0.461  0.6297  0.0725  0.4208
14572TIP3   OH265130   2.116   3.617  16.409 -0.1265 -0.5801  0.4869
14572TIP3    H165131   2.056   3.679  16.370  0.3315 -0.8422 -0.6533
14572TIP3    H265132   2.128   3.648  16.499  0.7341  1.4433 -0.2975
14573TIP3   OH265133   4.568   3.328  13.540  0.0204 -0.0529 -0.7645
14573TIP3    H165134   4.598   3.340  13.630  0.5131  0.6618 -1.0186
14573TIP3    H265135   4.545   3.235  13.534  0.9194 -0.3166 -0.1836
14574TIP3   OH265136   2.354   3.222   2.599 -0.2080 -0.2978  0.5389
14574TIP3    H165137   2.447   3.203   2.608 -0.0887 -0.2055 -0.4552
14574TIP3    H265138   2.324   3.166   2.528 -0.2453  1.8227 -1.1902
14575TIP3   OH265139   1.138   2.123  12.906 -0.1609 -0.6631 -0.6117
14575TIP3    H165140   1.174   2.075  12.981  0.6604 -2.1430 -1.9266
14575TIP3    H265141   1.069   2.067  12.872  0.1030 -0.4373 -1.5397
14576TIP3   OH265142   6.445   5.799  17.220  0.0513  0.1960  0.5366
14576TIP3    H165143   6.431   5.860  17.147 -0.2393  1.0929  1.3355
14576TIP3    H265144   6.446   5.854  17.298 -0.3119 -0.8321  1.2841
14577TIP3   OH265145   3.472   3.626  16.059  0.2910  0.1795  0.5082
14577TIP3    H165146   3.557   3.662  16.034  0.9441 -1.8361 -0.2775
14577TIP3    H265147   3.490   3.572  16.136 -0.3536  0.1393  0.6367
14578TIP3   OH265148   2.024   5.667   2.063  0.0181  0.0772 -0.3261
14578TIP3    H165149   2.018   5.739   2.126  0.6405  0.5008 -0.7506
14578TIP3    H265150   2.013   5.588   2.116 -1.4308  0.5079  0.0375
14579TIP3   OH265151   0.593   2.550   0.418 -0.1083 -0.0065  0.2774
14579TIP3    H165152   0.642   2.593   0.488 -1.0655 -0.0542  0.9835
14579TIP3    H265153   0.518   2.509   0.462 -1.8521  1.6939 -1.0256
14580TIP3   OH265154   0.344   5.367   5.101 -0.0355  0.7715  0.0880
14580TIP3    H165155   0.266   5.354   5.156 -0.8516  1.5321 -0.8727
14580TIP3    H265156   0.363   5.460   5.107 -0.3111  0.9179 -1.1431
14581TIP3   OH265157   4.471   0.703   4.231  0.2991 -0.0208 -0.7672
14581TIP3    H165158   4.399   0.703   4.168  1.1890 -0.2982 -1.8102
14581TIP3    H265159   4.512   0.789   4.221  1.3582 -0.6111 -1.6584
14582TIP3   OH265160   1.341   6.415   6.735  0.4398 -0.3063 -0.1656
14582TIP3    H165161   1.368   6.503   6.708 -3.2128  1.4254  1.4784
14582TIP3    H265162   1.285   6.384   6.664  1.7270 -1.3612 -0.7463
14583TIP3   OH265163   2.252   6.725  15.239 -0.0631 -0.7271  0.1007
14583TIP3    H165164   2.214   6.794  15.293 -0.3193 -0.9422  0.1967
14583TIP3    H265165   2.347   6.732  15.253 -0.1739 -1.3726  1.3023
14584TIP3   OH265166   6.624   4.744   2.693  0.0630 -0.3878  0.0762
14584TIP3    H165167   6.633   4.832   2.729 -0.2212 -0.8467  1.3261
14584TIP3    H265168   6.530   4.732   2.682 -0.1307 -1.4349  2.3590
14585TIP3   OH265169   0.306   6.782   1.246  0.2000  0.1502  0.4233
14585TIP3    H165170   0.396   6.804   1.226  0.5607 -1.8781 -0.3279
14585TIP3    H265171   0.274   6.736   1.168 -1.4823  0.8666  0.6735
14586TIP3   OH265172   1.216   0.444   3.082  0.1696 -0.0093  0.3550
14586TIP3    H165173   1.134   0.444   3.033  1.1818  0.4658 -1.4197
14586TIP3    H265174   1.245   0.535   3.081  0.6794 -0.1627  1.0042
14587TIP3   OH265175   3.140   4.742   5.332 -0.2042 -0.3723  0.3972
14587TIP3    H165176   3.100   4.716   5.250 -0.2260  0.3710  0.1672
14587TIP3    H265177   3.133   4.838   5.333  1.3042 -0.2527  0.4798
14588TIP3   OH265178   6.081   3.433  13.264 -0.1726  0.1051  0.3482
14588TIP3    H165179   6.060   3.403  13.175  0.0669 -1.2822  0.7562
14588TIP3    H265180   6.037   3.371  13.321  0.0905  0.7097  1.2119
14589TIP3   OH265181   1.845   0.786  12.493  0.5131 -0.7939 -0.0988
14589TIP3    H165182   1.807   0.753  12.411  0.9406  1.5128 -1.2569
14589TIP3    H265183   1.939   0.772  12.483  0.6024 -0.1569 -0.1788
14590TIP3   OH265184   1.081   1.242   5.428 -0.2656 -0.2006 -0.6565
14590TIP3    H165185   1.011   1.278   5.374 -0.1760  1.7130  0.4207
14590TIP3    H265186   1.134   1.319   5.452  1.3222 -1.4000 -0.2065
14591TIP3   OH265187   5.778   0.865   3.312  0.1099  0.4751 -0.0339
14591TIP3    H165188   5.828   0.819   3.379  0.0577  2.4376  1.4209
14591TIP3    H265189   5.690   0.873   3.349 -0.5207 -0.3687 -1.3087
14592TIP3   OH265190   6.615   6.238   3.752  0.1699 -0.0842 -0.1131
14592TIP3    H165191   6.679   6.199   3.692 -0.1633 -1.3429  0.3447
14592TIP3    H265192   6.601   6.172   3.819 -1.6232  0.1634 -0.2062
14593TIP3   OH265193   0.993   1.557   6.403  0.0343 -0.1653  0.2587
14593TIP3    H165194   0.902   1.528   6.409 -0.4402  1.1956 -0.1033
14593TIP3    H265195   1.042   1.478   6.380 -0.9305 -1.0775  1.2915
14594TIP3   OH265196   2.795   3.036  16.547  0.0987  0.2852 -0.9172
14594TIP3    H165197   2.857   3.103  16.575  0.0060 -0.6466  1.6539
14594TIP3    H265198   2.798   2.970  16.616 -2.9045 -0.3378 -1.2950
14595TIP3   OH265199   3.957   3.564  11.289 -0.0350 -0.4899  0.6921
14595TIP3    H165200   4.032   3.517  11.253  0.0866 -0.9902  1.5886
14595TIP3    H265201   3.972   3.655  11.264  0.8773 -0.5885  0.8709
14596TIP3   OH265202   2.985   5.548   0.976  0.4658  0.3090 -0.1774
14596TIP3    H165203   3.072   5.510   0.989  0.9988  1.4682 -0.3116
14596TIP3    H265204   2.925   5.483   1.014  1.3416 -0.7124 -0.5074
14597TIP3   OH265205   0.150   2.720  15.078  0.8237  0.2601 -0.7238
14597TIP3    H165206   0.215   2.745  15.011 -0.1089  1.2853 -1.2670
14597TIP3    H265207   0.070   2.765  15.051  0.3938  0.5703  1.0079
14598TIP3   OH265208   0.520   1.724   3.248 -0.4440  0.8142 -0.4319
14598TIP3    H165209   0.572   1.644   3.239 -1.7871 -0.4176  2.3757
14598TIP3    H265210   0.583   1.789   3.279  0.4609  0.6654 -1.8622
14599TIP3   OH265211   4.724   0.924  16.596 -0.3625  0.6008 -0.1708
14599TIP3    H165212   4.819   0.912  16.603 -0.4564 -0.0846 -0.0206
14599TIP3    H265213   4.713   1.005  16.547  0.3081  0.9211  0.2054
14600TIP3   OH265214   0.608   2.239  15.121  0.0935 -0.0701  0.2277
14600TIP3    H165215   0.554   2.261  15.045  0.4065  0.6490  0.2085
14600TIP3    H265216   0.693   2.279  15.102  0.7255 -1.4352  0.1261
14601TIP3   OH265217   6.395   0.628  12.378 -0.2122 -0.1746 -0.6061
14601TIP3    H165218   6.464   0.686  12.347  0.3698  0.0245  1.0059
14601TIP3    H265219   6.360   0.672  12.456 -1.4318 -0.8006 -0.7771
14602TIP3   OH265220   3.336   0.490   5.095 -0.6420 -0.4136  0.6845
14602TIP3    H165221   3.333   0.535   5.180 -1.7519  0.3299  0.2672
14602TIP3    H265222   3.338   0.560   5.031  1.0943 -0.9736  0.0986
14603TIP3   OH265223   0.024   3.174  15.063  0.1945 -0.0488 -0.1638
14603TIP3    H165224  -0.064   3.137  15.070  0.9766 -1.8255  0.9072
14603TIP3    H265225   0.016   3.261  15.101 -1.2019 -0.0137 -0.4946
14604TIP3   OH265226   1.684   0.837   0.404 -0.0920 -0.0572 -0.1840
14604TIP3    H165227   1.757   0.827   0.343 -0.5023 -0.0187 -0.6904
14604TIP3    H265228   1.617   0.776   0.372 -0.3330  0.0119  0.1861
14605TIP3   OH265229   5.710   3.745  12.863  0.4671  0.2873 -0.0590
14605TIP3    H165230   5.696   3.837  12.845 -0.6757 -0.2064 -1.8205
14605TIP3    H265231   5.723   3.705  12.777 -0.8299 -1.4658  0.5175
14606TIP3   OH265232   4.264   2.893  15.193 -0.0561  0.0474 -0.1756
14606TIP3    H165233   4.287   2.985  15.178 -0.4318  0.2486  0.4428
14606TIP3    H265234   4.169   2.890  15.182 -0.0507 -0.2554 -0.1490
14607TIP3   OH265235   1.767   5.586  13.569 -0.9530  0.9403 -0.0099
14607TIP3    H165236   1.700   5.617  13.508 -3.3575 -2.4135  0.7765
14607TIP3    H265237   1.751   5.636  13.649 -1.2905  1.4994 -0.4189
14608TIP3   OH265238   5.644   3.426  14.216  0.0561 -0.4761  0.7484
14608TIP3    H165239   5.736   3.451  14.225 -0.8177  2.9819  0.6556
14608TIP3    H265240   5.600   3.506  14.188 -3.0486 -2.0089  1.0706
14609TIP3   OH265241   3.629   0.010  11.172  0.2240  0.3172  0.0607
14609TIP3    H165242   3.675   0.093  11.185 -1.3665  1.1766  0.3837
14609TIP3    H265243   3.539   0.036  11.150  0.0703 -1.2921 -1.3692
14610TIP3   OH265244   1.511   2.108  15.731 -0.0181  0.4067  0.7655
14610TIP3    H165245   1.503   2.019  15.697 -1.1866  0.3579  1.1248
14610TIP3    H265246   1.582   2.147  15.681  0.2231 -0.5987  0.3101
14611TIP3   OH265247   0.997   4.555  16.519 -0.1533  0.1178 -0.0095
14611TIP3    H165248   1.015   4.493  16.589 -0.3167  0.7051  0.5602
14611TIP3    H265249   1.027   4.639  16.554 -1.9313  0.7368  0.0749
14612TIP3   OH265250   4.317   2.711   5.838  0.0869  0.4102 -0.2076
14612TIP3    H165251   4.339   2.801   5.814 -0.8983  0.7437  0.0869
14612TIP3    H265252   4.251   2.721   5.907  0.6352 -0.5382  0.4497
14613TIP3   OH265253   0.769   2.476   4.713  0.3303  0.5676 -0.3257
14613TIP3    H165254   0.822   2.397   4.706 -1.0570 -0.3599 -0.7830
14613TIP3    H265255   0.697   2.462   4.651 -0.4480  1.7719  0.2761
14614TIP3   OH265256   6.490   3.613  11.799 -0.3509 -0.2215 -0.7813
14614TIP3    H165257   6.431   3.545  11.833 -1.3519  1.0553  0.0635
14614TIP3    H265258   6.548   3.634  11.873 -1.8275  1.7874 -0.1552
14615TIP3   OH265259   1.972   3.681   2.914 -0.7923  0.4863  0.1098
14615TIP3    H165260   2.024   3.749   2.956 -0.1337 -0.8945  1.5867
14615TIP3    H265261   1.945   3.719   2.830  1.2682  1.7950  0.0190
14616TIP3   OH265262   6.252   0.065  13.459  0.2899 -0.3836 -0.2399
14616TIP3    H165263   6.220   0.014  13.534  2.5033  0.0709  1.0588
14616TIP3    H265264   6.340   0.091  13.484  1.2575 -0.5985 -3.2073
14617TIP3   OH265265   0.410   3.680   5.162  0.0893 -0.4169  0.0660
14617TIP3    H165266   0.376   3.769   5.171 -0.5346 -0.6835  0.3242
14617TIP3    H265267   0.362   3.643   5.087  1.5227  0.0189 -1.0984
14618TIP3   OH265268   0.379   0.044  16.078  0.2390 -0.0449  0.1312
14618TIP3    H165269   0.455   0.100  16.064 -0.7481  0.9977 -1.1815
14618TIP3    H265270   0.372  -0.007  15.997 -0.0800 -0.6012  0.5054
14619TIP3   OH265271   2.656   3.815  14.534  0.2431 -0.2761 -0.8098
14619TIP3    H165272   2.715   3.773  14.472  0.5748  1.0442 -1.4079
14619TIP3    H265273   2.568   3.801  14.499  0.1844 -2.2062  0.0577
14620TIP3   OH265274   0.216   3.509  17.026  0.3230 -0.3295  0.2808
14620TIP3    H165275   0.236   3.568  16.953 -1.1013  0.9327  0.8981
14620TIP3    H265276   0.127   3.532  17.052  0.8402 -0.7041  2.4984
14621TIP3   OH265277   3.907   4.544  12.044  0.1271 -0.2828 -0.4435
14621TIP3    H165278   3.978   4.605  12.022 -0.1852  0.0298 -0.5982
14621TIP3    H265279   3.848   4.596  12.098  0.3694 -0.7467  0.2812
14622TIP3   OH265280   1.840   6.228   6.077  0.0461 -0.2470 -0.0410
14622TIP3    H165281   1.846   6.237   6.172  0.1069  0.3157 -0.0978
14622TIP3    H265282   1.760   6.179   6.063  0.8418 -1.6886  0.3762
14623TIP3   OH265283   4.009   1.877   2.463 -0.5711  0.3168 -0.2792
14623TIP3    H165284   4.006   1.853   2.370 -0.5996  0.2294 -0.2559
14623TIP3    H265285   3.937   1.828   2.503 -1.6713  1.7013 -0.5202
14624TIP3   OH265286   4.583   2.291   0.907  0.4985  0.6586 -0.6575
14624TIP3    H165287   4.588   2.364   0.969  2.0532  1.8499 -2.1351
14624TIP3    H265288   4.662   2.299   0.854  0.0578 -1.3744 -1.6839
14625TIP3   OH265289   5.602   0.131   0.238 -0.4714  0.2722 -0.2870
14625TIP3    H165290   5.537   0.112   0.171  0.3593  0.2047 -1.0811
14625TIP3    H265291   5.624   0.223   0.225 -2.1421  0.9577  1.5075
14626TIP3   OH265292   0.195   2.618   4.004 -0.1728  0.2666  0.4032
14626TIP3    H165293   0.264   2.555   4.023  0.1542 -0.3535 -2.5570
14626TIP3    H265294   0.239   2.703   4.005  0.6246 -0.0965 -1.1473
14627TIP3   OH265295   0.244   1.696  16.948  0.1573 -0.1284 -0.4001
14627TIP3    H165296   0.181   1.670  16.881  0.8331 -1.8029 -0.4074
14627TIP3    H265297   0.239   1.791  16.950 -1.1210 -0.1566 -1.6090
14628TIP3   OH265298   5.431   0.909   5.416 -0.2509 -0.4173  0.3726
14628TIP3    H165299   5.469   0.827   5.386 -1.5467 -0.8058 -0.2452
14628TIP3    H265300   5.394   0.890   5.502 -0.9058 -0.5963  0.0565
14629TIP3   OH265301   2.189   6.280  13.268 -0.3551  0.8942  0.0895
14629TIP3    H165302   2.153   6.194  13.247  0.1198  0.8880 -0.7259
14629TIP3    H265303   2.262   6.262  13.328  0.5013  0.6333 -1.0261
14630TIP3   OH265304   0.364   5.910  16.283 -0.5135  0.6635 -0.5678
14630TIP3    H165305   0.429   5.848  16.250 -0.2822  1.6076 -1.9219
14630TIP3    H265306   0.282   5.860  16.285  0.1802 -0.4378  0.8592
14631TIP3   OH265307   6.401   2.894   1.073  0.0702 -0.3709 -0.3247
14631TIP3    H165308   6.323   2.914   1.125  0.6763  0.7355  0.1676
14631TIP3    H265309   6.380   2.927   0.985  0.0503  0.0741 -0.1527
14632TIP3   OH265310   5.273   2.775   4.890 -0.4467  0.1887 -0.1988
14632TIP3    H165311   5.221   2.700   4.862 -0.3744 -0.3857  1.1555
14632TIP3    H265312   5.229   2.808   4.968 -0.1155  1.1622 -0.4107
14633TIP3   OH265313   1.433   1.840   0.549 -0.2365  0.2413 -0.7685
14633TIP3    H165314   1.416   1.806   0.637  0.6400  0.4411 -0.5163
14633TIP3    H265315   1.524   1.818   0.533 -0.7528 -0.9674 -2.1668
14634TIP3   OH265316   4.351   4.612  14.824  0.2599  0.3436  0.3649
14634TIP3    H165317   4.368   4.704  14.845  2.1640  0.4608 -1.5397
14634TIP3    H265318   4.292   4.582  14.893 -1.0607  3.2208  0.5521
14635TIP3   OH265319   3.915   4.059   0.204 -0.9189  0.1341 -0.7903
14635TIP3    H165320   4.011   4.057   0.208 -0.8245  0.8129 -2.4407
14635TIP3    H265321   3.889   3.967   0.209 -0.1511 -0.1030 -1.0538
14636TIP3   OH265322   1.497   1.392   5.698  0.7090  0.2472  0.3020
14636TIP3    H165323   1.574   1.447   5.692 -0.6636  2.5451  2.8955
14636TIP3    H265324   1.464   1.404   5.787 -0.8909 -3.1043  0.2761
14637TIP3   OH265325   3.712   6.512  15.476 -0.3105 -0.7457  0.9068
14637TIP3    H165326   3.631   6.541  15.518 -0.4413 -0.8487  0.7286
14637TIP3    H265327   3.692   6.424  15.444 -0.7448 -0.0579 -0.7919
14638TIP3   OH265328   5.642   4.889   2.337  0.0405 -1.0377 -0.1510
14638TIP3    H165329   5.697   4.966   2.322 -0.5327 -0.1125  2.2391
14638TIP3    H265330   5.610   4.865   2.250  0.9361  0.8829 -1.0477
14639TIP3   OH265331   0.329   6.316  13.711  0.4699 -0.1069 -0.4672
14639TIP3    H165332   0.398   6.313  13.777  0.4790  1.5601 -0.3838
14639TIP3    H265333   0.331   6.406  13.678  0.6300 -1.0016 -2.9339
14640TIP3   OH265334   0.046   6.183  14.205 -0.0245  0.0656  0.2973
14640TIP3    H165335   0.078   6.255  14.260  2.1916  0.3960 -1.3702
14640TIP3    H265336  -0.008   6.226  14.138 -1.1279 -0.1461  1.0342
14641TIP3   OH265337   2.928   4.183   1.700 -0.1073 -0.0060 -0.3558
14641TIP3    H165338   2.919   4.087   1.698 -1.8811 -0.0170  3.5951
14641TIP3    H265339   2.838   4.215   1.707  0.6669  1.7726  1.7643
14642TIP3   OH265340   5.825   0.992   6.266  0.2199  0.3448 -0.1776
14642TIP3    H165341   5.833   0.898   6.283  2.6202  0.5850  0.1708
14642TIP3    H265342   5.761   1.022   6.330  0.2701 -0.8546  0.4510
14643TIP3   OH265343   4.559   3.783   2.066 -0.1407 -0.2824 -0.5646
14643TIP3    H165344   4.568   3.849   1.998  0.5125  0.0868 -0.1186
14643TIP3    H265345   4.464   3.773   2.077 -0.2720 -0.9397 -2.1006
14644TIP3   OH265346   5.752   1.927  16.792  0.7893  0.0430  0.1043
14644TIP3    H165347   5.732   1.994  16.857 -2.8165  0.2356 -1.1091
14644TIP3    H265348   5.752   1.974  16.709  1.1393 -0.9452 -0.4616
14645TIP3   OH265349   6.712   0.579   6.446  0.9218  0.6954  0.1042
14645TIP3    H165350   6.764   0.638   6.502  0.7429  0.2632  0.7280
14645TIP3    H265351   6.763   0.498   6.443  0.0385  0.0961  1.1335
14646TIP3   OH265352   5.193   4.774  11.234 -0.1034 -0.4553  0.8330
14646TIP3    H165353   5.206   4.827  11.312 -1.0170  0.3382  0.4590
14646TIP3    H265354   5.102   4.790  11.209 -0.1121 -1.4815  0.1873
14647TIP3   OH265355   5.111   2.552   4.785 -0.5679  0.7091  0.1762
14647TIP3    H165356   5.027   2.510   4.805 -0.3688  0.6567  0.9128
14647TIP3    H265357   5.173   2.511   4.845 -0.2342  1.5658  0.4239
14648TIP3   OH265358   5.513   5.653   1.161  0.7867  0.0743  0.3536
14648TIP3    H165359   5.501   5.560   1.178  0.4607  0.0366 -0.0545
14648TIP3    H265360   5.506   5.661   1.065  0.8124  0.5123  0.3855
14649TIP3   OH265361   4.428   2.706   3.616 -0.3238 -0.3337 -0.0940
14649TIP3    H165362   4.406   2.687   3.707  0.7058  1.0241  0.4578
14649TIP3    H265363   4.394   2.631   3.567 -2.2091 -0.3711  1.2177
14650TIP3   OH265364   2.693   5.745   0.058 -0.5252 -0.0687 -0.6578
14650TIP3    H165365   2.678   5.696   0.139 -2.1814 -0.1927 -0.9983
14650TIP3    H265366   2.761   5.696   0.012  3.1673  2.1120  2.3130
14651TIP3   OH265367   1.197   0.496  14.032 -0.5747 -0.4503 -0.3318
14651TIP3    H165368   1.262   0.506  14.102 -1.6233  0.3238  0.5442
14651TIP3    H265369   1.118   0.465  14.076 -1.2708  0.1085 -1.1504
14652TIP3   OH265370   2.311   5.760   3.905  0.1328  0.3787 -0.3760
14652TIP3    H165371   2.292   5.701   3.978 -0.3591  1.2536  0.2254
14652TIP3    H265372   2.406   5.764   3.901  0.1620  0.1326  0.0637
14653TIP3   OH265373   4.288   4.150   4.923 -0.6013 -0.6129  0.6680
14653TIP3    H165374   4.213   4.205   4.948  0.6902  0.6820  1.7868
14653TIP3    H265375   4.363   4.191   4.967  0.6816 -2.1962 -0.0133
14654TIP3   OH265376   4.456   2.528  10.530 -0.0454  0.1732  0.2027
14654TIP3    H165377   4.442   2.599  10.593  0.5309  1.2533 -0.8661
14654TIP3    H265378   4.396   2.547  10.458 -0.1187 -0.5981  0.0643
14655TIP3   OH265379   3.552   3.177  11.527 -0.2414  0.2331  0.3405
14655TIP3    H165380   3.572   3.088  11.501 -2.2002  0.2622 -1.3999
14655TIP3    H265381   3.602   3.232  11.467 -0.0354  0.3071  0.5773
14656TIP3   OH265382   4.088   2.298   3.537 -0.5079 -0.0322 -0.0098
14656TIP3    H165383   4.021   2.242   3.576  1.2136 -0.2958  2.7242
14656TIP3    H265384   4.162   2.239   3.520  1.0454  1.1980  2.2091
14657TIP3   OH265385   1.993   4.102  14.191  0.3987  0.0076  0.1231
14657TIP3    H165386   1.912   4.118  14.142  0.2679  0.9472  0.6379
14657TIP3    H265387   2.027   4.189  14.210  1.4344 -0.3860  0.0744
14658TIP3   OH265388   2.689   6.095  12.256  0.1038  1.2257 -0.2640
14658TIP3    H165389   2.742   6.024  12.293  0.0772  1.3657  0.0426
14658TIP3    H265390   2.607   6.052  12.230  1.1581  0.6002 -2.6758
14659TIP3   OH265391   5.830   4.315  12.575  0.9373  0.5240  0.7471
14659TIP3    H165392   5.919   4.284  12.558  0.5183  0.6534 -1.8791
14659TIP3    H265393   5.776   4.235  12.572  0.8614  0.5478  1.5174
14660TIP3   OH265394   0.301   1.121   4.295 -0.0534  0.4447 -0.2745
14660TIP3    H165395   0.285   1.096   4.386  3.9578  1.6140  0.8577
14660TIP3    H265396   0.313   1.215   4.298  0.7384  0.4061 -1.9086
14661TIP3   OH265397   5.955   2.534  14.645  0.2908 -0.3654 -0.3325
14661TIP3    H165398   6.004   2.612  14.669 -0.8054  0.0844  0.4983
14661TIP3    H265399   5.975   2.471  14.713  1.6434 -1.0269 -1.3198
14662TIP3   OH265400   4.789   0.672   5.620  0.0380  0.2459 -0.3725
14662TIP3    H165401   4.828   0.645   5.703 -1.0720 -0.6409 -0.1264
14662TIP3    H265402   4.803   0.597   5.562 -1.1285 -0.0309 -0.3240
14663TIP3   OH265403   5.824   4.950   0.146 -0.3014  0.2003 -0.3701
14663TIP3    H165404   5.914   4.977   0.127  0.2066 -0.1654  1.4046
14663TIP3    H265405   5.789   4.921   0.062  0.4963  2.4486 -1.5046
14664TIP3   OH265406   0.306   3.354   4.160  0.5620  0.2387  0.1179
14664TIP3    H165407   0.275   3.386   4.076 -3.0248 -2.2891  0.3552
14664TIP3    H265408   0.267   3.414   4.224 -0.0017 -0.1428  0.1437
14665TIP3   OH265409   6.615   4.847   3.582  0.3623 -0.7214 -0.5993
14665TIP3    H165410   6.673   4.862   3.656 -1.7934 -0.5070  1.1154
14665TIP3    H265411   6.579   4.760   3.595 -0.6807 -0.3576 -0.9076
14666TIP3   OH265412   3.085   4.212   1.466 -0.9008 -0.1819 -0.0469
14666TIP3    H165413   3.104   4.118   1.461 -1.5032 -0.3475  0.6944
14666TIP3    H265414   3.011   4.218   1.526 -1.0485  0.7472 -0.3188
14667TIP3   OH265415   4.632   3.215   2.285  0.0001 -0.8318  0.0120
14667TIP3    H165416   4.706   3.196   2.344  0.2027  2.0489  0.7904
14667TIP3    H265417   4.594   3.296   2.320 -2.2702 -1.1483 -1.5983
14668TIP3   OH265418   3.544   1.052   2.148 -0.1452  0.2758 -0.1048
14668TIP3    H165419   3.469   1.106   2.126 -2.1923 -2.0898  0.7834
14668TIP3    H265420   3.583   1.094   2.225 -0.3050  1.7490 -0.8294
14669TIP3   OH265421   5.667   5.945   1.053  0.8558 -0.2584  0.7739
14669TIP3    H165422   5.738   5.908   1.000 -0.3341 -1.9442  0.2933
14669TIP3    H265423   5.617   5.869   1.081 -0.8853  0.9189  0.9325
14670TIP3   OH265424   4.108   5.867   3.280 -0.1254 -0.0804  0.3545
14670TIP3    H165425   4.107   5.956   3.316  0.0845 -0.3844  1.1081
14670TIP3    H265426   4.067   5.813   3.347  0.9246 -0.7727  0.4489
14671TIP3   OH265427   3.294   1.877  15.740  0.1724 -0.0308 -0.5148
14671TIP3    H165428   3.293   1.953  15.798  1.0458  0.2635 -0.8740
14671TIP3    H265429   3.377   1.834  15.759  0.5883  0.2169 -1.7307
14672TIP3   OH265430   0.128   0.019  13.162 -0.2319 -0.2840  0.4366
14672TIP3    H165431   0.174   0.067  13.231  0.8879  0.4697 -0.8090
14672TIP3    H265432   0.041   0.061  13.159  0.0464  0.3288  0.7309
14673TIP3   OH265433   0.030   2.342   3.852  0.0983 -0.3536 -0.3441
14673TIP3    H165434   0.018   2.302   3.938 -0.2794 -0.0623 -0.2650
14673TIP3    H265435   0.097   2.288   3.810 -0.3352 -1.0126 -0.1936
14674TIP3   OH265436   5.198   0.788  11.373  0.1132  0.2292  0.0387
14674TIP3    H165437   5.159   0.802  11.287 -0.9069 -0.2751  0.4141
14674TIP3    H265438   5.180   0.868  11.422 -0.9730 -0.2347  0.4044
14675TIP3   OH265439   3.571   3.057   3.504  1.0512 -0.3096  0.1357
14675TIP3    H165440   3.660   3.066   3.470  1.4391  0.2479  1.2501
14675TIP3    H265441   3.519   3.121   3.456  1.0810 -1.1790 -1.0711
14676TIP3   OH265442   0.806   6.651  15.430 -0.0521 -0.7423 -0.2688
14676TIP3    H165443   0.754   6.633  15.508 -1.2729 -1.1542 -1.1561
14676TIP3    H265444   0.897   6.637  15.457 -0.3312  0.6853  1.5004
14677TIP3   OH265445   0.389   3.257  14.680  0.3551  0.2585 -0.3011
14677TIP3    H165446   0.321   3.233  14.743  0.9688  0.4366  0.4235
14677TIP3    H265447   0.386   3.353  14.676  0.4280  0.2563 -0.4317
14678TIP3   OH265448   6.715   0.794  12.609  0.5001 -0.3281  0.1581
14678TIP3    H165449   6.693   0.767  12.520 -0.4859 -1.4744  0.7439
14678TIP3    H265450   6.811   0.788  12.612  0.4461 -1.5772 -0.4048
14679TIP3   OH265451   2.254   6.179  16.687  0.2044  0.3955 -0.3903
14679TIP3    H165452   2.262   6.133  16.770 -1.8207 -1.1230 -1.0016
14679TIP3    H265453   2.216   6.264  16.710 -2.3282 -0.8192  0.0519
14680TIP3   OH265454   4.429   6.276   5.798 -0.0480  0.3955  0.0613
14680TIP3    H165455   4.430   6.371   5.786  0.5372  0.4141  0.2730
14680TIP3    H265456   4.510   6.257   5.844  0.2644 -0.3150 -0.7700
14681TIP3   OH265457   3.712   3.022   2.034 -0.2235  0.0683  0.4405
14681TIP3    H165458   3.639   3.044   1.977 -1.0466 -0.6126  1.2112
14681TIP3    H265459   3.678   2.953   2.092  1.3047 -0.9210  0.2002
14682TIP3   OH265460   4.894   3.183   2.438 -0.5449  0.5065 -0.0622
14682TIP3    H165461   4.914   3.260   2.492 -0.8886  0.2555  0.4251
14682TIP3    H265462   4.974   3.130   2.443 -0.2505  0.8969 -0.5215
14683TIP3   OH265463   4.335   6.437  14.888 -0.4255 -0.0334  0.1133
14683TIP3    H165464   4.308   6.370  14.824  1.6630  0.3327 -1.2036
14683TIP3    H265465   4.305   6.519  14.851  0.2954  0.1250 -0.1210
14684TIP3   OH265466   6.217   3.679  17.082 -0.2610 -0.3793  0.7649
14684TIP3    H165467   6.198   3.595  17.125 -1.1273 -0.7389 -0.3020
14684TIP3    H265468   6.144   3.736  17.108 -1.2722 -0.8699 -0.9358
14685TIP3   OH265469   3.572   3.200   1.197 -0.4393  0.2062 -0.1648
14685TIP3    H165470   3.571   3.171   1.288 -1.9441  0.8945  0.0584
14685TIP3    H265471   3.519   3.136   1.150  0.2286 -0.0780 -0.5496
14686TIP3   OH265472   1.583   4.317  11.569  0.4510  0.0539 -0.0333
14686TIP3    H165473   1.591   4.392  11.510 -0.9061  1.0137  0.9486
14686TIP3    H265474   1.648   4.334  11.637  0.2149  0.3044  0.1340
14687TIP3   OH265475   6.244   1.116  15.492  0.5720  0.0153  0.6316
14687TIP3    H165476   6.251   1.158  15.406  2.0428 -0.3185  0.5850
14687TIP3    H265477   6.150   1.120  15.512  0.0271 -1.0461 -1.5668
14688TIP3   OH265478   5.455   6.734   3.699  0.7108  0.7630 -0.5949
14688TIP3    H165479   5.412   6.720   3.783 -0.6951  1.3232 -1.1980
14688TIP3    H265480   5.478   6.827   3.698  0.7639  0.7492 -0.8073
14689TIP3   OH265481   5.890   0.075  15.800  0.3633  0.1694  0.1007
14689TIP3    H165482   5.821   0.035  15.747  0.1039 -0.1097  0.6451
14689TIP3    H265483   5.863   0.167  15.809  1.1583  0.5804 -1.4812
14690TIP3   OH265484   0.660   4.741   6.271 -0.4539  0.7553  1.4107
14690TIP3    H165485   0.716   4.766   6.198 -0.1379  0.1722  1.4487
14690TIP3    H265486   0.651   4.646   6.262 -1.5770  0.8629  1.2980
14691TIP3   OH265487   6.481   1.539  15.121 -0.4123  0.0422 -0.3936
14691TIP3    H165488   6.406   1.590  15.090  1.1361  2.6971  0.0579
14691TIP3    H265489   6.555   1.574  15.072  0.5180 -2.8045 -1.1051
14692TIP3   OH265490   3.933   6.345  12.757  0.3913 -0.2694  0.1061
14692TIP3    H165491   4.016   6.342  12.804  0.5072  0.9384  0.0160
14692TIP3    H265492   3.955   6.319  12.667  1.1198  2.1401 -0.4601
14693TIP3   OH265493   2.545   4.828   2.013 -0.0025  0.2994 -0.0000
14693TIP3    H165494   2.637   4.839   2.034  0.1086  0.7903 -0.7613
14693TIP3    H265495   2.500   4.834   2.098  0.6381  0.2755  0.3389
14694TIP3   OH265496   5.951   1.455  11.566 -0.9531  0.2753 -0.6084
14694TIP3    H165497   6.040   1.422  11.553 -1.2780  0.1680 -2.8084
14694TIP3    H265498   5.962   1.532  11.621  0.3942 -0.3282 -0.0119
14695TIP3   OH265499   6.741   3.657   2.894  0.7331 -0.3445  0.1165
14695TIP3    H165500   6.836   3.668   2.892  0.6080  0.6124 -1.4528
14695TIP3    H265501   6.712   3.681   2.806 -0.9299 -0.9835  0.4704
14696TIP3   OH265502   3.037   0.447   2.784  0.6798 -0.3541  0.0922
14696TIP3    H165503   2.951   0.466   2.747  0.3239  1.2307  1.6825
14696TIP3    H265504   3.093   0.431   2.708 -0.6912  0.0142 -1.0099
14697TIP3   OH265505   4.750   2.871  11.447 -0.2008 -0.1719  0.1979
14697TIP3    H165506   4.835   2.915  11.443  0.5295 -1.6937 -2.0236
14697TIP3    H265507   4.753   2.820  11.527  0.6599  0.4081  0.5413
14698TIP3   OH265508   6.429   3.335   4.248  0.3835  0.0329 -0.0401
14698TIP3    H165509   6.375   3.257   4.231  0.3405  0.0915 -0.1785
14698TIP3    H265510   6.366   3.407   4.254  0.4019  0.0172  0.3532
14699TIP3   OH265511   0.942   0.220  11.748 -0.0357 -0.1668 -0.1422
14699TIP3    H165512   0.880   0.193  11.680  0.2014  0.4470 -0.6209
14699TIP3    H265513   1.027   0.189  11.716  0.4310  2.2289 -1.3570
14700TIP3   OH265514   0.610   2.415  11.656  0.2445  0.0089  0.1321
14700TIP3    H165515   0.563   2.489  11.617 -0.1146  0.6968  1.8420
14700TIP3    H265516   0.657   2.452  11.730 -1.8094 -1.8489  2.4472
14701TIP3   OH265517   0.305   3.878   0.319 -0.1586 -0.1998 -0.3533
14701TIP3    H165518   0.255   3.956   0.345 -0.4324  0.0844 -1.6881
14701TIP3    H265519   0.373   3.912   0.260 -0.5664 -1.0204 -1.3110
14702TIP3   OH265520   1.407   0.631   1.155 -0.1284  0.2060 -0.5315
14702TIP3    H165521   1.443   0.568   1.092  1.3822  0.1554  0.3584
14702TIP3    H265522   1.376   0.578   1.228 -2.1888  0.2380 -1.3400
14703TIP3   OH265523   6.321   4.710  13.227 -0.4081 -0.1711  0.1842
14703TIP3    H165524   6.356   4.799  13.225 -0.9028  0.0424 -3.2649
14703TIP3    H265525   6.244   4.715  13.283  0.7865  1.0530  1.7580
14704TIP3   OH265526   0.513   2.941  16.291 -0.1662 -0.2876  0.1634
14704TIP3    H165527   0.422   2.963  16.270  0.3873  1.2267 -0.7334
14704TIP3    H265528   0.531   2.990  16.372  1.0618  2.7079 -1.8230
14705TIP3   OH265529   3.948   6.262   4.368  0.2705 -0.4438  0.1889
14705TIP3    H165530   4.033   6.279   4.408 -0.2727 -0.8191  1.5655
14705TIP3    H265531   3.935   6.333   4.306  0.2498  1.3404  2.1735
14706TIP3   OH265532   3.642   4.971  13.922  0.2715  0.3290 -0.2479
14706TIP3    H165533   3.651   5.015  13.838  0.3485  1.8463  0.5418
14706TIP3    H265534   3.552   4.939  13.923  0.2057  0.4960 -0.8040
14707TIP3   OH265535   0.103   6.265   0.175 -0.4337 -0.4879 -0.4549
14707TIP3    H165536   0.173   6.323   0.207 -1.1495  1.1525 -1.8222
14707TIP3    H265537   0.150   6.189   0.140  0.7218  0.6844 -1.5388
14708TIP3   OH265538   1.991   5.135   5.736 -0.2776  0.2794  0.3537
14708TIP3    H165539   2.034   5.217   5.758 -3.6546  1.8398  1.5464
14708TIP3    H265540   2.004   5.080   5.813  2.2404 -0.4805 -0.5630
14709TIP3   OH265541   5.694   4.776  12.473  0.1360  0.2288  0.6320
14709TIP3    H165542   5.759   4.755  12.406  0.8531 -0.9587  1.6666
14709TIP3    H265543   5.692   4.699  12.529 -0.9494  0.9359  1.5878
14710TIP3   OH265544   0.656   3.605   2.028 -0.1066 -0.1722 -0.2619
14710TIP3    H165545   0.577   3.610   2.083  0.2085 -0.2102  0.1931
14710TIP3    H265546   0.650   3.681   1.971 -0.1564  0.1723  0.2010
14711TIP3   OH265547   2.197   3.818   0.605  0.2337 -0.1125  0.0836
14711TIP3    H165548   2.238   3.839   0.521  0.8772 -0.0786  0.4059
14711TIP3    H265549   2.270   3.808   0.666 -0.1981 -0.7378  0.5049
14712TIP3   OH265550   4.645   3.758  12.486 -0.1527  0.4843  0.4570
14712TIP3    H165551   4.721   3.746  12.543 -1.2318 -0.2371  1.7839
14712TIP3    H265552   4.680   3.752  12.397  1.3371  0.1449  1.0504
14713TIP3   OH265553   3.839   4.699  12.247 -0.0239 -0.1519 -0.1400
14713TIP3    H165554   3.853   4.632  12.314 -0.3050 -2.0886 -1.9480
14713TIP3    H265555   3.893   4.773  12.274  1.2169 -1.5595  1.2924
14714TIP3   OH265556   2.681   0.559  16.105 -0.3831 -0.2315 -0.2718
14714TIP3    H165557   2.693   0.464  16.098 -0.8243 -0.3781  0.8196
14714TIP3    H265558   2.764   0.596  16.075  0.8946 -1.0640  2.0967
14715TIP3   OH265559   2.266   0.775   1.959 -0.2019 -0.5322  0.1280
14715TIP3    H165560   2.183   0.801   1.918  0.0327 -0.4758 -0.3164
14715TIP3    H265561   2.285   0.689   1.922  0.5786  0.0040 -0.7520
14716TIP3   OH265562   0.731   2.267   2.874  0.6133  0.1063  0.5045
14716TIP3    H165563   0.824   2.271   2.853  0.4676  0.1331 -0.1580
14716TIP3    H265564   0.725   2.200   2.942  1.0513 -0.2914  0.1563
14717TIP3   OH265565   5.496   3.226  11.839 -0.2156  0.2482  0.1177
14717TIP3    H165566   5.488   3.153  11.778 -1.5600  0.4006  0.0903
14717TIP3    H265567   5.505   3.303  11.784  0.4598  0.1754  0.1328
14718TIP3   OH265568   3.971   0.388  14.145  0.0006 -0.2038 -0.2955
14718TIP3    H165569   4.056   0.407  14.184 -0.7150 -0.4212  1.4135
14718TIP3    H265570   3.968   0.441  14.065  1.6499 -0.0555 -0.2634
14719TIP3   OH265571   2.132   4.122   0.062  0.1606  0.1444  0.6037
14719TIP3    H165572   2.179   4.170   0.131  1.2323 -2.4644  1.7659
14719TIP3    H265573   2.040   4.141   0.078  0.5684  2.2240  0.6811
14720TIP3   OH265574   5.048   0.650  12.004 -1.3665  0.0465  0.2942
14720TIP3    H165575   5.076   0.623  12.092  0.7103 -1.4430 -0.7789
14720TIP3    H265576   4.957   0.675  12.015 -1.1142 -0.0133  2.9073
14721TIP3   OH265577   3.266   4.483  14.202  0.0044 -0.3188  0.2106
14721TIP3    H165578   3.193   4.451  14.254  1.6757 -1.0150  2.1953
14721TIP3    H265579   3.261   4.435  14.120 -1.5974 -0.5421  0.4384
14722TIP3   OH265580   1.525   5.192   6.465 -0.1090 -0.5739  0.6807
14722TIP3    H165581   1.511   5.149   6.549 -0.2985  1.1451  1.5674
14722TIP3    H265582   1.445   5.175   6.416 -1.0640  0.4796  1.8178
14723TIP3   OH265583   2.545   5.311   1.166 -0.0208  0.3975  0.2260
14723TIP3    H165584   2.468   5.269   1.127 -0.2952  1.4768 -0.4005
14723TIP3    H265585   2.617   5.251   1.146 -0.3732  0.3230 -0.8585
14724TIP3   OH265586   4.162   3.088   4.297 -0.5870 -0.4079  0.1506
14724TIP3    H165587   4.222   3.158   4.271 -1.3648  0.2791  0.2181
14724TIP3    H265588   4.206   3.008   4.269  0.9442  0.0058  1.3018
14725TIP3   OH265589   1.847   6.126   5.394  0.4157 -0.1190 -0.6082
14725TIP3    H165590   1.882   6.168   5.472 -1.4094  1.2130 -0.4872
14725TIP3    H265591   1.843   6.033   5.417  2.9447 -0.2048 -0.3162
14726TIP3   OH265592   6.786   2.320  11.663 -0.1061  0.3395  0.3052
14726TIP3    H165593   6.877   2.332  11.634  0.0755 -0.2882  0.5986
14726TIP3    H265594   6.744   2.403  11.644  0.7219  0.8910  0.8559
14727TIP3   OH265595   2.108   2.341  17.097 -0.0465  0.3467  0.5520
14727TIP3    H165596   2.190   2.387  17.118  0.6753 -0.2114 -1.0151
14727TIP3    H265597   2.039   2.401  17.127  0.9182  1.2921  0.9043
14728TIP3   OH265598   4.625   1.571  15.504 -0.2755 -0.4385  0.1263
14728TIP3    H165599   4.648   1.492  15.455  0.5925 -0.7051  0.9364
14728TIP3    H265600   4.687   1.638  15.474 -1.4290  0.1184 -1.0316
14729TIP3   OH265601   5.722   5.150   3.499 -0.2914 -0.2255 -0.2185
14729TIP3    H165602   5.799   5.112   3.456  0.2261 -0.6736  1.0927
14729TIP3    H265603   5.655   5.151   3.431  0.4402 -1.1672 -0.9686
14730TIP3   OH265604   1.014   4.398  15.466  0.5119  0.1082  0.2445
14730TIP3    H165605   1.080   4.356  15.410 -1.6443  0.5286 -2.7983
14730TIP3    H265606   1.047   4.486  15.480  1.1175 -0.0058 -0.3951
14731TIP3   OH265607   3.288   6.421  13.039  0.2886 -0.7730 -0.1073
14731TIP3    H165608   3.222   6.369  13.086  0.0857 -1.2339 -0.8874
14731TIP3    H265609   3.237   6.484  12.988  0.4759 -0.6994 -0.2048
14732TIP3   OH265610   2.134   3.036  15.521  0.8794  0.6736 -0.0496
14732TIP3    H165611   2.146   3.065  15.612  1.8518  0.5643 -0.1297
14732TIP3    H265612   2.221   3.044  15.482  0.4599  0.7418 -0.9836
14733TIP3   OH265613   3.924   1.455  16.449  0.0636  0.1189  0.0144
14733TIP3    H165614   3.938   1.389  16.382 -1.9693 -0.2763 -0.0411
14733TIP3    H265615   4.010   1.467  16.489  0.4321 -2.6119  0.1047
14734TIP3   OH265616   5.714   4.187   0.738  0.3773  0.1370  0.4162
14734TIP3    H165617   5.710   4.230   0.824  0.3957  0.4958  0.2395
14734TIP3    H265618   5.636   4.131   0.736 -1.8747  3.1485 -0.9132
14735TIP3   OH265619   5.288   6.513   2.136 -0.1982  0.0973 -0.4470
14735TIP3    H165620   5.373   6.539   2.101 -0.6033  0.7864 -0.9506
14735TIP3    H265621   5.249   6.594   2.168 -2.3200  0.5553 -3.8581
14736TIP3   OH265622   3.428   2.000   0.313 -0.6735 -0.0463 -0.3156
14736TIP3    H165623   3.381   2.058   0.373 -1.3813  0.6354 -1.5144
14736TIP3    H265624   3.445   1.921   0.364 -1.1934  0.5626  0.8054
14737TIP3   OH265625   2.354   2.839  16.436  0.3502  0.6461  0.2305
14737TIP3    H165626   2.359   2.886  16.520  3.2083  1.3987 -0.3196
14737TIP3    H265627   2.331   2.750  16.460  1.1960  0.8444  1.8367
14738TIP3   OH265628   0.125   1.289  14.918 -0.1095  0.0837 -0.5396
14738TIP3    H165629   0.052   1.313  14.861 -1.2129 -0.1081  0.7745
14738TIP3    H265630   0.190   1.358  14.905 -1.9917  2.1873  0.9332
14739TIP3   OH265631   3.656   4.504   5.526  0.7061 -0.3979  0.0575
14739TIP3    H165632   3.656   4.409   5.515 -0.4042 -0.4683  0.5873
14739TIP3    H265633   3.571   4.532   5.492  1.2663  0.4791 -0.6484
14740TIP3   OH265634   5.976   4.039   3.261 -0.2911 -0.4759 -0.5942
14740TIP3    H165635   5.959   4.131   3.241 -0.1800 -0.6024 -1.2589
14740TIP3    H265636   6.071   4.029   3.252  0.2512  0.2827  3.3597
14741TIP3   OH265637   1.947   2.076  15.925  0.0317  0.3350  0.4385
14741TIP3    H165638   1.968   2.162  15.889  3.5832 -0.9009 -0.6852
14741TIP3    H265639   2.022   2.055  15.982  0.1198 -2.7638 -0.7160
14742TIP3   OH265640   2.745   6.472   3.906  0.1216  0.1560  0.2856
14742TIP3    H165641   2.685   6.519   3.964  0.2689  0.9828 -0.2316
14742TIP3    H265642   2.719   6.499   3.818  3.0164  2.6916  0.1424
14743TIP3   OH265643   1.717   4.754   4.274  0.9620  0.0995 -0.0027
14743TIP3    H165644   1.811   4.733   4.269  1.1228  0.9063 -0.3729
14743TIP3    H265645   1.697   4.746   4.367  1.3150 -0.4179  0.0364
14744TIP3   OH265646   1.113   6.198  13.561 -0.2495 -0.6852 -0.5895
14744TIP3    H165647   1.178   6.254  13.519  1.5313 -0.8692  1.8315
14744TIP3    H265648   1.063   6.257  13.616  1.0933 -1.3012  1.3299
14745TIP3   OH265649   3.280   4.819   4.904  0.2903  0.0286 -0.0702
14745TIP3    H165650   3.259   4.726   4.895  0.5940  0.0094 -0.6207
14745TIP3    H265651   3.203   4.857   4.946 -0.7825 -0.0750 -1.8800
14746TIP3   OH265652   4.093   3.369   3.947  0.0649 -0.4568  0.2589
14746TIP3    H165653   4.134   3.442   3.903 -0.6027  0.2449  0.7870
14746TIP3    H265654   4.079   3.399   4.037  0.1941 -1.3841  0.5983
14747TIP3   OH265655   5.573   5.227  10.794  0.3552  0.3570  0.6849
14747TIP3    H165656   5.499   5.170  10.773  0.2007 -0.0850  2.3327
14747TIP3    H265657   5.599   5.265  10.710 -0.0249 -1.5686 -0.3443
14748TIP3   OH265658   4.793   5.247  16.667 -0.5935  0.2719 -0.3018
14748TIP3    H165659   4.789   5.163  16.621  1.2899  0.1453 -0.2544
14748TIP3    H265660   4.875   5.287  16.639 -0.3453  1.0625  1.4703
14749TIP3   OH265661   4.427   1.141  16.397 -0.2509 -0.5928  0.2298
14749TIP3    H165662   4.502   1.189  16.433  1.9793 -2.0453 -2.3546
14749TIP3    H265663   4.406   1.076  16.464 -0.4531  1.0217  1.7768
14750TIP3   OH265664   0.997   5.166   5.643 -0.1419  0.0730 -0.3405
14750TIP3    H165665   0.913   5.126   5.620 -0.3561  0.2750  0.0728
14750TIP3    H265666   1.022   5.123   5.725 -0.8926  1.5061  0.6824
14751TIP3   OH265667   2.718   6.362  11.669  0.3316  0.7266 -0.0436
14751TIP3    H165668   2.664   6.439  11.650 -0.0219  0.6217  0.5188
14751TIP3    H265669   2.686   6.331  11.753  0.0985 -0.3682 -0.5322
14752TIP3   OH265670   6.183   1.658   1.585  0.4162 -0.1037 -0.8137
14752TIP3    H165671   6.206   1.579   1.635  0.9180  1.7541  1.9917
14752TIP3    H265672   6.266   1.702   1.569  0.1280 -0.0600 -2.2952
14753TIP3   OH265673   3.306   3.840   0.026  0.1651 -0.8465  0.1100
14753TIP3    H165674   3.349   3.766   0.068  0.8130 -0.6854 -0.2672
14753TIP3    H265675   3.335   3.836  -0.066  0.7091  0.2449  0.2287
14754TIP3   OH265676   5.175   2.002  10.754  0.1726  0.0364  0.3879
14754TIP3    H165677   5.113   2.073  10.770  0.2426 -0.0452  1.0471
14754TIP3    H265678   5.248   2.044  10.708  0.0813  0.3271  0.5089
14755TIP3   OH265679   4.855   4.328  15.562  0.6216  0.3635 -0.1897
14755TIP3    H165680   4.924   4.356  15.502  1.9807  0.5769  1.4035
14755TIP3    H265681   4.782   4.387  15.545  1.4582  1.2613 -0.7356
14756TIP3   OH265682   3.623   2.782   1.358  0.3112  0.3086  0.0978
14756TIP3    H165683   3.713   2.795   1.329 -0.2006  0.9697 -1.2179
14756TIP3    H265684   3.588   2.715   1.300 -0.9893  2.2633 -1.4387
14757TIP3   OH265685   0.825   3.058   6.412 -0.4267 -0.2336  0.7904
14757TIP3    H165686   0.786   3.074   6.497  1.3791  1.1848  1.3705
14757TIP3    H265687   0.764   2.999   6.368 -1.2747 -1.1204  3.1248
14758TIP3   OH265688   5.227   6.062  16.443  0.1086 -0.1852  0.2739
14758TIP3    H165689   5.270   6.031  16.523 -0.7723 -1.0128  0.4380
14758TIP3    H265690   5.141   6.092  16.472  0.4422  1.1691 -0.0974
14759TIP3   OH265691   6.497   6.689   2.277 -0.1866 -0.1047 -0.3547
14759TIP3    H165692   6.436   6.634   2.228 -1.1370  1.3194 -0.7925
14759TIP3    H265693   6.483   6.777   2.243  0.4565  0.6102  1.1729
14760TIP3   OH265694   2.625   5.957   4.900  0.3957  0.2237  0.0603
14760TIP3    H165695   2.537   5.993   4.899  0.0156 -0.4685  2.8659
14760TIP3    H265696   2.672   6.011   4.963  1.5363 -0.3823 -0.2477
14761TIP3   OH265697   5.555   3.193  14.087  0.1768 -0.3197  0.1150
14761TIP3    H165698   5.516   3.209  14.001  1.3272  0.3331 -0.2967
14761TIP3    H265699   5.556   3.279  14.129 -1.2565 -0.8042  1.1593
14762TIP3   OH265700   2.981   3.535  16.126 -0.1681 -0.0451  0.0849
14762TIP3    H165701   3.070   3.571  16.119  0.7366 -2.0073  0.8860
14762TIP3    H265702   2.929   3.587  16.066  1.8854  0.0742 -1.6670
14763TIP3   OH265703   4.864   6.012   3.196  0.0558  0.0925  0.2201
14763TIP3    H165704   4.817   5.974   3.270 -0.8269  1.8582  0.5971
14763TIP3    H265705   4.814   5.984   3.119 -1.6693  1.9516  0.6182
14764TIP3   OH265706   0.849   0.813  14.387  0.0492  0.2577 -0.2728
14764TIP3    H165707   0.892   0.860  14.316 -3.1067  3.2106 -0.3590
14764TIP3    H265708   0.854   0.873  14.462  1.0092 -1.7101  1.2955
14765TIP3   OH265709   6.402   6.503   5.082 -0.2723 -0.2696 -0.2277
14765TIP3    H165710   6.320   6.512   5.130 -1.1621 -2.2885 -1.3368
14765TIP3    H265711   6.377   6.464   4.998  1.9908 -2.4047  0.0412
14766TIP3   OH265712   6.641   3.732   2.666  0.5532  0.1063  0.5517
14766TIP3    H165713   6.656   3.823   2.642  0.4313 -0.2228 -0.8402
14766TIP3    H265714   6.546   3.721   2.659  0.7662 -0.6745 -1.4005
14767TIP3   OH265715   2.853   6.629  15.283 -0.0047 -0.4192 -0.7018
14767TIP3    H165716   2.839   6.566  15.212  1.2350 -0.8428 -0.5869
14767TIP3    H265717   2.827   6.713  15.246 -0.6335 -0.8322 -1.2144
14768TIP3   OH265718   4.152   3.485   5.264 -0.6602 -0.0991 -0.0203
14768TIP3    H165719   4.161   3.517   5.174  0.0023 -1.0504 -0.2956
14768TIP3    H265720   4.110   3.557   5.311 -0.2304  0.7250 -0.8967
14769TIP3   OH265721   0.041   3.453   3.220 -0.4984 -0.0186 -0.4796
14769TIP3    H165722   0.118   3.410   3.257 -2.5357 -2.5750  0.8851
14769TIP3    H265723   0.076   3.503   3.146  2.6405 -0.1358  0.8350
14770TIP3   OH265724   5.616   0.831   1.884 -0.0261  1.0669  0.4012
14770TIP3    H165725   5.541   0.826   1.944 -0.5196  1.2047 -0.1895
14770TIP3    H265726   5.631   0.741   1.856 -0.6841  1.1734 -0.3271
14771TIP3   OH265727   5.267   2.102   5.797  0.0888 -0.0625  0.0136
14771TIP3    H165728   5.298   2.133   5.882 -1.4682 -2.9772  1.7654
14771TIP3    H265729   5.345   2.066   5.754  0.3507 -1.5043  1.6376
14772TIP3   OH265730   2.939   2.922  11.772  0.2043 -0.0360 -0.6738
14772TIP3    H165731   2.894   2.895  11.852 -0.7211  0.7939 -0.9028
14772TIP3    H265732   3.015   2.972  11.802  1.2051 -1.7478 -0.2739
14773TIP3   OH265733   6.294   5.124   3.218 -0.8068  0.2053 -0.0717
14773TIP3    H165734   6.358   5.089   3.156 -1.2196  0.1540 -0.4680
14773TIP3    H265735   6.210   5.091   3.187 -0.9522 -0.3575  0.8788
14774TIP3   OH265736   4.099   6.291   3.138 -0.0482 -0.5380  0.4541
14774TIP3    H165737   4.149   6.252   3.066  1.6394  0.8757  0.8288
14774TIP3    H265738   4.130   6.381   3.143 -2.0157  0.1262  1.2884
14775TIP3   OH265739   3.615   6.201   1.932  0.0781  0.5413 -0.0734
14775TIP3    H165740   3.583   6.214   2.022  0.4879  2.9324 -0.2375
14775TIP3    H265741   3.549   6.241   1.877 -0.1017 -0.8090 -0.8534
14776TIP3   OH265742   1.749   2.878   2.048  0.7418 -0.4613  0.0641
14776TIP3    H165743   1.677   2.819   2.071  1.1630 -0.8713  0.3363
14776TIP3    H265744   1.824   2.820   2.031  1.0511 -0.0301 -0.0702
14777TIP3   OH265745   4.395   4.559   5.510  0.0565  0.0503 -0.6020
14777TIP3    H165746   4.321   4.610   5.476 -1.6731 -2.0898 -0.1439
14777TIP3    H265747   4.421   4.503   5.437  1.3701  0.9124 -0.8150
14778TIP3   OH265748   3.590   1.484  15.364 -0.1373 -0.2259 -0.3202
14778TIP3    H165749   3.498   1.507  15.354 -0.2740  1.0494  3.3309
14778TIP3    H265750   3.637   1.563  15.336 -0.2487  0.0856  0.3604
14779TIP3   OH265751   4.767   0.183  11.183 -0.6501 -0.2362 -0.5111
14779TIP3    H165752   4.863   0.190  11.180 -0.5223  0.2078  2.4149
14779TIP3    H265753   4.750   0.119  11.253 -2.4875  1.4577  0.6554
14780TIP3   OH265754   0.099   4.465   1.904 -0.5648  0.1322 -0.3489
14780TIP3    H165755   0.097   4.553   1.941 -1.4062 -1.0743  2.5742
14780TIP3    H265756   0.168   4.469   1.837 -0.2029  2.8342  0.1271
14781TIP3   OH265757   5.204   0.155   3.789 -0.5502 -0.7615  0.3311
14781TIP3    H165758   5.202   0.069   3.831  0.4243 -1.4300 -0.9458
14781TIP3    H265759   5.290   0.191   3.811 -1.1480  0.1024  1.2685
14782TIP3   OH265760   6.077   5.569   1.911  0.3104  0.5453 -0.5741
14782TIP3    H165761   6.045   5.628   1.843 -0.5910  1.1940  0.3956
14782TIP3    H265762   6.171   5.564   1.896  0.1758  1.0122 -1.6129
14783TIP3   OH265763   3.597   2.562  16.773 -0.4032 -0.2537  0.4869
14783TIP3    H165764   3.601   2.637  16.832  0.5564  1.4014 -1.5979
14783TIP3    H265765   3.687   2.532  16.766 -0.6223 -0.9066  0.4364
14784TIP3   OH265766   3.000   0.898  14.218 -0.2973  0.1705 -0.3859
14784TIP3    H165767   2.915   0.942  14.213 -0.2856  0.1104 -1.2458
14784TIP3    H265768   2.989   0.832  14.287 -0.0752  2.0103  1.4287
14785TIP3   OH265769   1.506   0.511   6.038 -0.0915  0.3541  0.1720
14785TIP3    H165770   1.460   0.529   5.956 -0.4130 -0.7296  0.1107
14785TIP3    H265771   1.443   0.463   6.092  0.7139 -0.5151  0.3554
14786TIP3   OH265772   3.592   6.596  12.086 -0.5219 -0.1166  0.2985
14786TIP3    H165773   3.528   6.655  12.127  1.6608  1.8655  0.9972
14786TIP3    H265774   3.611   6.637  12.002 -0.4828 -0.9361 -0.0946
14787TIP3   OH265775   6.532   0.676   4.722 -0.3052  0.5355 -0.0744
14787TIP3    H165776   6.517   0.723   4.640  2.6764  1.4164 -0.1874
14787TIP3    H265777   6.572   0.593   4.695 -0.7779  0.1467  0.4063
14788TIP3   OH265778   5.128   4.358  16.594  0.1535  0.0915  1.1965
14788TIP3    H165779   5.074   4.280  16.608  0.0489 -0.1864 -0.6100
14788TIP3    H265780   5.217   4.323  16.590 -0.0520 -0.2138 -1.4797
14789TIP3   OH265781   1.464   5.090   6.720 -0.2571  0.1696  0.1670
14789TIP3    H165782   1.550   5.071   6.760  0.0552  0.9077 -0.1544
14789TIP3    H265783   1.403   5.035   6.769  0.3122  0.1012  0.8095
14790TIP3   OH265784   4.575   6.388  15.012  0.0977 -0.0457 -0.4028
14790TIP3    H165785   4.645   6.381  14.947 -0.3376  1.2634 -1.0357
14790TIP3    H265786   4.496   6.406  14.960 -0.6621 -1.1955  0.3262
14791TIP3   OH265787   5.212   2.679  12.012 -0.0477  0.2575 -0.3307
14791TIP3    H165788   5.250   2.592  12.005  1.0138  0.7782 -1.2614
14791TIP3    H265789   5.202   2.694  12.106 -0.4223 -0.9464 -0.1808
14792TIP3   OH265790   5.307   1.852  12.573 -0.6625  0.0386  0.0395
14792TIP3    H165791   5.365   1.915  12.530  0.4928 -0.0447  1.4271
14792TIP3    H265792   5.223   1.863  12.530  0.1696  0.7724 -1.4403
14793TIP3   OH265793   5.322   3.914  16.247  0.1264  0.1062  0.3235
14793TIP3    H165794   5.404   3.945  16.284 -0.6029  1.8660  0.5515
14793TIP3    H265795   5.328   3.819  16.250  1.0606  0.2039  2.7703
14794TIP3   OH265796   2.960   2.361  11.352  0.5748  0.0005  0.0918
14794TIP3    H165797   3.015   2.350  11.275  0.2036  0.7715 -0.2886
14794TIP3    H265798   2.939   2.454  11.354 -2.6378 -0.6423 -1.1151
14795TIP3   OH265799   2.236   4.923   3.155 -0.6831  0.3779  0.5250
14795TIP3    H165800   2.305   4.961   3.211  1.8285 -1.1744 -1.3889
14795TIP3    H265801   2.222   4.988   3.086  0.1627 -0.0614 -0.0697
14796TIP3   OH265802   2.550   0.612   2.628  0.0624  0.7027 -0.5070
14796TIP3    H165803   2.582   0.702   2.640 -0.0231  0.7271 -0.4596
14796TIP3    H265804   2.553   0.598   2.533 -0.3752  0.9234 -0.5559
14797TIP3   OH265805   0.151   2.927   3.253  0.1079 -0.0062 -0.0942
14797TIP3    H165806   0.216   2.943   3.321  0.7786 -0.3979 -0.6366
14797TIP3    H265807   0.178   2.844   3.214  0.7742  1.1120 -2.0525
14798TIP3   OH265808   1.724   0.085  17.001 -0.3602  0.2053  0.7143
14798TIP3    H165809   1.816   0.111  16.993 -0.1067 -1.1061 -1.0626
14798TIP3    H265810   1.676   0.156  16.958 -0.2910  1.3508  2.4510
14799TIP3   OH265811   2.216   2.038  13.024 -0.4003 -0.5744 -0.8645
14799TIP3    H165812   2.148   1.996  13.078 -0.2862 -1.3126 -1.2980
14799TIP3    H265813   2.177   2.121  12.998 -0.9383 -0.7606 -0.6698
14800TIP3   OH265814   5.894   0.491   4.620  0.4494 -0.2301 -0.3018
14800TIP3    H165815   5.813   0.517   4.664  1.5798 -0.2039  1.8001
14800TIP3    H265816   5.919   0.568   4.568 -0.5374 -0.0361 -0.5012
14801TIP3   OH265817   6.360   0.727  14.278  0.0606  0.5009 -0.0703
14801TIP3    H165818   6.345   0.806  14.329 -0.3162 -0.0518  0.6895
14801TIP3    H265819   6.417   0.755  14.206  0.5506  1.3038  0.6205
14802TIP3   OH265820   4.025   1.081   3.432 -0.0472  0.1781 -0.3278
14802TIP3    H165821   3.947   1.136   3.438 -0.2270 -0.1437  0.3147
14802TIP3    H265822   4.048   1.083   3.339 -2.6188 -2.1610 -1.1071
14803TIP3   OH265823   5.130   3.375   3.992  0.2878  0.1757 -0.0891
14803TIP3    H165824   5.044   3.335   4.005  0.0220  1.1531  1.2265
14803TIP3    H265825   5.174   3.317   3.929 -1.0768 -0.6949 -0.2585
14804TIP3   OH265826   2.205   6.448   0.818 -0.4941 -0.4389 -0.2095
14804TIP3    H165827   2.197   6.459   0.913 -2.4570  0.6280 -0.4597
14804TIP3    H265828   2.260   6.521   0.790  1.5560 -1.7444  0.2798
14805TIP3   OH265829   4.411   2.243   3.943 -0.4284  0.4638 -0.2040
14805TIP3    H165830   4.394   2.242   4.037 -0.3193  1.0632 -0.1726
14805TIP3    H265831   4.363   2.319   3.911  1.1654  1.4652 -0.3022
14806TIP3   OH265832   3.922   0.479   4.624 -0.2449 -0.5321  0.2765
14806TIP3    H165833   3.984   0.417   4.584  0.2568 -0.8974  1.5842
14806TIP3    H265834   3.847   0.479   4.565  0.7828 -0.4956 -1.0543
14807TIP3   OH265835   3.517   0.830   5.725  0.2451 -0.3367  0.3831
14807TIP3    H165836   3.556   0.748   5.694  0.6213  0.3635 -1.0533
14807TIP3    H265837   3.427   0.826   5.693  0.8278  0.6999 -1.4581
14808TIP3   OH265838   6.197   2.914   0.101  0.0677 -0.2702  0.5321
14808TIP3    H165839   6.221   2.830   0.139 -0.0054  0.0158  1.2111
14808TIP3    H265840   6.104   2.924   0.122  0.3623  0.5258  1.4782
14809TIP3   OH265841   6.231   3.895  12.919  0.1700 -0.1764 -0.1914
14809TIP3    H165842   6.173   3.841  12.866 -0.0551 -0.2279  0.1028
14809TIP3    H265843   6.187   3.980  12.926 -0.6813 -0.7227  1.4068
14810TIP3   OH265844   2.974   2.613  11.167  0.2490  0.3582  0.4283
14810TIP3    H165845   3.001   2.579  11.081  0.0165 -0.1948  0.5741
14810TIP3    H265846   3.021   2.696  11.175  2.5970 -1.0025  1.0487
14811TIP3   OH265847   4.497   1.956   4.473 -0.7298  0.3234 -0.1100
14811TIP3    H165848   4.563   2.005   4.425 -2.0416 -0.6340 -2.9998
14811TIP3    H265849   4.545   1.888   4.518  0.3505  0.1450 -1.5192
14812TIP3   OH265850   0.552   2.931   5.547  0.0620  0.0238  0.0387
14812TIP3    H165851   0.485   2.866   5.526 -0.6456  1.6055 -2.8402
14812TIP3    H265852   0.571   2.916   5.639 -3.6722 -1.0371  0.7432
14813TIP3   OH265853   5.194   5.926  15.599 -0.1914  0.5650 -0.1214
14813TIP3    H165854   5.156   5.839  15.610 -1.4395  0.9538 -1.2358
14813TIP3    H265855   5.254   5.917  15.526  1.7347  0.0127  1.4801
14814TIP3   OH265856   0.467   4.980  15.199  0.4628 -0.1324 -0.2951
14814TIP3    H165857   0.481   4.888  15.179  0.4720 -0.6574  1.9857
14814TIP3    H265858   0.372   4.989  15.207  0.4991 -0.0892  0.1087
14815TIP3   OH265859   3.010   3.218   1.905 -0.5705 -0.1240 -0.4794
14815TIP3    H165860   3.020   3.123   1.908 -0.0675 -0.1179 -1.9157
14815TIP3    H265861   3.092   3.252   1.941 -0.6328 -0.2204 -0.2432
14816TIP3   OH265862   5.696   5.245   1.296 -0.0508 -0.7249 -0.0774
14816TIP3    H165863   5.717   5.226   1.388 -1.5175 -0.2939  0.3571
14816TIP3    H265864   5.711   5.339   1.287 -0.4182 -0.6741 -0.1462
14817TIP3   OH265865   3.309   1.326  10.644  0.2140 -0.0326 -0.0171
14817TIP3    H165866   3.215   1.310  10.639  0.5874 -2.0919 -1.0242
14817TIP3    H265867   3.347   1.263  10.582  2.0156  2.8969 -2.0092
14818TIP3   OH265868   1.412   4.023   4.065 -0.1180  0.2289 -0.5034
14818TIP3    H165869   1.368   4.107   4.051  0.6439  0.6902 -0.2003
14818TIP3    H265870   1.420   3.986   3.977  0.0705  0.7557 -0.7140
14819TIP3   OH265871   2.268   0.551  15.850  0.1139  0.4514  0.3565
14819TIP3    H165872   2.297   0.555  15.759 -0.9623 -0.6418 -0.0443
14819TIP3    H265873   2.349   0.545  15.901  0.6572 -1.3204 -0.6700
14820TIP3   OH265874   2.979   4.511   1.539  0.5268 -1.0751 -0.5681
14820TIP3    H165875   2.962   4.483   1.449  0.3910  0.1314 -0.9297
14820TIP3    H265876   3.014   4.600   1.531 -2.3268  0.2347  0.6971
14821TIP3   OH265877   5.062   0.902   2.687 -0.7136 -0.1552  0.4229
14821TIP3    H165878   5.130   0.892   2.621 -0.5574  1.1034  0.3887
14821TIP3    H265879   5.052   0.814   2.725  1.3685 -0.2296  0.8734
14822TIP3   OH265880   2.666   6.324  15.476  0.1704  0.1728  0.0255
14822TIP3    H165881   2.687   6.339  15.384 -0.0959 -0.1015 -0.0788
14822TIP3    H265882   2.582   6.279  15.475  1.8131 -2.9994  0.2737
14823TIP3   OH265883   2.457   2.953  12.820  0.0736  0.3108 -0.3113
14823TIP3    H165884   2.433   2.861  12.829 -1.1685  0.4056 -2.3747
14823TIP3    H265885   2.446   2.989  12.908 -0.4119 -1.2719  0.3008
14824TIP3   OH265886   3.262   4.494  16.561 -0.3378 -0.2236 -0.2282
14824TIP3    H165887   3.250   4.546  16.482 -0.9836  1.7060  1.1169
14824TIP3    H265888   3.357   4.484  16.569 -0.2374  0.2186 -0.8354
14825TIP3   OH265889   3.916   5.224   0.666  0.1278 -0.1371 -0.3293
14825TIP3    H165890   3.923   5.162   0.738  0.1584  0.3352  0.0795
14825TIP3    H265891   3.963   5.184   0.594  0.3383 -0.4838  0.0030
14826TIP3   OH265892   4.014   6.186  14.231  0.3028  0.3600  0.1780
14826TIP3    H165893   4.096   6.228  14.259  0.2598 -0.1949  1.1554
14826TIP3    H265894   3.986   6.136  14.307 -0.2470 -0.5384 -0.6164
14827TIP3   OH265895   6.713   5.361   3.883 -0.0523 -0.2223 -0.1883
14827TIP3    H165896   6.706   5.426   3.953 -1.0943  0.3580 -0.8092
14827TIP3    H265897   6.627   5.363   3.840  0.4890 -0.7382 -1.3288
14828TIP3   OH265898   4.056   4.376  16.635  0.1491 -0.1754 -0.3518
14828TIP3    H165899   4.140   4.355  16.675 -0.3494 -0.1875  0.7101
14828TIP3    H265900   4.009   4.293  16.632 -0.3452  0.0754  0.3171
14829TIP3   OH265901   1.047   5.079  16.447 -0.1252  0.0308 -0.4853
14829TIP3    H165902   0.961   5.093  16.486 -0.8759 -1.0153 -1.7128
14829TIP3    H265903   1.099   5.039  16.517 -0.8322  0.0865  0.0780
14830TIP3   OH265904   2.189   5.686  11.926 -0.3375 -0.2035 -0.8461
14830TIP3    H165905   2.112   5.634  11.946  0.4791 -1.1861 -0.2277
14830TIP3    H265906   2.260   5.644  11.975  0.5364  0.8487 -1.1881
14831TIP3   OH265907   2.769   4.533   3.754 -0.4260 -0.9019 -0.2104
14831TIP3    H165908   2.689   4.517   3.804 -0.6248 -1.1866 -0.6143
14831TIP3    H265909   2.806   4.612   3.792 -0.3105 -1.3952  0.7174
14832TIP3   OH265910   3.203   3.744  13.186 -0.2101  0.2836 -0.5376
14832TIP3    H165911   3.257   3.745  13.265 -0.2432  1.5313 -0.5205
14832TIP3    H265912   3.123   3.697  13.212  0.5918 -1.0403 -0.3984
14833TIP3   OH265913   6.018   4.606   0.800  0.2946  0.1852 -0.2859
14833TIP3    H165914   6.051   4.643   0.881 -3.1377  1.6071  0.5219
14833TIP3    H265915   6.074   4.530   0.784  2.0338  0.8072  2.5322
14834TIP3   OH265916   1.581   0.581   3.951  0.7855 -0.4689  0.6123
14834TIP3    H165917   1.510   0.518   3.954 -1.5672  2.1714  2.4799
14834TIP3    H265918   1.632   0.564   4.030  2.6555 -2.7382 -1.0131
14835TIP3   OH265919   1.079   5.904  11.780 -0.1104  0.5826 -0.3177
14835TIP3    H165920   1.039   5.982  11.818  0.7613  0.3770  1.0418
14835TIP3    H265921   1.009   5.839  11.777 -0.3662  0.8385  0.2421
14836TIP3   OH265922   4.185   2.272  10.984 -0.0739  0.6224 -0.2649
14836TIP3    H165923   4.091   2.264  10.965 -0.0316 -0.8313  0.0437
14836TIP3    H265924   4.217   2.182  10.983  0.5570  0.7467  3.5453
14837TIP3   OH265925   6.735   3.787  11.425  0.1805  0.1872 -0.2847
14837TIP3    H165926   6.646   3.822  11.434 -0.5794 -1.6754 -0.3893
14837TIP3    H265927   6.761   3.811  11.336 -0.2411  0.6842 -0.2745
14838TIP3   OH265928   3.921   0.413   5.662  0.2657  0.1640  0.1763
14838TIP3    H165929   3.872   0.460   5.595 -0.5206 -0.7816  0.0788
14838TIP3    H265930   4.012   0.435   5.645 -0.0280  0.9527 -0.4058
14839TIP3   OH265931   1.315   4.565  13.234  0.3710 -0.5239  0.4622
14839TIP3    H165932   1.325   4.655  13.204 -0.4078 -0.2464  1.0299
14839TIP3    H265933   1.273   4.519  13.161 -1.2738  0.0855  1.0094
14840TIP3   OH265934   5.083   1.178  11.694 -0.1234 -0.0350 -0.5626
14840TIP3    H165935   5.015   1.111  11.700  0.9117 -1.0032  0.9169
14840TIP3    H265936   5.053   1.248  11.751 -1.6395  1.1903 -2.8117
14841TIP3   OH265937   5.710   3.334  12.395 -0.1000  0.3956 -0.1217
14841TIP3    H165938   5.752   3.420  12.403  0.0158  0.3546 -0.2800
14841TIP3    H265939   5.775   3.272  12.429 -0.8222  0.5328  1.5162
14842TIP3   OH265940   0.941   4.081  13.717 -0.0209 -0.3404  0.2603
14842TIP3    H165941   0.923   4.058  13.808  1.5488 -0.1266  0.6447
14842TIP3    H265942   1.034   4.061  13.706 -0.3325 -0.8825 -1.4600
14843TIP3   OH265943   5.644   0.608  16.434  0.1025  0.2722 -0.5190
14843TIP3    H165944   5.650   0.539  16.499  1.1706  1.2602  0.4673
14843TIP3    H265945   5.551   0.629  16.429 -0.2293 -1.3024 -0.9014
14844TIP3   OH265946   1.868   5.723  12.063 -0.1172  0.7430 -0.3474
14844TIP3    H165947   1.799   5.762  12.009  0.2238  1.7106 -0.0922
14844TIP3    H265948   1.876   5.782  12.137  0.7670  0.4565 -0.2149
14845TIP3   OH265949   3.357   1.282   0.889 -0.1045 -0.2358 -0.3815
14845TIP3    H165950   3.307   1.246   0.815  0.0835 -0.8063 -0.2389
14845TIP3    H265951   3.405   1.356   0.852 -0.9609  0.2357 -0.5455
14846TIP3   OH265952   6.122   1.900   0.344  0.2517  0.3995 -0.3632
14846TIP3    H165953   6.217   1.890   0.344  0.5115  2.4299  0.7291
14846TIP3    H265954   6.108   1.995   0.350 -1.8400  0.1746 -1.1457
14847TIP3   OH265955   3.283   6.751   5.712  0.1091  0.0037  0.4043
14847TIP3    H165956   3.325   6.675   5.752 -0.0023 -0.9053 -1.1293
14847TIP3    H265957   3.248   6.801   5.785 -1.4666 -2.4090  1.3686
14848TIP3   OH265958   2.764   0.812  11.876 -0.6207  0.2723 -0.3926
14848TIP3    H165959   2.846   0.788  11.832 -0.6116  0.4986 -0.5052
14848TIP3    H265960   2.754   0.748  11.946  0.6457  1.3806  0.8324
14849TIP3   OH265961   4.341   5.475  16.208 -0.3767 -0.3246  0.8190
14849TIP3    H165962   4.250   5.488  16.181 -0.1580  0.3135  0.3902
14849TIP3    H265963   4.344   5.385  16.239 -0.5323 -1.2130 -1.6680
14850TIP3   OH265964   4.574   0.408  10.917 -0.0270 -0.4223  0.7612
14850TIP3    H165965   4.524   0.411  10.999 -0.6349 -0.7192  0.4033
14850TIP3    H265966   4.665   0.424  10.944 -0.1858 -0.7675  1.5232
14851TIP3   OH265967   0.105   1.516   0.001  0.7717  0.4854  0.3630
14851TIP3    H165968   0.112   1.433   0.046 -2.1070  0.0484  0.1210
14851TIP3    H265969   0.154   1.504  -0.080 -0.1895 -1.2155  0.0178
14852TIP3   OH265970   6.643   4.444   3.861 -0.0651  0.0918  0.8009
14852TIP3    H165971   6.583   4.494   3.916  0.9833  2.4411 -0.1479
14852TIP3    H265972   6.587   4.410   3.791 -1.1916 -1.9679  2.6112
14853TIP3   OH265973   1.459   2.863   4.538 -0.5661  1.0963  0.3503
14853TIP3    H165974   1.511   2.899   4.611  0.4383 -0.5136  0.4551
14853TIP3    H265975   1.388   2.814   4.581  0.9607 -1.2277  0.3229
14854TIP3   OH265976   2.134   2.700  12.533 -0.2972 -0.0788  0.2131
14854TIP3    H165977   2.091   2.770  12.484  0.0617 -1.1360 -1.6340
14854TIP3    H265978   2.188   2.654  12.469  1.6965 -0.3121  1.9802
14855TIP3   OH265979   5.250   5.185  16.338  0.5655 -0.1118 -0.3782
14855TIP3    H165980   5.186   5.134  16.387 -0.2427 -1.2202 -2.5070
14855TIP3    H265981   5.235   5.276  16.365  1.5543 -0.8548  2.9280
14856TIP3   OH265982   3.585   2.585   2.395  0.4530 -0.4954 -0.1083
14856TIP3    H165983   3.629   2.515   2.444  0.4875 -1.1640 -1.0777
14856TIP3    H265984   3.492   2.561   2.397  0.0742  0.9875  2.0548
14857TIP3   OH265985   1.121   5.400  11.508  0.7078 -0.0232  0.0825
14857TIP3    H165986   1.208   5.395  11.469  0.3492 -1.0784 -0.6080
14857TIP3    H265987   1.074   5.324  11.472 -0.4926  0.5327  0.4483
14858TIP3   OH265988   4.781   4.409   2.432  0.4645 -0.7434 -0.2069
14858TIP3    H165989   4.733   4.327   2.443 -1.3991  0.4630  0.7233
14858TIP3    H265990   4.872   4.386   2.451  0.1694 -2.8730 -1.2621
14859TIP3   OH265991   0.895   5.928  14.758  0.2363  0.4201  0.0760
14859TIP3    H165992   0.861   6.003  14.709  1.9812  0.7977 -0.5613
14859TIP3    H265993   0.816   5.885  14.792 -1.0422  0.0498 -3.1696
14860TIP3   OH265994   3.848   2.766   4.804  0.0241  0.2195  0.0465
14860TIP3    H165995   3.780   2.786   4.868 -0.2892 -0.7866  0.0352
14860TIP3    H265996   3.897   2.693   4.843 -2.2858 -2.7394 -2.3413
14861TIP3   OH265997   4.008   1.841  10.910  0.9181  0.3842 -0.0789
14861TIP3    H165998   3.949   1.911  10.881  0.7351  0.0091 -0.6215
14861TIP3    H265999   3.949   1.774  10.946  1.0578  0.2731 -0.0586
14862TIP3   OH266000   1.591   6.549  15.648 -0.2534 -0.3189  0.1984
14862TIP3    H166001   1.583   6.550  15.552  0.0323 -0.1989  0.1738
14862TIP3    H266002   1.525   6.486  15.677 -2.1416  1.5709  0.0986
14863TIP3   OH266003   1.730   2.215  14.641  0.1868 -0.7973 -0.3931
14863TIP3    H166004   1.667   2.235  14.711 -0.5796  0.0110 -1.2921
14863TIP3    H266005   1.734   2.120  14.638  0.6506 -0.8365  1.1246
14864TIP3   OH266006   6.205   1.697   0.096  0.2162 -0.2679  0.4141
14864TIP3    H166007   6.174   1.785   0.117 -1.8625 -1.0950  0.8420
14864TIP3    H266008   6.214   1.697   0.001 -0.5862  0.1265  0.3393
14865TIP3   OH266009   3.920   0.858   3.887 -0.3374 -0.3044  0.4008
14865TIP3    H166010   3.875   0.887   3.808 -0.6309  1.2837  1.1387
14865TIP3    H266011   3.872   0.779   3.913  1.4565 -2.4468 -2.4979
14866TIP3   OH266012   4.437   5.224  16.774  0.5867  0.1920  0.0250
14866TIP3    H166013   4.425   5.168  16.697 -0.0156  0.8949 -0.3993
14866TIP3    H266014   4.467   5.165  16.843 -1.2775 -0.8720 -0.0632
14867TIP3   OH266015   0.432   4.233   2.329 -0.6361  0.5148 -0.6197
14867TIP3    H166016   0.491   4.164   2.359 -1.2260 -0.1261 -0.9296
14867TIP3    H266017   0.489   4.308   2.313 -0.0481  0.2460  0.1573
14868TIP3   OH266018   2.854   5.438  14.104 -0.2089 -0.0309  0.1955
14868TIP3    H166019   2.853   5.344  14.119  1.8571  0.3087  2.7524
14868TIP3    H266020   2.814   5.475  14.182  0.8902  1.3170  0.1427
14869TIP3   OH266021   6.254   4.483  13.413  0.0228 -0.6627  0.2798
14869TIP3    H166022   6.301   4.542  13.353 -1.4174  1.3054  1.0167
14869TIP3    H266023   6.165   4.479  13.376 -0.8086  0.3763  2.1140
14870TIP3   OH266024   3.679   2.911  16.446  0.1387 -0.0776  0.7651
14870TIP3    H166025   3.658   2.996  16.407  2.7553  0.4132  0.2803
14870TIP3    H266026   3.769   2.922  16.479  0.9602 -3.0076 -0.3631
14871TIP3   OH266027   6.234   0.083   3.621  0.4668  0.5152 -0.0458
14871TIP3    H166028   6.197   0.140   3.553  1.6620  0.2087 -0.9796
14871TIP3    H266029   6.229  -0.005   3.584  3.4992  0.6301 -0.8749
14872TIP3   OH266030   1.075   6.174  11.211  0.5859 -0.4322 -0.1230
14872TIP3    H166031   1.133   6.248  11.231 -0.6210  0.7912 -1.0194
14872TIP3    H266032   1.132   6.109  11.169  1.3253  0.7213 -0.9273
14873TIP3   OH266033   2.711   0.815  11.307 -0.5156 -0.6652 -0.2613
14873TIP3    H166034   2.700   0.855  11.220  2.4106  1.2370  0.1962
14873TIP3    H266035   2.772   0.743  11.292 -0.0178 -0.3407  0.2301
14874TIP3   OH266036   2.684   2.986   2.048 -0.1238  0.1332  0.4312
14874TIP3    H166037   2.701   2.963   1.957 -0.3463  1.4808  0.0420
14874TIP3    H266038   2.739   2.926   2.099  0.3435 -0.3211 -0.6028
14875TIP3   OH266039   2.194   1.205  12.910 -0.4080  0.0442 -0.4635
14875TIP3    H166040   2.129   1.163  12.855 -0.1795 -1.6960  0.5708
14875TIP3    H266041   2.274   1.155  12.895  0.5714  1.8300 -1.3169
14876TIP3   OH266042   5.074   4.715   2.474 -0.2724  0.8687 -0.4309
14876TIP3    H166043   5.116   4.659   2.410  1.4547  0.0942  1.3112
14876TIP3    H266044   5.038   4.788   2.423 -0.9105 -0.8583 -2.4929
14877TIP3   OH266045   2.446   4.674  11.661 -0.3721 -0.0739 -0.2664
14877TIP3    H166046   2.516   4.690  11.723 -0.0856 -0.9213 -0.3722
14877TIP3    H266047   2.398   4.599  11.696 -0.6337 -0.1180 -0.7010
14878TIP3   OH266048   3.372   3.662   5.376 -0.0838 -0.4289 -0.2173
14878TIP3    H166049   3.325   3.740   5.405 -0.8366 -0.8120 -0.3806
14878TIP3    H266050   3.368   3.666   5.280  3.6112  1.5656 -0.3668
14879TIP3   OH266051   0.675   0.048  10.514 -0.3652  0.1418 -0.1595
14879TIP3    H166052   0.763   0.028  10.546 -0.2110  2.4787  0.9514
14879TIP3    H266053   0.629  -0.036  10.518  1.3427 -0.7866  0.7192
14880TIP3   OH266054   2.896   4.465   1.264  0.6054 -0.1775  0.0596
14880TIP3    H166055   2.862   4.498   1.180 -1.9123  1.2353  1.5724
14880TIP3    H266056   2.847   4.385   1.279  0.5543 -0.0576  0.5171
14881TIP3   OH266057   5.526   4.448   4.502  0.3589  0.2903  0.1766
14881TIP3    H166058   5.577   4.410   4.431 -2.2483 -1.5136 -0.8143
14881TIP3    H266059   5.549   4.395   4.579 -0.8773 -1.3297 -0.5322
14882TIP3   OH266060   2.647   6.201   1.995  0.0530  0.0462 -0.4828
14882TIP3    H166061   2.706   6.224   1.924  0.5703  1.2825  0.3353
14882TIP3    H266062   2.657   6.106   2.005  0.4643 -0.0332 -1.6063
14883TIP3   OH266063   6.680   2.714  12.171  0.1391 -0.1311  0.1295
14883TIP3    H166064   6.696   2.675  12.257 -0.5026  2.0003  1.2552
14883TIP3    H266065   6.589   2.693  12.152  0.5152 -1.2905 -0.3987
14884TIP3   OH266066   5.603   0.424   3.892  0.3461  0.4479 -0.4426
14884TIP3    H166067   5.678   0.484   3.894  0.7886 -0.1137  0.8247
14884TIP3    H266068   5.527   0.480   3.903  0.6120  0.9916 -1.3486
14885TIP3   OH266069   5.206   6.667   0.238 -0.9889  0.7737  0.0782
14885TIP3    H166070   5.188   6.595   0.298  1.6303 -0.1056 -0.1258
14885TIP3    H266071   5.162   6.742   0.277 -0.2184 -0.0099  2.5514
14886TIP3   OH266072   1.330   0.481  11.620  0.3997 -0.1948  0.3390
14886TIP3    H166073   1.380   0.537  11.561  0.8701 -1.1616 -0.1960
14886TIP3    H266074   1.373   0.396  11.613 -0.6933 -0.7732  0.6605
14887TIP3   OH266075   2.516   0.943   1.238  0.0759  1.0691 -0.5499
14887TIP3    H166076   2.512   0.893   1.320  0.7841  1.6403 -0.1596
14887TIP3    H266077   2.454   0.898   1.180 -0.0622  0.3562  0.1297
14888TIP3   OH266078   1.150   3.285   0.976  0.1154  0.1122 -0.4080
14888TIP3    H166079   1.074   3.343   0.984  0.5568  0.4382  1.4200
14888TIP3    H266080   1.219   3.327   1.026  1.3816 -0.4347 -1.6626
14889TIP3   OH266081   1.966   2.035  11.207 -0.7286 -0.4161 -0.2619
14889TIP3    H166082   2.007   2.070  11.128 -0.9332 -1.1643 -0.7005
14889TIP3    H266083   1.946   1.944  11.186 -0.3575 -0.7580  0.8081
14890TIP3   OH266084   4.153   6.175  12.800  0.0040  0.5046 -0.0156
14890TIP3    H166085   4.226   6.218  12.755 -1.4350  2.2629 -0.7338
14890TIP3    H266086   4.128   6.103  12.741  2.4706 -1.4254  1.2298
14891TIP3   OH266087   3.278   2.539  10.631  0.0879  0.0383 -0.4496
14891TIP3    H166088   3.350   2.512  10.688  1.8851  1.2659 -2.0494
14891TIP3    H266089   3.264   2.632  10.651 -0.1338  0.1471 -1.0911
14892TIP3   OH266090   0.315   2.424  14.792 -0.7031 -0.0975 -0.3460
14892TIP3    H166091   0.248   2.490  14.776 -0.1431  0.7428  0.7261
14892TIP3    H266092   0.272   2.341  14.774 -1.4508  0.5435 -1.6087
14893TIP3   OH266093   6.079   1.915   2.065  0.6331 -0.1068 -0.2202
14893TIP3    H166094   6.050   1.833   2.024  1.4271 -0.5289  0.0559
14893TIP3    H266095   6.065   1.982   1.998 -0.3965 -0.4049 -0.3076
14894TIP3   OH266096   4.906   0.467   0.730  0.7444  0.6842 -0.4521
14894TIP3    H166097   4.902   0.461   0.635 -0.0286  2.3808 -0.5468
14894TIP3    H266098   4.815   0.461   0.758  0.8810  1.1225  0.1032
14895TIP3   OH266099   0.184   5.204  16.861  0.1866  0.5856 -0.3527
14895TIP3    H166100   0.155   5.237  16.775  0.1216 -0.2505 -0.6510
14895TIP3    H266101   0.187   5.109  16.850  0.0619  0.4726  0.6088
14896TIP3   OH266102   4.276   1.693  12.529  0.0234 -0.2178 -0.7736
14896TIP3    H166103   4.222   1.745  12.470  0.3458 -0.3045 -1.1487
14896TIP3    H266104   4.352   1.748  12.548  0.3670 -0.5429 -1.1724
14897TIP3   OH266105   1.382   2.982   1.811 -0.4165 -0.2172  0.1033
14897TIP3    H166106   1.345   3.070   1.805 -3.3423 -1.4532 -0.9122
14897TIP3    H266107   1.474   2.992   1.784 -1.1419  2.2245 -1.6172
14898TIP3   OH266108   4.300   3.968   4.180  0.0416 -0.0739  0.6802
14898TIP3    H166109   4.254   3.961   4.096 -0.1561  1.1990  0.6730
14898TIP3    H266110   4.272   3.892   4.230 -2.1202  0.6967  0.6976
14899TIP3   OH266111   4.521   2.358   3.292  0.2662 -0.2349 -0.0821
14899TIP3    H166112   4.546   2.271   3.262 -0.3981 -0.4023 -0.1604
14899TIP3    H266113   4.442   2.379   3.243  0.7820  0.6847 -0.5369
14900TIP3   OH266114   4.241   0.886  13.400 -0.0247 -0.4690 -0.7851
14900TIP3    H166115   4.336   0.891  13.401 -0.0804  0.7053  0.8495
14900TIP3    H266116   4.213   0.965  13.354 -0.2709  1.0496  1.8835
14901TIP3   OH266117   4.304   3.590   3.285  0.2765  0.1627 -0.1925
14901TIP3    H166118   4.329   3.512   3.237  1.4708 -0.1503  0.9209
14901TIP3    H266119   4.211   3.601   3.265 -0.2942 -2.4172  0.8241
14902TIP3   OH266120   1.298   6.673  16.424 -0.7754  0.1020  0.6822
14902TIP3    H166121   1.325   6.764  16.439 -2.0082  0.7076 -0.6846
14902TIP3    H266122   1.339   6.650  16.340  0.4928 -1.0103  1.5821
14903TIP3   OH266123   2.284   6.338   1.538  0.2198 -0.3912  0.4492
14903TIP3    H166124   2.214   6.303   1.593  0.1954 -1.3416 -0.1837
14903TIP3    H266125   2.277   6.290   1.456  2.4214 -1.4102  0.8249
14904TIP3   OH266126   4.879   0.360   1.813 -0.1376  0.4657  0.7603
14904TIP3    H166127   4.791   0.365   1.849 -0.2245  0.7126  0.5144
14904TIP3    H266128   4.870   0.312   1.731 -0.1783  1.2232  0.3151
14905TIP3   OH266129   1.992   1.573   5.029 -0.5087 -0.5872 -0.1503
14905TIP3    H166130   1.998   1.569   4.934  1.3622  0.4246 -0.0994
14905TIP3    H266131   2.059   1.511   5.060 -0.5690 -0.3307  0.4984
14906TIP3   OH266132   3.005   6.561   3.069 -0.3111  0.0180 -0.0990
14906TIP3    H166133   2.952   6.635   3.099  0.9140  0.1064  1.9316
14906TIP3    H266134   3.091   6.574   3.109  0.3961 -1.6530 -0.9981
14907TIP3   OH266135   3.518   3.206   6.020  0.2869  0.5890  0.2660
14907TIP3    H166136   3.600   3.217   6.068 -1.5742 -0.4345  3.9203
14907TIP3    H266137   3.527   3.121   5.977  1.9497  1.4563 -1.1584
14908TIP3   OH266138   4.103   5.343   6.687 -0.2174 -0.1500  0.7736
14908TIP3    H166139   4.127   5.251   6.673  1.5522  0.3532  0.3203
14908TIP3    H266140   4.138   5.363   6.774  1.5448  0.7288 -0.0942
14909TIP3   OH266141   3.062   1.740   2.663  0.2204  0.2307 -0.4024
14909TIP3    H166142   3.031   1.663   2.616 -0.3174  0.2019 -0.0019
14909TIP3    H266143   3.150   1.756   2.627  1.4014 -2.0898  1.2808
14910TIP3   OH266144   6.691   4.748  11.813 -0.8228 -0.1965 -0.5507
14910TIP3    H166145   6.763   4.732  11.752 -0.2027 -1.2863  0.4695
14910TIP3    H266146   6.613   4.723  11.763 -0.3738 -0.4749 -1.1240
14911TIP3   OH266147   1.430   3.598  14.473 -0.1244  0.5253  0.1039
14911TIP3    H166148   1.341   3.603  14.439  0.6867  1.0852 -1.9981
14911TIP3    H266149   1.456   3.507  14.461  0.1681  0.7273 -0.8072
14912TIP3   OH266150   1.884   5.247   2.576  0.2392 -0.3698  0.4253
14912TIP3    H166151   1.850   5.261   2.665 -0.5809  1.4155 -0.1267
14912TIP3    H266152   1.811   5.207   2.529  0.3728 -0.5078  0.3359
14913TIP3   OH266153   0.859   1.769   3.562  0.4676 -0.0053 -0.0712
14913TIP3    H166154   0.868   1.855   3.523 -0.1348 -0.5698 -1.4732
14913TIP3    H266155   0.948   1.735   3.569  0.5437 -0.0570 -1.3124
14914TIP3   OH266156   2.000   4.374  16.906 -0.3420 -0.6182  0.4682
14914TIP3    H166157   2.082   4.347  16.866 -1.7447 -1.8972 -1.6150
14914TIP3    H266158   1.947   4.295  16.909 -0.8986 -0.1821  3.3838
14915TIP3   OH266159   6.753   2.873  14.912 -0.1672 -0.2780  0.2923
14915TIP3    H166160   6.681   2.925  14.947 -1.1234 -0.9136 -0.7088
14915TIP3    H266161   6.769   2.909  14.825 -0.2638 -1.0846 -0.0676
14916TIP3   OH266162   3.362   1.784   3.515 -0.3841 -0.0753  0.5460
14916TIP3    H166163   3.398   1.732   3.443  0.7403  0.3724  0.7721
14916TIP3    H266164   3.390   1.874   3.497  0.0911  0.0090  1.6553
14917TIP3   OH266165   3.070   5.230  15.779 -0.6606 -0.0929 -0.0787
14917TIP3    H166166   2.988   5.276  15.799 -1.8513 -0.8482 -2.9353
14917TIP3    H266167   3.042   5.142  15.752  1.2759 -1.0736  1.0233
14918TIP3   OH266168   0.494   6.442  11.735  0.5486  0.1196 -0.2341
14918TIP3    H166169   0.496   6.491  11.653  0.1653  1.8519  0.7522
14918TIP3    H266170   0.496   6.510  11.803 -0.9795 -1.1863  1.1687
14919TIP3   OH266171   2.211   5.344  13.131  0.1624  0.1445 -0.4049
14919TIP3    H166172   2.184   5.350  13.223 -1.8463 -0.2697 -0.9540
14919TIP3    H266173   2.250   5.257  13.123  0.8534  0.3892  0.1615
14920TIP3   OH266174   4.322   5.863   3.940 -0.4331 -0.0157  0.1541
14920TIP3    H166175   4.397   5.807   3.963 -1.2177 -0.9113  0.5910
14920TIP3    H266176   4.303   5.842   3.849 -0.4854 -0.1824  0.2027
14921TIP3   OH266177   0.464   2.195   0.364 -0.2402  0.1080  0.2793
14921TIP3    H166178   0.543   2.144   0.385 -0.1018  0.0097 -0.4688
14921TIP3    H266179   0.475   2.276   0.413  1.3590  0.9902 -1.4421
14922TIP3   OH266180   6.232   1.918   4.290 -0.3573  0.5498 -0.4524
14922TIP3    H166181   6.144   1.951   4.273 -0.2240  1.2418  0.1535
14922TIP3    H266182   6.277   1.991   4.333 -0.1408 -0.5024  1.1489
14923TIP3   OH266183   0.803   5.652   2.291  0.5454 -0.6787 -0.1233
14923TIP3    H166184   0.857   5.724   2.324  0.7146 -0.4454 -0.8967
14923TIP3    H266185   0.840   5.633   2.204 -1.1637  0.0545 -1.0263
14924TIP3   OH266186   5.266   1.714  16.296  0.1437  0.3652 -0.0936
14924TIP3    H166187   5.250   1.807  16.314 -1.6806  0.4072 -1.7864
14924TIP3    H266188   5.330   1.715  16.224  1.3095  0.2711  0.9209
14925TIP3   OH266189   1.794   0.403  12.451 -0.2790  0.2164 -0.1140
14925TIP3    H166190   1.792   0.466  12.379 -1.1207 -0.5542 -0.7776
14925TIP3    H266191   1.774   0.319  12.410 -0.1440 -0.3279  0.9219
14926TIP3   OH266192   4.085   0.595   1.845 -0.1620 -0.2064 -0.8477
14926TIP3    H166193   4.067   0.642   1.764 -1.2487 -3.2906 -2.4720
14926TIP3    H266194   4.176   0.565   1.836  0.2243  0.7503 -0.2221
14927TIP3   OH266195   0.931   1.903  17.217  0.6417  0.1429  0.0710
14927TIP3    H166196   0.924   1.807  17.216 -0.2089  0.1741  1.5455
14927TIP3    H266197   1.025   1.921  17.211  0.9352 -0.8277  1.5819
14928TIP3   OH266198   5.354   0.093  12.104  0.0455 -0.6643  0.4920
14928TIP3    H166199   5.370   0.178  12.145 -0.4226 -0.7164  0.7894
14928TIP3    H266200   5.426   0.038  12.134  1.1265  0.0063 -0.8178
14929TIP3   OH266201   6.056   2.499  16.443  0.4217 -0.2296 -0.0552
14929TIP3    H166202   6.146   2.466  16.448  0.3417 -0.3681  0.4108
14929TIP3    H266203   6.062   2.588  16.480  0.0318 -0.8833  1.6123
14930TIP3   OH266204   6.458   3.295  13.849  0.2511 -0.0188  0.2536
14930TIP3    H166205   6.432   3.386  13.864  0.9508  0.4606 -1.2896
14930TIP3    H266206   6.404   3.266  13.776  2.1556  0.1566 -1.2659
14931TIP3   OH266207   6.670   4.123  12.561 -0.1664 -0.3862  0.4316
14931TIP3    H166208   6.660   4.213  12.531  0.0999 -0.3994  0.3062
14931TIP3    H266209   6.582   4.098  12.592  0.2291  0.5979  2.3890
14932TIP3   OH266210   4.863   1.965  16.902  0.5797  0.7431 -0.1885
14932TIP3    H166211   4.827   1.984  16.988  0.7655 -2.2207  0.5861
14932TIP3    H266212   4.788   1.931  16.852  1.3532 -1.6382  0.1929
14933TIP3   OH266213   3.709   2.077  14.715  0.5129  0.5815 -0.1724
14933TIP3    H166214   3.640   2.048  14.656 -0.0422  0.9266  0.2919
14933TIP3    H266215   3.751   2.150  14.670  1.2189 -0.2745 -0.8850
14934TIP3   OH266216   2.344   1.507  11.813  0.2465 -0.2807  0.8327
14934TIP3    H166217   2.356   1.442  11.882  4.0815  0.4312  0.9459
14934TIP3    H266218   2.355   1.591  11.858 -0.3840  0.3085 -0.0939
14935TIP3   OH266219   5.741   5.706   1.887  0.8713  0.6593  0.5704
14935TIP3    H166220   5.815   5.721   1.828  1.8832 -1.0557  1.3581
14935TIP3    H266221   5.703   5.623   1.857 -0.1816  1.0773  0.7328
14936TIP3   OH266222   1.361   0.396  16.656 -0.2565  0.0725 -0.8611
14936TIP3    H166223   1.454   0.377  16.666 -0.9813 -2.6445  1.4252
14936TIP3    H266224   1.326   0.388  16.744 -2.6937  1.0880 -1.7005
14937TIP3   OH266225   2.770   1.576  16.378  0.0994  0.2294  0.6179
14937TIP3    H166226   2.775   1.481  16.376 -0.9890  0.1440  1.4078
14937TIP3    H266227   2.701   1.598  16.316  3.9947  0.8682 -3.7609
14938TIP3   OH266228   5.919   0.766   4.424 -0.4282  0.8234 -1.2560
14938TIP3    H166229   5.825   0.753   4.428 -0.1464 -0.8345  1.0094
14938TIP3    H266230   5.937   0.834   4.489  0.3379 -1.7401  1.3357
14939TIP3   OH266231   5.807   5.858   3.411 -0.0288 -0.4353  0.0967
14939TIP3    H166232   5.807   5.952   3.427  0.7141 -0.6588  1.4876
14939TIP3    H266233   5.726   5.827   3.452  0.1430 -0.5319  0.3570
14940TIP3   OH266234   2.122   2.979   4.502 -0.3870 -0.4800  0.2105
14940TIP3    H166235   2.125   2.948   4.592  0.5797  0.8168  0.6351
14940TIP3    H266236   2.067   3.058   4.505  0.8434  0.4006 -0.0699
14941TIP3   OH266237   6.720   2.870   6.163  0.2233  0.3639 -0.5196
14941TIP3    H166238   6.666   2.915   6.228 -0.3390  0.3935 -1.0010
14941TIP3    H266239   6.804   2.857   6.206  0.1528  1.2240 -0.1248
14942TIP3   OH266240   1.067   6.134   3.673  0.2343  0.6856 -0.1466
14942TIP3    H166241   1.110   6.127   3.588  0.9910  0.7207  0.2342
14942TIP3    H266242   1.058   6.228   3.688 -0.9658  0.6724 -0.7213
14943TIP3   OH266243   0.460   4.803  12.264 -0.0944  0.1098 -0.5469
14943TIP3    H166244   0.420   4.719  12.243  0.7361 -0.1030 -1.3146
14943TIP3    H266245   0.467   4.804  12.359 -0.6372 -0.4381 -0.4974
14944TIP3   OH266246   4.454   0.491  13.763  0.1063 -0.2969 -0.2556
14944TIP3    H166247   4.446   0.585  13.749 -2.4147 -0.5283 -0.5873
14944TIP3    H266248   4.450   0.454  13.675  0.4118 -0.7703 -0.0730
14945TIP3   OH266249   0.003   1.720   3.327 -0.1964 -0.6007  0.1056
14945TIP3    H166250   0.016   1.630   3.299 -1.1880  0.1115 -2.9419
14945TIP3    H266251   0.091   1.755   3.341  0.1646 -2.1824  1.9265
14946TIP3   OH266252   5.008   4.794   1.978 -0.3162 -0.3754  0.1131
14946TIP3    H166253   5.026   4.752   1.894 -1.5046  0.5607 -0.6336
14946TIP3    H266254   5.035   4.730   2.044  1.5411 -0.7266 -0.9684
14947TIP3   OH266255   1.419   4.105  11.524 -0.0969 -0.2298  0.0752
14947TIP3    H166256   1.428   4.015  11.556  1.1935  0.4849  1.7533
14947TIP3    H266257   1.495   4.151  11.559 -0.0276  1.2103 -1.9026
14948TIP3   OH266258   3.997   3.732  15.812 -0.1025  0.0575  0.2143
14948TIP3    H166259   4.038   3.803  15.861  0.2409  1.2881 -1.8389
14948TIP3    H266260   4.066   3.667  15.802  0.6121  0.9962 -0.9927
14949TIP3   OH266261   1.419   5.957  15.639 -0.0937 -0.3727  0.0454
14949TIP3    H166262   1.480   5.971  15.712 -0.9634 -0.5908  0.8267
14949TIP3    H266263   1.341   5.921  15.680 -1.2234  1.0912 -0.7680
14950TIP3   OH266264   2.380   2.587   2.123 -0.1524  0.3276  0.2342
14950TIP3    H166265   2.468   2.552   2.106  0.0719  0.2044  1.5558
14950TIP3    H266266   2.395   2.661   2.182 -0.7946  1.4472 -0.9869
14951TIP3   OH266267   4.290   3.624   4.131 -0.2736  0.3416 -0.7122
14951TIP3    H166268   4.366   3.598   4.079  1.3043 -0.5087  1.9743
14951TIP3    H266269   4.281   3.718   4.115  0.3022  0.1502 -2.3023
14952TIP3   OH266270   0.946   1.621   4.004 -0.6997  0.3042 -0.1472
14952TIP3    H166271   0.905   1.542   4.039 -0.4307 -0.2366 -1.0501
14952TIP3    H266272   0.898   1.640   3.924 -0.3910  0.7349 -0.2310
14953TIP3   OH266273   4.205   4.022  16.923  0.0312  0.1585 -0.1939
14953TIP3    H166274   4.165   3.965  16.989 -0.3966  0.8065  0.1121
14953TIP3    H266275   4.131   4.061  16.876  0.3427 -1.6763 -2.2861
14954TIP3   OH266276   2.486   0.509   3.711  0.5507  0.1640  0.7248
14954TIP3    H166277   2.542   0.577   3.675 -0.3254  0.0771 -0.8440
14954TIP3    H266278   2.406   0.555   3.738  1.0785  0.1853  2.3404
14955TIP3   OH266279   1.677   2.907   6.324 -0.5485  0.3827 -0.4156
14955TIP3    H166280   1.592   2.879   6.357 -0.7905  1.5536 -0.0505
14955TIP3    H266281   1.688   2.996   6.356  1.6283 -0.3737  1.0891
14956TIP3   OH266282   4.623   0.339   1.923  0.4474 -0.1811  0.5371
14956TIP3    H166283   4.583   0.256   1.898  0.6261  0.2172 -1.1321
14956TIP3    H266284   4.565   0.375   1.990 -0.7666 -0.6706 -0.2491
14957TIP3   OH266285   6.669   2.321   3.588 -0.5020 -0.1053 -0.2809
14957TIP3    H166286   6.582   2.291   3.561  0.4996 -1.3271 -2.2200
14957TIP3    H266287   6.729   2.254   3.556  1.2956  1.3718 -0.1094
14958TIP3   OH266288   4.733   1.400   3.070 -0.0339  0.0486 -0.4777
14958TIP3    H166289   4.664   1.367   3.126  0.8934 -0.0352  0.6253
14958TIP3    H266290   4.749   1.329   3.007  0.7179 -0.8889  0.7645
14959TIP3   OH266291   2.649   4.209  11.677  0.3255  0.4704 -0.4154
14959TIP3    H166292   2.621   4.300  11.673 -0.2383  0.3994  1.3508
14959TIP3    H266293   2.736   4.212  11.715 -0.4142  0.1669  1.3492
14960TIP3   OH266294   5.151   1.906   3.147 -0.2485  0.7486 -0.0817
14960TIP3    H166295   5.094   1.887   3.222 -0.3603 -1.7071 -0.7389
14960TIP3    H266296   5.137   1.999   3.129 -1.8750  0.8475  1.5755
14961TIP3   OH266297   0.457   3.422   0.984 -0.1590 -0.2715  0.2819
14961TIP3    H166298   0.365   3.415   0.957 -0.6941 -0.1673  2.0101
14961TIP3    H266299   0.453   3.464   1.070  1.5608  0.2919  0.0996
14962TIP3   OH266300   3.873   1.855  10.627 -0.1106 -0.6942  0.6327
14962TIP3    H166301   3.794   1.828  10.675 -3.0859  2.5236 -2.1703
14962TIP3    H266302   3.857   1.827  10.537  0.8720  1.9791 -0.4278
14963TIP3   OH266303   0.338   0.331  16.765 -0.1897  0.1427 -0.0806
14963TIP3    H166304   0.310   0.366  16.681 -1.2948 -0.2975  0.0851
14963TIP3    H266305   0.411   0.387  16.792 -0.7477  1.1579 -0.6687
14964TIP3   OH266306   6.196   6.272  15.142 -0.2871  0.3787 -0.1215
14964TIP3    H166307   6.165   6.347  15.194 -1.9702 -1.6158  1.8148
14964TIP3    H266308   6.290   6.269  15.160  0.0258  2.6652 -1.1158
14965TIP3   OH266309   6.520   5.981  15.147 -0.1373  0.0724  0.4535
14965TIP3    H166310   6.584   5.941  15.088 -0.4143 -0.8834  0.7891
14965TIP3    H266311   6.526   6.074  15.129  1.6888  0.0528  0.8018
14966TIP3   OH266312   1.615   3.630   2.746 -0.2947 -0.3469  0.0441
14966TIP3    H166313   1.656   3.708   2.709 -0.4531 -0.7284 -0.9555
14966TIP3    H266314   1.687   3.583   2.788 -0.1868  0.2935  0.5889
14967TIP3   OH266315   5.798   5.494  14.109 -0.0612  0.2438  0.5016
14967TIP3    H166316   5.706   5.466  14.103  0.7139 -2.1925 -1.1851
14967TIP3    H266317   5.803   5.572  14.055 -1.0924  0.2264  0.3683
14968TIP3   OH266318   5.322   2.282  13.959  0.0751  0.5481  0.0958
14968TIP3    H166319   5.287   2.193  13.966  1.8182 -0.1093  0.8318
14968TIP3    H266320   5.329   2.298  13.865  0.1675 -0.2794 -0.0447
14969TIP3   OH266321   2.184   4.618   1.844 -0.3351 -0.4097 -0.2720
14969TIP3    H166322   2.165   4.524   1.845  0.9855 -0.7319 -2.0449
14969TIP3    H266323   2.277   4.623   1.824 -1.0247  1.3137 -3.3968
14970TIP3   OH266324   1.756   3.859  15.037  0.5160 -0.0710 -0.2060
14970TIP3    H166325   1.738   3.890  14.949  0.7220 -0.4445 -0.3798
14970TIP3    H266326   1.676   3.876  15.086  1.0196  1.8004 -0.0064
14971TIP3   OH266327   3.584   3.590   1.303 -0.2298  0.7390  0.6028
14971TIP3    H166328   3.537   3.515   1.266  1.4821  0.8671 -1.8987
14971TIP3    H266329   3.637   3.552   1.373  2.1598 -0.7934 -1.9432
14972TIP3   OH266330   5.841   5.832   3.700 -0.0778  0.5391  0.0666
14972TIP3    H166331   5.864   5.827   3.608  1.1210  0.1362  0.3820
14972TIP3    H266332   5.902   5.895   3.737 -0.5973  0.7558  0.5797
14973TIP3   OH266333   1.160   5.874  14.643  0.2344 -0.1818 -0.3533
14973TIP3    H166334   1.172   5.789  14.687 -1.1712 -0.4725 -0.5017
14973TIP3    H266335   1.079   5.908  14.680 -0.4087  0.0488 -1.9820
14974TIP3   OH266336   4.344   5.778  12.882 -0.1645  0.3497 -0.3926
14974TIP3    H166337   4.403   5.853  12.870  0.9764 -0.4313  0.1895
14974TIP3    H266338   4.324   5.749  12.794  0.0632  0.8332 -0.6063
14975TIP3   OH266339   4.708   0.467  13.885  0.1975  0.5224  0.6270
14975TIP3    H166340   4.687   0.423  13.803 -0.5238  0.7298  0.6981
14975TIP3    H266341   4.793   0.430  13.911 -0.7392 -1.4021  1.0825
14976TIP3   OH266342   4.863   1.432   2.477  0.3298 -0.5877  0.6506
14976TIP3    H166343   4.956   1.449   2.461  0.1095  0.9082  0.8890
14976TIP3    H266344   4.854   1.441   2.572 -0.0915 -0.5127  0.6034
14977TIP3   OH266345   4.507   4.839   3.521 -0.1967 -0.4103  0.4828
14977TIP3    H166346   4.581   4.779   3.533  0.2189 -0.0536 -0.2730
14977TIP3    H266347   4.528   4.888   3.441 -0.2640  1.1594  1.4166
14978TIP3   OH266348   0.496   0.558   5.803  0.4994  0.2084  0.6712
14978TIP3    H166349   0.446   0.497   5.858 -0.7526  1.0200  0.4434
14978TIP3    H266350   0.508   0.635   5.857  1.3492  0.0870  0.6546
14979TIP3   OH266351   2.369   1.327  10.883 -0.0401  0.1200  0.1048
14979TIP3    H166352   2.276   1.339  10.862  0.2690  1.8192 -0.3653
14979TIP3    H266353   2.415   1.381  10.818  1.2771 -0.6199  0.4086
14980TIP3   OH266354   4.108   6.423   5.847  0.0937  0.4153  0.3884
14980TIP3    H166355   4.175   6.457   5.906  0.9864  0.1230 -0.4337
14980TIP3    H266356   4.061   6.358   5.898  1.8661 -0.9712  0.3221
14981TIP3   OH266357   1.486   2.225   4.835  0.2877  0.2341 -0.1077
14981TIP3    H166358   1.420   2.229   4.904 -0.4353  0.4828 -0.8048
14981TIP3    H266359   1.447   2.273   4.762  1.3337  0.5817 -0.4507
14982TIP3   OH266360   1.343   5.582  14.064 -0.4570  0.2087  0.5815
14982TIP3    H166361   1.258   5.588  14.020 -0.2753 -0.4171  0.1375
14982TIP3    H266362   1.402   5.630  14.006 -0.2057 -0.6647  0.1067
14983TIP3   OH266363   0.739   5.355  11.420  0.6080  0.2880 -0.2108
14983TIP3    H166364   0.790   5.300  11.479  0.8343  1.6434  0.8947
14983TIP3    H266365   0.648   5.339  11.445  0.4447 -2.0840 -2.1420
14984TIP3   OH266366   4.754   5.106  13.066 -0.8039 -0.1211  0.0707
14984TIP3    H166367   4.798   5.098  13.151 -1.2851  0.8523  0.4154
14984TIP3    H266368   4.810   5.057  13.006  0.3089  0.3946  0.6703
14985TIP3   OH266369   0.751   2.401  12.880 -0.5003  1.0313 -0.1596
14985TIP3    H166370   0.769   2.495  12.883  0.0751  1.0018 -1.7819
14985TIP3    H266371   0.683   2.392  12.813 -0.1330  0.2444 -0.4329
14986TIP3   OH266372   3.316   4.656   3.958 -0.6296 -0.4593  0.1635
14986TIP3    H166373   3.282   4.732   4.005  0.2546  0.1586 -0.1832
14986TIP3    H266374   3.403   4.683   3.927 -0.5448 -1.4046 -0.4620
14987TIP3   OH266375   3.132   6.389   5.235 -0.2131 -0.3308 -0.2070
14987TIP3    H166376   3.115   6.304   5.274 -2.0512  0.4958  0.8754
14987TIP3    H266377   3.219   6.413   5.266 -0.8635 -0.5472  1.8215
14988TIP3   OH266378   3.888   4.960  12.356  0.4697 -0.2685 -0.1143
14988TIP3    H166379   3.876   4.927  12.445  1.0936  2.4789  1.0194
14988TIP3    H266380   3.843   5.044  12.354  0.0071 -0.5277 -2.5674
14989TIP3   OH266381   3.643   3.728   2.106  0.0329 -0.0134 -0.2322
14989TIP3    H166382   3.602   3.773   2.179 -1.0434 -0.7139 -0.3961
14989TIP3    H266383   3.577   3.666   2.076  0.4829  0.2409 -1.7740
14990TIP3   OH266384   1.507   3.421   5.678  0.1151  0.1367 -0.1581
14990TIP3    H166385   1.552   3.393   5.598  0.8583  0.7828  0.0329
14990TIP3    H266386   1.424   3.458   5.647  0.6304  0.8780 -0.6785
14991TIP3   OH266387   6.406   4.813   5.986  0.0961 -0.0849 -0.0934
14991TIP3    H166388   6.335   4.758   6.019  0.1899  0.5517  1.2288
14991TIP3    H266389   6.486   4.765   6.010  0.1395 -0.1110 -0.2926
14992TIP3   OH266390   4.112   5.378  12.919  0.1734 -0.1674  0.3682
14992TIP3    H166391   4.208   5.387  12.923  0.1658  0.6079 -0.6236
14992TIP3    H266392   4.097   5.314  12.849 -0.0375  0.2275  0.0460
14993TIP3   OH266393   4.304   4.869   2.389 -0.7116 -0.2604 -0.4984
14993TIP3    H166394   4.350   4.851   2.307  0.6844  0.8172  0.0317
14993TIP3    H266395   4.312   4.788   2.440  1.0897  0.0755 -0.2021
14994TIP3   OH266396   4.064   0.711  15.761  0.3180  0.0350 -0.3411
14994TIP3    H166397   4.063   0.624  15.721  0.6586 -0.9366  1.7181
14994TIP3    H266398   3.985   0.754  15.727  0.3183 -0.9515 -1.6223
14995TIP3   OH266399   1.311   1.872   1.472  0.1075  0.2465 -0.0843
14995TIP3    H166400   1.280   1.861   1.562  0.5403 -0.3305 -0.0026
14995TIP3    H266401   1.242   1.836   1.417  0.7882 -1.3742  0.1088
14996TIP3   OH266402   4.071   0.719   4.130 -0.1440  0.2265  0.3892
14996TIP3    H166403   4.128   0.714   4.053 -1.0342 -0.3189 -0.2394
14996TIP3    H266404   4.036   0.808   4.128  1.8336  1.0745  1.6205
14997TIP3   OH266405   4.813   0.393  15.353 -0.1127  0.2517 -0.5865
14997TIP3    H166406   4.886   0.415  15.294  1.8628  1.3703  2.1325
14997TIP3    H266407   4.832   0.304  15.382  0.8752  0.9415  0.9987
14998TIP3   OH266408   2.749   5.514   3.692  0.3522  0.3671 -0.0173
14998TIP3    H166409   2.822   5.498   3.751  0.0032  0.0842  0.3380
14998TIP3    H266410   2.672   5.484   3.740  0.1105 -0.2359 -0.7698
14999TIP3   OH266411   3.054   5.822   0.924  0.4054  0.0887 -0.5425
14999TIP3    H166412   3.000   5.744   0.933 -0.0125  0.5242  0.8269
14999TIP3    H266413   3.139   5.790   0.894 -0.1432 -0.7508 -1.2365
15000TIP3   OH266414   3.891   0.963  16.085  0.8903 -0.2272  0.3831
15000TIP3    H166415   3.975   0.918  16.086  1.2243  0.3764 -0.0428
15000TIP3    H266416   3.891   1.011  16.002 -0.9178 -2.1875 -0.7927
15001TIP3   OH266417   1.595   5.797   3.074 -0.2522 -0.0246  0.6782
15001TIP3    H166418   1.518   5.747   3.048 -0.9788  1.1579  0.5388
15001TIP3    H266419   1.630   5.750   3.150 -0.1115 -1.5312 -0.2995
15002TIP3   OH266420   1.255   5.230   3.511 -0.1333  0.0587 -0.5225
15002TIP3    H166421   1.303   5.260   3.589 -0.7358 -0.2711 -0.0259
15002TIP3    H266422   1.216   5.309   3.475 -2.5156 -0.2303  1.3282
15003TIP3   OH266423   3.158   5.386  14.500  0.3407  0.7151 -0.1051
15003TIP3    H166424   3.242   5.409  14.539  0.0495 -0.7509  1.4766
15003TIP3    H266425   3.162   5.292  14.487 -1.3372  0.4944  0.7563
15004TIP3   OH266426   0.893   5.369   1.566 -0.4330  0.1156 -0.5460
15004TIP3    H166427   0.833   5.312   1.518 -0.8116 -0.6854  0.8378
15004TIP3    H266428   0.976   5.363   1.518 -0.1602 -2.4451  0.1389
15005TIP3   OH266429   0.176   4.011  15.732  0.1697  0.3194  0.6920
15005TIP3    H166430   0.243   3.944  15.720 -0.7555 -0.4202 -0.3970
15005TIP3    H266431   0.175   4.059  15.649 -0.2204  0.7167  0.9247
15006TIP3   OH266432   6.072   2.056   5.927  0.3192  0.0917  0.5371
15006TIP3    H166433   6.030   2.127   5.975  0.3963 -0.6229  1.6717
15006TIP3    H266434   6.033   1.976   5.963  1.5290 -0.5159  0.5219
15007TIP3   OH266435   5.585   5.879   5.116 -0.3241  0.2969  0.0302
15007TIP3    H166436   5.552   5.815   5.052  0.8470 -0.0284 -0.2738
15007TIP3    H266437   5.657   5.833   5.160  0.0254  1.1444  0.3514
15008TIP3   OH266438   3.962   2.389  10.697 -0.2591 -0.1339  0.3446
15008TIP3    H166439   4.001   2.302  10.683 -1.5317 -0.4895 -1.2002
15008TIP3    H266440   3.953   2.396  10.792  0.9750 -1.1827  0.5613
15009TIP3   OH266441   5.797   2.768  12.024 -0.0933 -0.1043  0.1852
15009TIP3    H166442   5.733   2.697  12.021 -0.2008 -0.0284  0.7068
15009TIP3    H266443   5.761   2.830  12.088 -0.1404  0.5545 -0.4687
15010TIP3   OH266444   5.023   0.587  11.505 -0.7412  0.0407 -0.1281
15010TIP3    H166445   5.057   0.641  11.577  1.3283 -1.1490 -0.1915
15010TIP3    H266446   5.063   0.623  11.426 -1.4308  0.0594 -0.4772
15011TIP3   OH266447   1.584   4.539  12.810 -0.2872 -0.0211 -0.6250
15011TIP3    H166448   1.619   4.603  12.747  2.0734 -1.3769 -0.7767
15011TIP3    H266449   1.596   4.454  12.766  0.5137 -0.9052  1.2296
15012TIP3   OH266450   4.570   2.010  14.049  0.5658 -0.0171  0.4227
15012TIP3    H166451   4.482   1.985  14.077  0.3310  1.0972  0.7103
15012TIP3    H266452   4.565   2.012  13.953 -0.0865  1.3170  0.4795
15013TIP3   OH266453   0.503   5.603   5.107 -0.2355 -0.0711 -0.0207
15013TIP3    H166454   0.579   5.660   5.117  0.2394 -0.5763 -0.6801
15013TIP3    H266455   0.427   5.661   5.121  0.2786  0.2315  1.5822
15014TIP3   OH266456   5.949   2.019  11.763 -0.3151  0.5214 -0.3609
15014TIP3    H166457   5.984   2.103  11.732  0.4649  0.6563  0.8264
15014TIP3    H266458   5.998   1.953  11.714 -0.8613  0.7442 -1.2269
15015TIP3   OH266459   4.083   0.196   4.842 -0.0588  0.4092  0.2615
15015TIP3    H166460   4.101   0.255   4.916 -2.2835  2.0297 -0.4371
15015TIP3    H266461   4.077   0.254   4.766 -0.6402 -0.9222 -0.7213
15016TIP3   OH266462   6.499   4.398  17.129  0.2655 -0.2307  0.3732
15016TIP3    H166463   6.568   4.381  17.065 -0.7051 -1.2935 -0.4017
15016TIP3    H266464   6.452   4.474  17.094 -0.0997 -0.6458 -0.0288
15017TIP3   OH266465   2.653   1.222  11.460 -0.5634 -0.2955 -0.3772
15017TIP3    H166466   2.665   1.187  11.371 -0.9232  0.1673 -0.6133
15017TIP3    H266467   2.572   1.182  11.491 -0.7378 -0.0216 -0.4770
15018TIP3   OH266468   0.582   5.055   5.202  0.4730  0.6425  0.2386
15018TIP3    H166469   0.487   5.066   5.203  0.4200  0.1460  1.7032
15018TIP3    H266470   0.610   5.099   5.122 -0.8981  1.5516  0.2346
15019TIP3   OH266471   4.528   0.435  15.654 -0.5131 -0.3789  0.0508
15019TIP3    H166472   4.466   0.363  15.638 -1.0525  0.0395  0.2486
15019TIP3    H266473   4.499   0.473  15.736  0.6295 -0.8184  0.6594
15020TIP3   OH266474   5.733   3.517   4.144 -0.6493 -0.3195  0.5432
15020TIP3    H166475   5.693   3.430   4.141 -2.4056  0.4959 -1.6978
15020TIP3    H266476   5.676   3.567   4.203 -0.4958 -0.2948  0.6701
15021TIP3   OH266477   1.946   2.867  12.027  0.0273  0.6718  0.4542
15021TIP3    H166478   1.908   2.784  12.054 -0.4887  0.7457 -0.0108
15021TIP3    H266479   1.873   2.914  11.985  0.5547  0.9502 -0.1714
15022TIP3   OH266480   3.886   6.150   5.657  0.3300 -0.2536  0.3551
15022TIP3    H166481   3.830   6.145   5.735  3.0083  0.4458  2.3775
15022TIP3    H266482   3.917   6.060   5.644 -1.1830 -0.6453 -0.7773
15023TIP3   OH266483   2.317   6.612   5.111  0.2674  0.3490  0.1722
15023TIP3    H166484   2.251   6.671   5.146  0.2068  0.3305  0.0858
15023TIP3    H266485   2.288   6.525   5.137  0.6728  0.4023  0.8344
15024TIP3   OH266486   1.913   3.668  13.560 -0.0619  0.9150 -0.2059
15024TIP3    H166487   1.834   3.679  13.507  1.1028  0.0132 -2.1744
15024TIP3    H266488   1.882   3.622  13.639 -1.0723 -1.8822 -2.1567
15025TIP3   OH266489   4.641   5.279   0.820  0.0018 -0.4216  0.0305
15025TIP3    H166490   4.573   5.345   0.812 -0.4875 -1.0141 -0.7630
15025TIP3    H266491   4.651   5.243   0.732  0.0113 -1.6386  0.5102
15026TIP3   OH266492   5.585   6.734  17.192 -0.6362 -0.1324 -0.1539
15026TIP3    H166493   5.633   6.703  17.269 -2.1223 -0.5286  0.6393
15026TIP3    H266494   5.579   6.657  17.135 -1.0563 -0.3195  0.1336
15027TIP3   OH266495   0.512   1.096   5.631  0.0851  0.5313  0.4884
15027TIP3    H166496   0.536   1.090   5.539  0.9298 -0.6022  0.7667
15027TIP3    H266497   0.590   1.132   5.674 -0.3018  1.0479  0.7711
15028TIP3   OH266498   5.876   4.346   2.296  0.0177  0.0496  0.0859
15028TIP3    H166499   5.879   4.387   2.383  1.8260  0.2263 -0.0357
15028TIP3    H266500   5.940   4.275   2.301 -1.0367 -0.9574 -0.6032
15029TIP3   OH266501   6.740   2.103   0.618 -0.3823 -0.4073 -0.0572
15029TIP3    H166502   6.648   2.123   0.637 -0.1596 -0.7514  1.4033
15029TIP3    H266503   6.738   2.062   0.531 -1.5882 -0.2675 -0.1035
15030TIP3   OH266504   4.310   6.174   2.647 -0.4972  0.9349 -0.0435
15030TIP3    H166505   4.259   6.127   2.581  0.5573  1.3540 -1.1801
15030TIP3    H266506   4.307   6.266   2.619  0.9226  0.9583 -0.1830
15031TIP3   OH266507   2.147   5.568  16.300  0.6520  0.0732  0.3671
15031TIP3    H166508   2.141   5.505  16.372  1.9022 -0.9021 -0.3604
15031TIP3    H266509   2.178   5.648  16.341 -0.6567  0.1297  1.2555
15032TIP3   OH266510   6.197   1.255  11.689 -0.2521 -0.0503  0.5181
15032TIP3    H166511   6.116   1.206  11.707 -0.8261  0.3959 -0.8030
15032TIP3    H266512   6.189   1.335  11.741  0.4664 -1.1101  2.3043
15033TIP3   OH266513   3.043   2.945   4.256 -0.6738  0.2265 -0.1782
15033TIP3    H166514   3.053   3.033   4.222 -0.1688  0.2473  0.0231
15033TIP3    H266515   3.133   2.912   4.266 -0.7597  0.5295  1.9360
15034TIP3   OH266516   0.679   2.624  16.937 -0.1909  0.2078  0.3370
15034TIP3    H166517   0.602   2.681  16.937  0.4575  1.0926  0.8379
15034TIP3    H266518   0.672   2.576  17.020  0.8266  1.7243  1.3354
15035TIP3   OH266519   4.037   6.549   6.188  0.4449  0.1657  0.6624
15035TIP3    H166520   3.983   6.585   6.118  1.6737  0.3864 -0.1976
15035TIP3    H266521   4.121   6.529   6.146  0.5876 -1.4487  1.6557
15036TIP3   OH266522   6.485   5.184  15.435  0.7164  0.2924 -0.7439
15036TIP3    H166523   6.457   5.153  15.349 -0.9114  0.6652 -0.3725
15036TIP3    H266524   6.548   5.254  15.416 -0.2722  0.9543 -1.6406
15037TIP3   OH266525   2.627   1.094  13.242  0.1552  0.1693  0.0177
15037TIP3    H166526   2.551   1.051  13.202 -0.4781  0.1188  1.2369
15037TIP3    H266527   2.604   1.100  13.335  1.3159  0.8731  0.2625
15038TIP3   OH266528   6.321   1.004  17.042 -0.0003  0.2471  0.0623
15038TIP3    H166529   6.262   1.079  17.031  0.2120  0.3738 -0.2171
15038TIP3    H266530   6.359   0.991  16.955 -2.1646 -1.9854 -0.5970
15039TIP3   OH266531   2.106   5.588  15.747 -0.1046  0.2918  0.7407
15039TIP3    H166532   2.078   5.673  15.783  0.4036  0.3078  1.1107
15039TIP3    H266533   2.198   5.581  15.771  0.8487  1.2492 -2.4160
15040TIP3   OH266534   0.030   5.182  12.738 -0.3307 -0.2008  0.0639
15040TIP3    H166535   0.062   5.237  12.809 -0.2728 -0.2974  0.1138
15040TIP3    H266536   0.109   5.149  12.696 -0.3654 -0.1556 -0.0365
15041TIP3   OH266537   1.585   5.295  12.506 -0.5063 -0.5211  0.1653
15041TIP3    H166538   1.619   5.322  12.591  0.4486 -0.5454 -0.2022
15041TIP3    H266539   1.619   5.360  12.444 -0.3364 -1.0855 -0.3422
15042TIP3   OH266540   1.966   4.145  16.333 -0.0990  0.1595  0.6797
15042TIP3    H166541   1.964   4.050  16.331  1.2142  0.1021  1.3334
15042TIP3    H266542   1.974   4.172  16.242  1.1505 -0.4113  0.6201
15043TIP3   OH266543   4.890   4.289   6.265 -0.0750 -0.2193 -0.4063
15043TIP3    H166544   4.842   4.254   6.340  1.2997 -1.5112 -0.1066
15043TIP3    H266545   4.969   4.328   6.303  1.4226 -2.2786 -1.2451
15044TIP3   OH266546   3.487   0.849  17.055  0.0686  0.2193 -0.4487
15044TIP3    H166547   3.539   0.771  17.069  0.9879  1.0834  1.0772
15044TIP3    H266548   3.524   0.889  16.976  0.3478 -0.2686 -0.5671
15045TIP3   OH266549   0.022   4.531  11.594  0.3650  0.2569  0.4502
15045TIP3    H166550   0.056   4.593  11.660  2.0176 -0.3961  0.2478
15045TIP3    H266551   0.101   4.492  11.557 -0.6211 -0.4541 -0.8927
15046TIP3   OH266552   2.460   3.757  12.826 -0.7902 -0.0048  0.6748
15046TIP3    H166553   2.477   3.717  12.741  0.5406  0.0986  0.8757
15046TIP3    H266554   2.519   3.833  12.829  0.9777 -1.3961  2.6565
15047TIP3   OH266555   4.390   5.166   5.861  0.2822  0.8378  0.3343
15047TIP3    H166556   4.455   5.155   5.791 -0.3505 -0.3962 -0.0752
15047TIP3    H266557   4.355   5.078   5.875 -0.6409  1.3345  1.1991
15048TIP3   OH266558   3.993   1.102  12.661  0.1904 -0.3283  0.2983
15048TIP3    H166559   3.943   1.060  12.591  0.4877 -0.5485  0.2160
15048TIP3    H266560   3.944   1.182  12.681  0.1323 -0.2386 -0.1948
15049TIP3   OH266561   2.960   6.056  15.543  0.1236  0.0362 -0.0069
15049TIP3    H166562   3.032   6.056  15.606  1.2346  1.1539 -1.2458
15049TIP3    H266563   2.885   6.088  15.594  1.2536  1.9758  0.5187
15050TIP3   OH266564   5.853   2.629  17.045  0.0114 -0.0219 -0.5017
15050TIP3    H166565   5.790   2.627  16.973  0.4037 -1.4824 -0.8096
15050TIP3    H266566   5.812   2.687  17.110 -0.9313  0.2862 -1.3477
15051TIP3   OH266567   1.937   1.755  17.151 -0.5803 -0.5506  0.0494
15051TIP3    H166568   1.933   1.831  17.209 -0.3371 -0.8208  0.4225
15051TIP3    H266569   2.030   1.733  17.146 -0.4393  0.3609 -1.6010
15052TIP3   OH266570   3.182   2.554  16.223  0.2339  0.2660 -0.0924
15052TIP3    H166571   3.248   2.586  16.285  2.1559 -0.0710 -1.8921
15052TIP3    H266572   3.106   2.611  16.237  0.8615  0.6240  2.0631
15053TIP3   OH266573   3.084   4.306   2.336 -0.2369  0.1807 -0.3144
15053TIP3    H166574   3.130   4.257   2.403  1.3482  0.4857 -1.1715
15053TIP3    H266575   3.045   4.380   2.383 -0.5800 -0.5411  0.5537
15054TIP3   OH266576   3.603   4.217   3.525 -0.4635 -0.0223  0.1601
15054TIP3    H166577   3.570   4.166   3.599 -0.6600 -1.0027 -0.5933
15054TIP3    H266578   3.570   4.305   3.540 -2.0875 -0.6357  0.2635
15055TIP3   OH266579   1.213   4.376  12.566  0.2283  0.4818 -0.2523
15055TIP3    H166580   1.232   4.469  12.551 -1.4326  0.4175 -3.1126
15055TIP3    H266581   1.121   4.374  12.590  0.6450 -0.3340  1.4050
15056TIP3   OH266582   1.934   0.534   3.672  0.3758  0.2999  0.1252
15056TIP3    H166583   1.979   0.460   3.713 -0.8401 -0.8613 -0.6132
15056TIP3    H266584   1.999   0.570   3.611  0.1506 -1.6854 -1.3138
15057TIP3   OH266585   3.190   0.762   2.680  0.6483 -0.0392  0.0846
15057TIP3    H166586   3.162   0.694   2.619 -0.3483  0.4083  0.0468
15057TIP3    H266587   3.250   0.717   2.740  0.8258 -0.7086 -0.5900
15058TIP3   OH266588   4.689   6.266   3.001  0.2684  0.3828  0.4469
15058TIP3    H166589   4.755   6.215   2.955  0.5465 -1.6110  2.9003
15058TIP3    H266590   4.611   6.211   2.999 -0.1273  0.9156  1.0829
15059TIP3   OH266591   3.363   6.376  14.016 -0.2571 -0.5332  0.3501
15059TIP3    H166592   3.268   6.382  14.004 -0.1935 -0.6197 -0.2245
15059TIP3    H266593   3.395   6.463  13.990  0.0512 -1.2577 -1.8094
15060TIP3   OH266594   5.958   2.823  14.249 -0.3588  0.1505 -0.0681
15060TIP3    H166595   5.895   2.894  14.261 -0.2225 -0.2449  3.8359
15060TIP3    H266596   5.919   2.748  14.293  1.2226 -1.1158 -0.7549
15061TIP3   OH266597   2.228   6.074   3.464  0.4352 -0.1379  0.1480
15061TIP3    H166598   2.237   6.128   3.543  1.2839  2.2279 -1.5171
15061TIP3    H266599   2.186   5.994   3.495 -1.0322  1.5314  2.6773
15062TIP3   OH266600   2.801   6.167  14.391 -0.0595 -0.6493 -0.3691
15062TIP3    H166601   2.770   6.245  14.345 -0.4862 -0.6628 -0.1025
15062TIP3    H266602   2.758   6.094  14.346 -0.1821 -0.6885 -0.1862
15063TIP3   OH266603   0.334   0.680   1.965  0.3091  0.4752  0.0418
15063TIP3    H166604   0.276   0.663   2.038  0.6632  0.9952  0.4507
15063TIP3    H266605   0.344   0.775   1.964  1.2644  0.3820  0.0756
15064TIP3   OH266606   3.004   2.395   5.350  0.4455 -0.2875  0.1947
15064TIP3    H166607   2.972   2.372   5.437  1.7352  0.2059  0.8044
15064TIP3    H266608   2.961   2.332   5.292 -0.2287 -0.7852  1.2105
15065TIP3   OH266609   5.658   6.414   5.813 -0.7122  0.5910 -0.2357
15065TIP3    H166610   5.659   6.328   5.771  1.6432  1.0334 -1.1546
15065TIP3    H266611   5.594   6.465   5.762 -2.4014 -0.7111  0.5564
15066TIP3   OH266612   0.002   1.476   5.199 -0.5441  0.2402  0.0473
15066TIP3    H166613   0.054   1.398   5.214 -1.4173 -0.1861  0.9946
15066TIP3    H266614  -0.043   1.490   5.283  0.3318  2.3007  0.2021
15067TIP3   OH266615   0.866   3.685   1.764 -0.0411 -0.2625  0.0190
15067TIP3    H166616   0.788   3.725   1.801 -0.2373  0.9759 -1.6849
15067TIP3    H266617   0.847   3.676   1.671  2.0718  0.6790 -0.5462
15068TIP3   OH266618   5.533   5.574  12.066  0.0321 -0.2239  0.0499
15068TIP3    H166619   5.607   5.515  12.051  0.4734  0.3619 -0.0915
15068TIP3    H266620   5.471   5.553  11.995  1.3957  1.3822 -1.6838
15069TIP3   OH266621   3.699   0.047  14.142 -0.2113  0.2338  1.0857
15069TIP3    H166622   3.653   0.076  14.064  0.0308  1.3064  1.3289
15069TIP3    H266623   3.791   0.058  14.121 -0.1559  0.8330  1.6352
15070TIP3   OH266624   1.202   1.646  10.926  0.2324 -0.2796  0.2330
15070TIP3    H166625   1.271   1.652  10.992 -0.0128 -0.5183  0.5177
15070TIP3    H266626   1.226   1.710  10.860  1.6510 -1.6013 -0.5492
15071TIP3   OH266627   0.332   1.459  13.154 -0.6076 -0.5395  0.3422
15071TIP3    H166628   0.378   1.481  13.073  0.4886  0.5138  1.2403
15071TIP3    H266629   0.286   1.378  13.133 -0.6487 -0.0703 -1.4551
15072TIP3   OH266630   0.366   2.719   0.578  0.1856 -0.1343  0.4043
15072TIP3    H166631   0.416   2.654   0.627 -0.8714 -1.7035 -0.5456
15072TIP3    H266632   0.275   2.690   0.586 -0.2755  1.1022 -0.2248
15073TIP3   OH266633   3.977   1.490   5.445 -0.7366 -0.2830  0.1172
15073TIP3    H166634   3.920   1.475   5.521 -1.7031 -1.1803 -0.7614
15073TIP3    H266635   4.053   1.435   5.460 -1.3312 -1.1416  0.0162
15074TIP3   OH266636   3.299   4.221  17.201  0.6688  0.2726 -0.2414
15074TIP3    H166637   3.242   4.159  17.247 -1.9297  0.4182 -3.1088
15074TIP3    H266638   3.285   4.304  17.247  1.4002 -0.4861  1.3690
15075TIP3   OH266639   2.421   3.689  13.093  0.0025 -0.1137 -0.7186
15075TIP3    H166640   2.461   3.773  13.114 -0.8741  0.4101 -1.0910
15075TIP3    H266641   2.428   3.682  12.998 -1.3502  0.2884 -0.8613
15076TIP3   OH266642   4.831   4.408  15.042 -0.4317  0.3875  0.3033
15076TIP3    H166643   4.833   4.402  14.946 -5.2889 -0.6069  0.1684
15076TIP3    H266644   4.783   4.489  15.059  2.1752  1.6512  2.0152
15077TIP3   OH266645   0.099   6.693   0.315 -0.3506 -0.4155 -0.7840
15077TIP3    H166646   0.064   6.624   0.371 -2.1258  1.0114 -0.0912
15077TIP3    H266647   0.088   6.660   0.226 -0.5315 -1.3219 -0.4274
15078TIP3   OH266648   6.523   6.239   2.762  0.0005 -0.3549 -0.4846
15078TIP3    H166649   6.547   6.177   2.693 -0.4273  0.4176 -1.3479
15078TIP3    H266650   6.542   6.193   2.844 -0.3103 -1.6280 -1.1084
15079TIP3   OH266651   5.459   5.778  15.950 -0.0877  0.1675 -0.6519
15079TIP3    H166652   5.433   5.777  15.858  0.1651  0.3726 -0.7243
15079TIP3    H266653   5.426   5.862  15.983  1.0975  0.7529 -0.9206
15080TIP3   OH266654   1.283   3.169  15.272  0.6575 -0.8964 -0.3443
15080TIP3    H166655   1.188   3.154  15.273  0.8938 -2.4375  0.8747
15080TIP3    H266656   1.321   3.086  15.303  2.3283  0.2001  0.6411
15081TIP3   OH266657   3.210   3.848  14.706  0.1579 -0.1963  0.1532
15081TIP3    H166658   3.174   3.920  14.654  0.6079 -0.1394 -0.0868
15081TIP3    H266659   3.138   3.786  14.714 -0.3146  0.4126  0.6051
15082TIP3   OH266660   5.712   1.958   1.681  0.2111  0.0549  0.3880
15082TIP3    H166661   5.708   1.972   1.775 -0.9090 -0.1850  0.3879
15082TIP3    H266662   5.765   2.031   1.648 -0.7276  1.0464  1.0269
15083TIP3   OH266663   6.685   2.527  11.252  0.0837  0.2509  0.5226
15083TIP3    H166664   6.755   2.588  11.276 -0.1316  0.2569  1.1373
15083TIP3    H266665   6.703   2.448  11.303  1.1200 -0.7118 -1.2426
15084TIP3   OH266666   0.011   0.495   2.428 -0.0928  0.5363  0.0276
15084TIP3    H166667  -0.065   0.536   2.469 -1.0237  0.6380 -1.7601
15084TIP3    H266668  -0.021   0.410   2.398  0.6683  0.3063 -0.1393
15085TIP3   OH266669   3.925   0.682  14.221  0.2623 -0.0271  0.2338
15085TIP3    H166670   3.892   0.750  14.279  1.7338  0.3628  0.6203
15085TIP3    H266671   3.996   0.640  14.270 -0.3584 -1.5866 -0.1480
15086TIP3   OH266672   3.572   0.322   2.657 -0.1311  0.2109 -0.3857
15086TIP3    H166673   3.628   0.362   2.723  0.5921  0.5450 -1.1829
15086TIP3    H266674   3.515   0.394   2.628  0.1666  0.2964 -0.7657
15087TIP3   OH266675   3.010   1.133   1.018 -0.0252 -0.1062  0.3841
15087TIP3    H166676   2.989   1.198   0.951  0.6997  0.9870  1.2036
15087TIP3    H266677   2.926   1.095   1.042 -0.3684  0.0171 -0.6238
15088TIP3   OH266678   4.125   0.267   1.395  0.2044 -0.3143  0.5016
15088TIP3    H166679   4.045   0.267   1.447  0.5553  1.2681  1.0874
15088TIP3    H266680   4.193   0.295   1.456  1.0385 -0.7271 -0.2256
15089TIP3   OH266681   5.581   2.261   3.761 -0.3002  0.0954 -0.8408
15089TIP3    H166682   5.639   2.214   3.701  0.0087 -0.3451 -0.2048
15089TIP3    H266683   5.637   2.325   3.804 -0.1716 -0.6380  0.1101
15090TIP3   OH266684   6.011   6.625  15.726  0.2240 -0.6408 -0.7553
15090TIP3    H166685   5.996   6.720  15.733 -2.0503 -0.9850 -0.6446
15090TIP3    H266686   6.011   6.594  15.817 -1.7351 -1.1075 -0.8837
15091TIP3   OH266687   3.561   3.348   3.177 -0.0467  0.0808  0.0565
15091TIP3    H166688   3.502   3.299   3.235  1.6634 -1.9308  0.1334
15091TIP3    H266689   3.587   3.424   3.229 -2.6266  1.0804 -0.0190
15092TIP3   OH266690   6.554   2.613  15.399  0.1983 -0.0071 -0.0929
15092TIP3    H166691   6.638   2.657  15.389  0.2119  0.1591  0.7218
15092TIP3    H266692   6.573   2.535  15.450 -0.2851  0.5244  0.9293
15093TIP3   OH266693   6.041   6.769   5.120 -0.3651  0.6368  0.0062
15093TIP3    H166694   6.127   6.742   5.154 -0.1154  1.9375  0.4156
15093TIP3    H266695   6.006   6.828   5.187 -1.8249 -0.3140  0.1026
15094TIP3   OH266696   0.322   4.643  12.013 -0.3080  0.3169 -0.2917
15094TIP3    H166697   0.246   4.659  11.958 -1.0918  1.8837  1.2091
15094TIP3    H266698   0.384   4.713  11.990  0.9032 -1.2326 -1.8576
15095TIP3   OH266699   3.958   3.693   4.826 -0.0820  0.0013  0.5140
15095TIP3    H166700   3.880   3.745   4.842 -0.3176 -0.2053  0.0334
15095TIP3    H266701   3.987   3.718   4.738  0.6442  0.4011  0.8636
15096TIP3   OH266702   1.458   3.564   5.924 -0.4289  0.0563  0.0222
15096TIP3    H166703   1.498   3.504   5.861  1.8308  0.5184  0.9817
15096TIP3    H266704   1.460   3.649   5.880 -1.7451 -0.1705 -0.5108
15097TIP3   OH266705   2.970   6.282   3.053 -0.2628  0.7703 -0.1035
15097TIP3    H166706   2.999   6.373   3.053 -0.4052  0.8238 -1.0497
15097TIP3    H266707   3.045   6.233   3.021 -0.7111  0.7360 -1.1025
15098TIP3   OH266708   1.475   6.033   1.466 -0.7971  0.1467 -0.4667
15098TIP3    H166709   1.570   6.034   1.462 -0.6296 -2.3420  1.5077
15098TIP3    H266710   1.451   6.118   1.503  0.7745  0.1169  0.6608
15099TIP3   OH266711   4.100   5.699   4.610 -0.3884  0.0735  0.4172
15099TIP3    H166712   4.160   5.727   4.679  1.2957 -1.5769 -0.3257
15099TIP3    H266713   4.083   5.607   4.629 -1.2601  0.0604 -0.3959
15100TIP3   OH266714   1.165   2.134   5.621  0.1011  0.2396 -0.0851
15100TIP3    H166715   1.105   2.062   5.599 -1.4608  1.0577  1.3709
15100TIP3    H266716   1.182   2.177   5.537 -1.3615 -0.0016 -0.5242
15101TIP3   OH266717   2.683   1.506   1.569 -0.1823 -0.4548  0.1829
15101TIP3    H166718   2.710   1.582   1.621 -1.2513  0.1708 -0.1629
15101TIP3    H266719   2.602   1.476   1.610  0.8031 -2.0988  0.9810
15102TIP3   OH266720   5.807   0.534  14.966  0.3281 -0.2033 -0.1584
15102TIP3    H166721   5.877   0.469  14.959  1.5812  1.2043 -1.1247
15102TIP3    H266722   5.851   0.618  14.953 -1.3241  0.8198  0.6722
15103TIP3   OH266723   4.676   2.777  15.433 -0.3657  0.1670  0.6479
15103TIP3    H166724   4.586   2.807  15.441 -0.0638  1.3056  0.0173
15103TIP3    H266725   4.681   2.698  15.487 -1.8529 -0.1689  0.3078
15104TIP3   OH266726   2.834   6.493  13.420 -0.2738  0.2996 -0.1018
15104TIP3    H166727   2.853   6.570  13.366 -0.9906  1.5377  1.3726
15104TIP3    H266728   2.762   6.449  13.375 -1.6545  1.9611  0.4084
15105TIP3   OH266729   0.392   3.006   4.709  0.1538  0.1348  0.0330
15105TIP3    H166730   0.429   2.922   4.682  1.3603  1.2866 -1.9610
15105TIP3    H266731   0.317   3.019   4.651 -1.0684 -0.3113  1.4514
15106TIP3   OH266732   1.181   6.423  16.424 -0.1913  0.0401 -0.1328
15106TIP3    H166733   1.086   6.421  16.418 -0.0957 -1.0706 -1.4864
15106TIP3    H266734   1.204   6.515  16.419 -1.1844  0.2892 -0.1266
15107TIP3   OH266735   0.484   5.340  11.522 -0.2726  0.3808  0.1733
15107TIP3    H166736   0.397   5.379  11.526 -1.0948 -1.3526 -0.1610
15107TIP3    H266737   0.512   5.335  11.614 -1.8079 -1.7583  0.5748
15108TIP3   OH266738   1.614   5.678  10.771 -0.0372  0.0452 -0.1472
15108TIP3    H166739   1.557   5.611  10.733  1.5226 -0.7539 -1.1309
15108TIP3    H266740   1.592   5.758  10.723 -0.6444 -0.1622 -0.2171
15109TIP3   OH266741   0.146   0.463   1.599 -0.0772  0.0318  0.0853
15109TIP3    H166742   0.088   0.387   1.590 -1.7911  1.1959  1.0620
15109TIP3    H266743   0.171   0.463   1.691 -0.1542  0.6937  0.1091
15110TIP3   OH266744   4.803   3.933  13.553 -0.1562  0.3375 -0.1058
15110TIP3    H166745   4.709   3.913  13.545 -0.0238 -0.5808  0.4909
15110TIP3    H266746   4.820   3.933  13.647  0.5276  0.0839 -0.2246
15111TIP3   OH266747   1.998   2.403   1.853 -0.1432 -0.0381 -0.1044
15111TIP3    H166748   2.046   2.324   1.876  0.5113  0.0275 -1.2286
15111TIP3    H266749   2.062   2.474   1.862 -0.2077  0.1333 -0.9579
15112TIP3   OH266750   2.528   0.198   3.285 -0.3005  0.0865 -0.1247
15112TIP3    H166751   2.559   0.227   3.371  2.3466 -0.5434 -0.8426
15112TIP3    H266752   2.531   0.102   3.289 -2.6802 -0.0200 -0.0542
15113TIP3   OH266753   3.169   6.362   4.173  0.0557 -0.4356 -0.2430
15113TIP3    H166754   3.082   6.397   4.152  0.3888  1.1450  0.9219
15113TIP3    H266755   3.195   6.410   4.252  2.0027 -0.8654 -0.6127
15114TIP3   OH266756   4.294   1.953   5.372 -0.1284 -0.6190  0.5971
15114TIP3    H166757   4.305   1.929   5.464  1.2091 -0.6801  0.4280
15114TIP3    H266758   4.325   2.043   5.367 -0.7471 -0.4190  0.3143
15115TIP3   OH266759   3.806   1.475   1.522 -0.4406 -0.4654  1.0174
15115TIP3    H166760   3.778   1.566   1.526 -0.0368 -0.3136  0.4639
15115TIP3    H266761   3.777   1.445   1.436 -0.2001 -0.7345  1.0305
15116TIP3   OH266762   1.078   0.049  15.166 -0.2279 -0.0066 -0.6618
15116TIP3    H166763   0.984   0.064  15.172 -0.4057  0.4068 -3.5225
15116TIP3    H266764   1.091  -0.041  15.194 -1.3484  0.2498  0.6909
15117TIP3   OH266765   1.948   2.864   3.367 -0.4269  0.2276  0.0498
15117TIP3    H166766   1.857   2.862   3.396 -0.6819 -0.6171 -0.7830
15117TIP3    H266767   1.947   2.820   3.283  1.0424 -1.3769  0.8396
15118TIP3   OH266768   1.741   0.706   3.775 -0.0861 -0.0594  0.1501
15118TIP3    H166769   1.809   0.643   3.751  0.4760  0.4399  0.4128
15118TIP3    H266770   1.678   0.655   3.827 -1.8058 -1.3820 -3.0730
15119TIP3   OH266771   6.332   1.317  15.036 -0.3962 -0.1314 -0.2215
15119TIP3    H166772   6.382   1.236  15.030 -0.8139 -0.3325 -1.0082
15119TIP3    H266773   6.395   1.381  15.068  0.7012 -0.1203 -2.2671
15120TIP3   OH266774   6.502   3.984  15.547  0.6729  0.1928 -0.3692
15120TIP3    H166775   6.438   3.919  15.520 -0.3943  1.3454 -0.6457
15120TIP3    H266776   6.568   3.934  15.596  0.4754 -1.2615 -1.5642
15121TIP3   OH266777   1.963   3.828   1.965 -0.6549 -0.0596 -0.0702
15121TIP3    H166778   1.976   3.784   2.049  2.5258  0.6791 -0.0861
15121TIP3    H266779   1.917   3.909   1.987  0.5098  0.3170  1.0272
15122TIP3   OH266780   1.705   1.726   4.294 -0.4388 -0.0747  0.7058
15122TIP3    H166781   1.637   1.674   4.337 -1.8793  1.7258  0.6472
15122TIP3    H266782   1.668   1.814   4.289  0.9856  0.4338 -1.3618
15123TIP3   OH266783   4.292   5.176  13.192 -0.2595  0.5948 -0.7913
15123TIP3    H166784   4.263   5.185  13.283  0.8435 -3.0542  0.0231
15123TIP3    H266785   4.370   5.231  13.186 -0.4585  1.0243  0.4084
15124TIP3   OH266786   3.387   6.063  14.915 -0.6978  0.2928 -0.5298
15124TIP3    H166787   3.386   6.038  14.822  1.9034  0.3260 -0.6171
15124TIP3    H266788   3.331   6.141  14.919  0.4015  1.2431 -2.4036
15125TIP3   OH266789   4.439   6.654   2.470 -0.1188 -0.2317 -0.4164
15125TIP3    H166790   4.489   6.659   2.551  1.1920  0.0234 -1.2196
15125TIP3    H266791   4.489   6.595   2.414 -0.7416 -0.0175 -1.2143
15126TIP3   OH266792   0.275   1.604  15.917 -0.4181  0.1138 -1.0492
15126TIP3    H166793   0.218   1.643  15.851 -0.4555  1.2557 -0.3624
15126TIP3    H266794   0.283   1.671  15.985 -1.5488 -1.5635  0.8035
15127TIP3   OH266795   5.457   4.112   6.087 -0.7014  0.0005 -0.3613
15127TIP3    H166796   5.413   4.191   6.119 -0.6645  0.0276 -0.3761
15127TIP3    H266797   5.453   4.052   6.161 -0.9625 -0.0787 -0.4391
15128TIP3   OH266798   3.155   0.837   5.947  1.0431 -0.3217  0.2078
15128TIP3    H166799   3.060   0.836   5.941  1.0520 -1.1632  0.2200
15128TIP3    H266800   3.175   0.906   6.011  0.4281 -0.5344  0.6264
15129TIP3   OH266801   2.116   4.072  11.988 -0.1759  0.0708  0.6564
15129TIP3    H166802   2.174   4.097  12.060  0.8409 -1.6612  0.4681
15129TIP3    H266803   2.065   3.999  12.023 -2.1025  1.4022  0.7302
15130TIP3   OH266804   1.152   2.691  16.513  0.6459 -0.5929 -1.0642
15130TIP3    H166805   1.145   2.782  16.543  0.4368 -0.2717 -2.0450
15130TIP3    H266806   1.210   2.649  16.576  0.7300  0.2210 -0.5913
15131TIP3   OH266807   5.117   4.050  14.406 -0.9229 -0.6114  0.4379
15131TIP3    H166808   5.163   4.006  14.477  1.0104  0.2001 -0.2689
15131TIP3    H266809   5.183   4.108  14.367 -2.1296 -0.5321 -1.5738
15132TIP3   OH266810   2.370   0.134   0.497 -0.8284 -0.1821  0.1567
15132TIP3    H166811   2.380   0.079   0.420  0.5119  0.0724  0.1424
15132TIP3    H266812   2.341   0.219   0.462 -0.2185 -0.0656 -0.0749
15133TIP3   OH266813   0.183   0.344   3.555 -0.2307  0.1772  0.2997
15133TIP3    H166814   0.145   0.316   3.472  0.8418  0.2382 -0.2207
15133TIP3    H266815   0.108   0.372   3.608 -0.8128  1.3680 -1.1223
15134TIP3   OH266816   2.780   2.478   1.125 -0.3366  0.4696  0.1559
15134TIP3    H166817   2.824   2.494   1.209 -1.3202  0.8328  0.6103
15134TIP3    H266818   2.820   2.541   1.065  2.5969 -1.8597 -0.4597
15135TIP3   OH266819   1.839   2.690   4.010  0.2667 -0.2726 -0.5331
15135TIP3    H166820   1.803   2.769   4.050  0.7711 -0.2321 -0.1649
15135TIP3    H266821   1.908   2.662   4.069  0.6454 -0.5229 -1.0874
15136TIP3   OH266822   6.674   4.738  13.555 -1.0119  0.7833 -0.6478
15136TIP3    H166823   6.585   4.708  13.576 -1.0068  0.2555 -1.3596
15136TIP3    H266824   6.661   4.826  13.521 -0.9075  2.1086  2.5941
15137TIP3   OH266825   4.791   1.806   4.332 -0.0392 -0.2720 -0.5629
15137TIP3    H166826   4.790   1.790   4.427  1.2332 -0.1011 -0.5196
15137TIP3    H266827   4.825   1.726   4.294  1.3628  0.3739 -0.7172
15138TIP3   OH266828   4.840   2.974  15.606  0.2016 -0.5055 -0.4283
15138TIP3    H166829   4.791   2.940  15.681 -0.3918  0.1234 -0.5209
15138TIP3    H266830   4.798   2.933  15.530  0.4072 -0.6667 -0.4549
15139TIP3   OH266831   3.329   4.520   6.129 -0.9034  0.1351  0.5059
15139TIP3    H166832   3.270   4.446   6.118  0.1984 -1.1252  2.8110
15139TIP3    H266833   3.305   4.558   6.213  0.6864  0.4261  0.8352
15140TIP3   OH266834   2.868   6.592   4.929 -0.0205  0.6132  0.2755
15140TIP3    H166835   2.872   6.535   5.006 -0.2460  1.3551  0.8511
15140TIP3    H266836   2.787   6.566   4.884 -0.2407  0.6300  0.6558
15141TIP3   OH266837   3.347   3.411  13.757  0.1507 -0.2711  0.1594
15141TIP3    H166838   3.267   3.364  13.777 -0.1999 -0.1160 -0.8672
15141TIP3    H266839   3.417   3.350  13.781 -0.2204  0.1076  2.3731
15142TIP3   OH266840   1.731   3.555  12.974  0.8623 -0.6171  0.1072
15142TIP3    H166841   1.770   3.494  13.036  1.5317 -0.1817  0.1204
15142TIP3    H266842   1.803   3.579  12.915  0.1766 -1.2282 -0.9999
15143TIP3   OH266843   4.277   1.267  12.675  0.2014 -0.3117 -0.1504
15143TIP3    H166844   4.214   1.305  12.613  0.4328  2.7851  1.3977
15143TIP3    H266845   4.231   1.264  12.758  0.8167 -1.7907  0.1531
15144TIP3   OH266846   0.825   2.837   5.221 -0.2296 -0.1222  0.1397
15144TIP3    H166847   0.855   2.924   5.194 -0.2774 -0.2254 -0.2502
15144TIP3    H266848   0.730   2.841   5.215 -0.2597 -0.0436  0.6172
15145TIP3   OH266849   0.395   5.431   6.444  0.3717  0.7250  0.5549
15145TIP3    H166850   0.341   5.496   6.489  1.6263  0.5737  2.3312
15145TIP3    H266851   0.485   5.451   6.471  1.0126 -0.2669 -0.7677
15146TIP3   OH266852   0.416   0.875   3.070 -0.0137 -0.3879  0.0014
15146TIP3    H166853   0.432   0.852   3.161  0.0012 -0.2031  0.0462
15146TIP3    H266854   0.343   0.819   3.043  0.5165 -1.0283 -0.1204
15147TIP3   OH266855   5.939   4.373  16.990  0.1779 -0.3066 -0.5277
15147TIP3    H166856   5.888   4.295  16.966  1.1947 -0.9972 -0.4940
15147TIP3    H266857   5.923   4.384  17.083 -0.6089  0.0072 -0.6972
15148TIP3   OH266858   3.336   5.703  11.712  0.6185  0.8405 -0.0486
15148TIP3    H166859   3.426   5.719  11.739  0.7188  0.4531 -0.1443
15148TIP3    H266860   3.318   5.770  11.646  0.4600  1.6191  0.7739
15149TIP3   OH266861   4.320   4.109  16.255  0.1705 -0.0946 -0.5730
15149TIP3    H166862   4.225   4.113  16.254  0.2162  1.5671  0.1891
15149TIP3    H266863   4.348   4.176  16.194  0.8632 -0.4068 -0.6070
15150TIP3   OH266864   1.962   1.001   4.731 -0.0650  0.1226 -0.2546
15150TIP3    H166865   2.003   0.919   4.704  0.0771  1.1259 -3.3643
15150TIP3    H266866   1.872   0.977   4.754  0.1675 -0.9996 -0.5075
15151TIP3   OH266867   5.953   2.478   4.428 -0.2910 -0.3333 -0.0719
15151TIP3    H166868   5.934   2.418   4.500 -1.8860 -1.1817 -1.1902
15151TIP3    H266869   5.900   2.556   4.447  2.2869  1.0689  1.7398
15152TIP3   OH266870   0.123   1.542   5.621  0.5003  0.0212 -0.2406
15152TIP3    H166871   0.111   1.454   5.657 -2.9392 -0.4797 -2.4076
15152TIP3    H266872   0.209   1.569   5.652  0.5724 -3.1076  2.5292
15153TIP3   OH266873   2.494   6.610  12.496  0.4604  0.4630 -0.1642
15153TIP3    H166874   2.502   6.601  12.401 -2.0197 -0.6172 -0.3039
15153TIP3    H266875   2.520   6.525  12.531 -0.5722  0.2042 -0.0142
15154TIP3   OH266876   2.633   1.499   1.941  0.3672 -0.5509  0.5750
15154TIP3    H166877   2.572   1.438   1.981  0.7529 -2.3243 -1.4322
15154TIP3    H266878   2.717   1.454   1.942  1.1265  0.8411  1.0401
15155TIP3   OH266879   5.956   2.954   2.890 -0.0791  0.6478  0.0991
15155TIP3    H166880   5.930   2.929   2.979 -0.7855 -0.5062 -0.4266
15155TIP3    H266881   5.962   3.050   2.893  0.5460  0.5732  1.5549
15156TIP3   OH266882   5.020   5.334  16.514  0.8134  0.0109 -0.3848
15156TIP3    H166883   5.099   5.309  16.563 -0.7387 -1.2089  1.5996
15156TIP3    H266884   5.016   5.429  16.522  0.9776 -0.1057  1.2892
15157TIP3   OH266885   5.773   0.908   3.701 -0.1008 -0.5838 -0.2663
15157TIP3    H166886   5.832   0.966   3.749  0.6363 -0.8369 -0.8649
15157TIP3    H266887   5.686   0.932   3.733  0.0714  1.7247 -1.3924
15158TIP3   OH266888   6.161   2.051   2.752  0.3662  0.0149 -0.7893
15158TIP3    H166889   6.234   1.990   2.764  0.2435 -0.1105 -0.6708
15158TIP3    H266890   6.087   1.996   2.728 -0.0565 -0.0225  0.5558
15159TIP3   OH266891   2.057   5.869  14.219  0.5503  0.0639 -0.0191
15159TIP3    H166892   1.994   5.905  14.281  1.1555  0.9651  0.0865
15159TIP3    H266893   2.008   5.803  14.169 -0.5574  1.0092 -0.1844
15160TIP3   OH266894   0.512   1.343   3.933 -0.5529 -0.4554  0.3368
15160TIP3    H166895   0.507   1.270   3.995  0.7252 -0.4670  0.4545
15160TIP3    H266896   0.527   1.301   3.848  1.4989 -0.2962  0.5990
15161TIP3   OH266897   6.212   1.409   0.774 -0.2149 -0.2988 -0.2316
15161TIP3    H166898   6.232   1.328   0.728 -0.9831 -1.1678  0.9363
15161TIP3    H266899   6.270   1.474   0.735  1.3960 -1.7039 -0.2074
15162TIP3   OH266900   3.081   4.582  11.724  0.0772 -0.0277  0.3391
15162TIP3    H166901   3.081   4.648  11.655  0.0826 -0.5157 -0.1380
15162TIP3    H266902   3.093   4.499  11.677 -1.5832 -0.5334  0.7651
15163TIP3   OH266903   5.830   3.965   5.255 -0.1073  0.1517  0.6837
15163TIP3    H166904   5.791   4.043   5.214  0.1168 -0.2879 -0.3675
15163TIP3    H266905   5.759   3.929   5.308 -0.6312  0.2918  0.0834
15164TIP3   OH266906   4.665   4.487  16.733 -0.1710  0.0847  0.4605
15164TIP3    H166907   4.666   4.565  16.678  0.1752 -0.9009 -0.9396
15164TIP3    H266908   4.573   4.468  16.748 -0.2627  0.3613  0.2369
15165TIP3   OH266909   4.084   1.354  10.309 -0.3345 -0.7252 -0.0185
15165TIP3    H166910   4.169   1.395  10.296 -0.4653 -0.7277 -0.9084
15165TIP3    H266911   4.023   1.428  10.314 -0.1503 -0.6629  1.7775
15166TIP3   OH266912   6.701   5.951   5.629 -0.4417  0.2487  0.2156
15166TIP3    H166913   6.642   5.989   5.564  1.1949  0.1499 -1.3883
15166TIP3    H266914   6.676   5.859   5.633 -0.1519  0.1228 -0.7504
15167TIP3   OH266915   0.531   5.477   3.154 -0.0762 -0.0444  0.2087
15167TIP3    H166916   0.561   5.542   3.090 -0.2225 -0.8732 -0.7078
15167TIP3    H266917   0.612   5.434   3.183 -0.0761 -0.1378  0.0705
15168TIP3   OH266918   0.237   2.619   1.715 -0.5828  0.0246  0.4599
15168TIP3    H166919   0.289   2.555   1.666  1.5716  0.4116  2.1518
15168TIP3    H266920   0.191   2.668   1.647  0.5690 -0.9298 -1.0638
15169TIP3   OH266921   1.933   6.112  16.848  0.0379  0.3230  0.4662
15169TIP3    H166922   1.961   6.199  16.875  0.6967 -0.0056  0.8676
15169TIP3    H266923   1.915   6.066  16.930  2.4632 -0.8138  0.4171
15170TIP3   OH266924   3.261   1.908  12.617  0.1763 -0.1295 -0.2492
15170TIP3    H166925   3.352   1.931  12.635 -0.3970  1.2490  0.9649
15170TIP3    H266926   3.237   1.960  12.540  0.7092 -1.2867 -1.2238
15171TIP3   OH266927   3.332   1.326   4.776 -0.2062 -0.3498  0.1151
15171TIP3    H166928   3.374   1.257   4.828 -2.9507 -0.4460  2.3110
15171TIP3    H266929   3.356   1.407   4.821 -0.4217 -0.2129 -0.0170
15172TIP3   OH266930   0.954   3.164   4.475  0.1866  0.5152 -0.0876
15172TIP3    H166931   1.037   3.177   4.430  1.2491 -0.0703  1.6630
15172TIP3    H266932   0.909   3.248   4.466  2.0361  1.6749  1.0613
15173TIP3   OH266933   1.411   1.338  12.831 -0.0911  0.0286 -0.3933
15173TIP3    H166934   1.348   1.273  12.860  0.2140  0.0459  0.3208
15173TIP3    H266935   1.373   1.422  12.854 -0.0170  0.0604 -0.3843
15174TIP3   OH266936   2.583   1.319   1.054 -0.0609 -0.2991  0.5653
15174TIP3    H166937   2.636   1.318   1.134  0.4230 -2.5799  0.2401
15174TIP3    H266938   2.500   1.277   1.080  0.3175 -1.5719 -0.2618
15175TIP3   OH266939   6.269   3.407  16.134 -0.1340 -0.2670  0.6041
15175TIP3    H166940   6.309   3.483  16.177  2.0276 -1.1804  0.2853
15175TIP3    H266941   6.316   3.399  16.051 -2.3908 -0.1853 -0.7071
15176TIP3   OH266942   0.766   5.115  13.860 -0.5717 -0.0951  0.3899
15176TIP3    H166943   0.849   5.078  13.890 -1.1346 -2.2641 -0.6757
15176TIP3    H266944   0.791   5.192  13.809  0.7594 -0.4686  0.4719
15177TIP3   OH266945   3.242   0.188   2.674 -0.0926  0.1937  0.5254
15177TIP3    H166946   3.276   0.237   2.749 -0.7534 -1.3476  1.8703
15177TIP3    H266947   3.319   0.146   2.637  0.0944  0.0780  1.0303
15178TIP3   OH266948   2.631   3.568   0.503  0.4441  0.7305 -0.1343
15178TIP3    H166949   2.631   3.661   0.525 -0.1652  0.9108 -0.8633
15178TIP3    H266950   2.647   3.565   0.409 -0.8296  0.1750 -0.3564
15179TIP3   OH266951   5.121   3.430   2.929  0.2274  0.3598  0.4251
15179TIP3    H166952   5.085   3.452   3.015  0.6260  1.4047  0.3343
15179TIP3    H266953   5.101   3.506   2.875  1.8535  0.6037  0.1596
15180TIP3   OH266954   0.967   2.546  14.956 -0.1303  0.0118  0.0331
15180TIP3    H166955   1.033   2.569  15.022 -0.4089  1.4972 -0.1800
15180TIP3    H266956   0.902   2.495  15.004 -0.0212  0.5642  0.7838
15181TIP3   OH266957   4.434   1.555   5.904 -0.1974 -0.1343 -0.1831
15181TIP3    H166958   4.516   1.522   5.939 -0.0068  2.2409  1.7337
15181TIP3    H266959   4.372   1.549   5.976 -1.3758 -0.6345 -1.2035
15182TIP3   OH266960   5.483   3.740  13.754  0.0333 -0.2898 -0.1743
15182TIP3    H166961   5.434   3.817  13.782 -0.4928 -0.3988 -0.7896
15182TIP3    H266962   5.416   3.676  13.729  0.4409 -1.4481  1.6288
15183TIP3   OH266963   0.313   0.691  10.790 -0.0328 -0.1792  0.8080
15183TIP3    H166964   0.309   0.604  10.751 -0.5923 -0.0186  0.5082
15183TIP3    H266965   0.322   0.750  10.716 -0.8430  0.1095  0.9389
15184TIP3   OH266966   3.063   4.674  14.057 -0.0147  0.3435  0.3124
15184TIP3    H166967   3.043   4.581  14.059 -1.7300  0.6955  1.5029
15184TIP3    H266968   3.156   4.680  14.078 -0.0851 -1.0417  1.0647
15185TIP3   OH266969   2.878   2.190  11.598 -0.1005 -0.0916 -0.1691
15185TIP3    H166970   2.884   2.200  11.503 -0.4803  0.1828 -0.1669
15185TIP3    H266971   2.864   2.096  11.612 -0.5165 -0.0682 -0.4096
15186TIP3   OH266972   5.546   0.836   5.059 -0.4948  0.3956  0.2703
15186TIP3    H166973   5.628   0.861   5.101 -1.0336 -1.7899  2.7776
15186TIP3    H266974   5.542   0.741   5.070 -2.5649  0.2796 -1.3029
15187TIP3   OH266975   5.707   0.227   1.800 -0.1849 -0.4655 -0.0189
15187TIP3    H166976   5.689   0.309   1.753  0.3028 -1.0386 -1.2326
15187TIP3    H266977   5.789   0.195   1.762 -0.3885 -1.5283  0.4182
15188TIP3   OH266978   4.943   2.555   0.832  0.1265 -0.2716 -0.0236
15188TIP3    H166979   5.009   2.553   0.762  0.5589  0.8888  0.3469
15188TIP3    H266980   4.863   2.583   0.788 -0.0122 -1.2116 -0.3808
15189TIP3   OH266981   5.901   5.110   0.491 -0.2280 -0.2827 -0.5720
15189TIP3    H166982   5.849   5.164   0.432 -0.0300  0.7031  0.1189
15189TIP3    H266983   5.991   5.142   0.479 -0.1008 -0.4943 -0.1901
15190TIP3   OH266984   1.429   2.027  11.639 -0.2932 -0.4045 -0.1854
15190TIP3    H166985   1.475   1.956  11.594  0.8870  0.2163  0.0248
15190TIP3    H266986   1.494   2.063  11.700 -1.1190  0.3520  0.2621
15191TIP3   OH266987   5.176   2.345  17.078  0.0124 -0.0768 -0.1088
15191TIP3    H166988   5.136   2.300  17.004 -0.0087 -1.2918  0.6096
15191TIP3    H266989   5.266   2.311  17.081 -0.1012 -0.3355  0.6386
15192TIP3   OH266990   3.510   1.510  11.361 -0.0389  0.2317  0.5774
15192TIP3    H166991   3.540   1.430  11.405 -1.0556 -0.5508 -0.1232
15192TIP3    H266992   3.417   1.514  11.380 -0.7561 -0.7555 -2.4313
15193TIP3   OH266993   5.050   6.503  11.055 -0.4771 -0.2274 -0.1486
15193TIP3    H166994   4.996   6.464  10.986 -0.8977 -2.4356  1.3817
15193TIP3    H266995   5.002   6.581  11.082 -2.1673 -1.3656  0.1876
15194TIP3   OH266996   1.089   1.089   4.110  0.4273  0.1112  0.6477
15194TIP3    H166997   1.017   1.111   4.052  0.6247  2.2322  1.1655
15194TIP3    H266998   1.054   1.022   4.169  0.0149 -1.5413 -1.4055
15195TIP3   OH266999   1.692   6.702   0.800  0.6673  0.2380  0.2832
15195TIP3    H167000   1.777   6.681   0.837  1.3612  0.5067 -1.1357
15195TIP3    H267001   1.683   6.644   0.725  0.0208  0.8841 -0.1440
15196TIP3   OH267002   5.525   0.019   1.802 -0.0502  0.5373 -0.4287
15196TIP3    H167003   5.584   0.095   1.803 -0.1685  0.6907 -2.3608
15196TIP3    H267004   5.583  -0.057   1.809 -0.0212  0.8030  2.8969
15197TIP3   OH267005   0.996   3.041   0.258 -0.3227 -0.3834  0.4909
15197TIP3    H167006   0.912   3.053   0.303  0.4418  0.7749  1.6099
15197TIP3    H267007   1.051   3.112   0.289  0.5533 -0.1422 -1.5326
15198TIP3   OH267008   4.102   4.856   1.595  0.6031  0.3176  0.7151
15198TIP3    H167009   4.030   4.821   1.543  1.1940  0.1012  0.0448
15198TIP3    H267010   4.148   4.916   1.537  1.1442  0.2305  1.0433
15199TIP3   OH267011   3.826   5.915   6.713 -0.0403 -0.1332  0.1775
15199TIP3    H167012   3.905   5.879   6.672 -0.2580 -1.2090  0.7131
15199TIP3    H267013   3.858   5.963   6.789  0.1005 -0.4858  0.3379
15200TIP3   OH267014   0.194   6.539  12.582 -0.5179  0.1293  0.1056
15200TIP3    H167015   0.233   6.616  12.542  0.6009 -0.2182  0.5092
15200TIP3    H267016   0.105   6.536  12.546  0.1420  0.3638 -1.6042
15201TIP3   OH267017   3.809   4.836  15.264 -0.0551 -0.0439  0.2619
15201TIP3    H167018   3.775   4.918  15.300  0.5152 -0.0212  0.7697
15201TIP3    H267019   3.887   4.863  15.215  1.1142 -0.4714  1.8424
15202TIP3   OH267020   2.956   6.414  12.663  0.0339  0.6048 -0.8974
15202TIP3    H167021   2.863   6.438  12.665  0.0484  0.6085 -0.2116
15202TIP3    H267022   2.964   6.340  12.723  0.6423  1.2045 -0.2298
15203TIP3   OH267023   3.849   1.319  12.768  0.5960  0.0664 -0.5158
15203TIP3    H167024   3.799   1.399  12.753  2.2399  1.5430  1.5529
15203TIP3    H267025   3.876   1.324  12.860  3.5287 -1.2257 -1.2475
15204TIP3   OH267026   0.320   5.284   4.020  0.3178 -0.0389 -0.2631
15204TIP3    H167027   0.265   5.340   4.075  0.3273  1.1229 -1.4031
15204TIP3    H267028   0.388   5.250   4.079 -0.6158 -0.1163  0.7765
15205TIP3   OH267029   3.018   1.133   0.482  0.4814 -0.2144 -0.0936
15205TIP3    H167030   2.954   1.071   0.516  1.1704 -0.7557  0.2389
15205TIP3    H267031   2.978   1.219   0.496  0.2982 -0.4849  1.1311
15206TIP3   OH267032   4.032   2.926   5.060 -0.3337 -0.6602 -0.1551
15206TIP3    H167033   4.048   3.000   5.118  2.3787 -0.9369 -0.5221
15206TIP3    H267034   3.989   2.861   5.116  1.2299 -0.4873  1.2768
15207TIP3   OH267035   0.833   4.330   2.049 -0.3383 -0.1017 -0.0554
15207TIP3    H167036   0.820   4.334   1.954 -3.4000  1.6356  0.3675
15207TIP3    H267037   0.838   4.421   2.077  0.7525 -0.5985  1.4372
15208TIP3   OH267038   2.832   2.914  14.137  0.1462  0.4167 -0.2524
15208TIP3    H167039   2.823   2.819  14.147  0.9975  0.4101  0.5158
15208TIP3    H267040   2.747   2.942  14.103 -0.2222 -0.5783 -0.1904
15209TIP3   OH267041   4.123   4.173  14.455  0.4696 -0.1383  0.0455
15209TIP3    H167042   4.144   4.081  14.435 -1.1351 -0.6143  0.4890
15209TIP3    H267043   4.033   4.170  14.486  0.8572  1.4189  1.3587
15210TIP3   OH267044   0.861   5.386   0.463  0.4610  0.3557 -0.7477
15210TIP3    H167045   0.843   5.456   0.525 -1.0658  0.8954 -1.7536
15210TIP3    H267046   0.893   5.313   0.516  0.1596  1.1523  0.5377
15211TIP3   OH267047   0.567   4.625  15.631  0.3039  0.6135  0.1432
15211TIP3    H167048   0.559   4.592  15.721  1.9113  0.4749  0.2417
15211TIP3    H267049   0.514   4.565  15.579  1.0020 -0.5147  0.7065
15212TIP3   OH267050   3.328   4.752  16.147  0.0526 -0.5105 -0.0083
15212TIP3    H167051   3.374   4.734  16.229  0.9621  1.3549 -0.0806
15212TIP3    H267052   3.396   4.784  16.088 -0.6896 -1.3055 -1.3414
15213TIP3   OH267053   0.619   6.393  11.424  0.0741 -0.6106  0.2393
15213TIP3    H167054   0.676   6.374  11.350  0.2268  3.1579 -0.7312
15213TIP3    H267055   0.534   6.358  11.399  0.6350 -1.2920 -0.7583
15214TIP3   OH267056   3.175   0.270  13.845 -0.2372 -0.4040 -0.9887
15214TIP3    H167057   3.114   0.318  13.788  0.7525 -0.2766 -1.9587
15214TIP3    H267058   3.200   0.333  13.912 -2.4717 -0.9600  0.4236
15215TIP3   OH267059   5.273   6.190   2.113 -0.5878 -0.4281 -0.0016
15215TIP3    H167060   5.343   6.141   2.069 -1.2273  0.4373 -2.0579
15215TIP3    H267061   5.242   6.251   2.047 -1.4210  1.1248  1.7870
15216TIP3   OH267062   6.768   6.047  10.482 -0.0494 -0.2830 -0.0961
15216TIP3    H167063   6.790   5.994  10.406  2.5983 -0.1561  0.5191
15216TIP3    H267064   6.762   5.985  10.554 -1.2186 -0.2463 -0.1585
15217TIP3   OH267065   0.675   1.330  16.003  0.2349  0.3975 -0.0426
15217TIP3    H167066   0.705   1.324  15.913  0.8279  0.3917  0.1523
15217TIP3    H267067   0.580   1.320  15.998  0.5140 -2.5433 -0.3872
15218TIP3   OH267068   1.167   2.928  16.674  0.2142 -0.1634 -0.4044
15218TIP3    H167069   1.109   2.959  16.744 -0.7736 -0.7787 -0.9441
15218TIP3    H267070   1.255   2.943  16.708 -0.2453  1.6870  0.0309
15219TIP3   OH267071   1.672   0.101   4.067  0.4703  0.6672 -0.1675
15219TIP3    H167072   1.721   0.053   4.000 -2.3671 -1.4729 -0.8070
15219TIP3    H267073   1.621   0.166   4.018 -0.7978 -0.1932 -0.0255
15220TIP3   OH267074   1.827   5.409   6.321 -0.1863  0.4796 -0.2084
15220TIP3    H167075   1.825   5.491   6.272 -1.5761  0.1892 -0.6725
15220TIP3    H267076   1.805   5.342   6.256 -0.9210 -0.0391  0.5579
15221TIP3   OH267077   1.984   1.067  12.822 -0.0492 -0.2371 -0.2393
15221TIP3    H167078   1.969   1.058  12.916 -0.6766  0.5363 -0.2648
15221TIP3    H267079   1.919   1.009  12.782  1.2654 -1.7949 -0.1552
15222TIP3   OH267080   1.817   6.661  15.280 -0.1344  0.1074  0.0774
15222TIP3    H167081   1.743   6.621  15.326  0.1176 -1.0143 -0.4772
15222TIP3    H267082   1.832   6.604  15.205  0.1376  1.3496 -0.8119
15223TIP3   OH267083   5.367   3.873   1.499 -0.2652  0.0323  0.0987
15223TIP3    H167084   5.380   3.927   1.421 -0.6009 -1.1738 -0.8169
15223TIP3    H267085   5.446   3.887   1.551 -0.5254  1.6981  0.0805
15224TIP3   OH267086   4.360   0.304  12.002 -0.0654 -0.6831  0.3604
15224TIP3    H167087   4.427   0.285  12.067 -0.0564 -0.1713  0.5080
15224TIP3    H267088   4.308   0.374  12.042  0.2095 -0.0531 -0.3714
15225TIP3   OH267089   1.918   2.359  11.077 -0.0779 -0.1277 -0.1734
15225TIP3    H167090   1.988   2.415  11.045  0.7819 -0.9945  0.1825
15225TIP3    H267091   1.948   2.269  11.060  1.0629 -0.7193  4.3078
15226TIP3   OH267092   5.644   0.756  13.936  0.1705  0.1442 -0.0831
15226TIP3    H167093   5.599   0.739  14.018  2.6052  1.4867  1.5807
15226TIP3    H267094   5.707   0.685  13.927  0.6099  0.5509 -0.2703
15227TIP3   OH267095   1.711   5.394  16.271  0.0410 -0.7884  0.1106
15227TIP3    H167096   1.732   5.486  16.285  0.5237 -0.4640 -2.4884
15227TIP3    H267097   1.618   5.387  16.293  0.3534 -0.0051  1.7177
15228TIP3   OH267098   3.364   4.066  16.913  0.4408 -0.1644  0.1996
15228TIP3    H167099   3.421   4.082  16.837 -0.4197 -0.1760 -0.4548
15228TIP3    H267100   3.383   4.138  16.973  0.8394  0.0686 -0.2011
15229TIP3   OH267101   1.998   2.612  16.866  0.4503 -0.3126 -0.1437
15229TIP3    H167102   2.083   2.656  16.854 -0.0377  1.2145  1.8069
15229TIP3    H267103   2.019   2.519  16.863  2.4729  0.0210  1.8373
15230TIP3   OH267104   0.935   0.132   3.644 -1.2596  0.1381  0.3559
15230TIP3    H167105   0.987   0.052   3.650 -1.1876  0.2224  0.8228
15230TIP3    H267106   0.999   0.201   3.630 -1.3596  0.0510 -0.5876
15231TIP3   OH267107   4.411   6.071  16.122 -0.4795  0.1670  0.4558
15231TIP3    H167108   4.354   6.024  16.183  1.9955 -0.9255  2.0468
15231TIP3    H267109   4.416   6.014  16.045 -0.7972 -0.1827  0.6952
15232TIP3   OH267110   6.497   0.966   0.012  0.0549  0.4019  0.0289
15232TIP3    H167111   6.433   0.990   0.079  0.4623 -0.1867  0.6383
15232TIP3    H267112   6.446   0.963  -0.070 -0.4283  1.1925  0.2960
15233TIP3   OH267113   0.255   3.224  15.674  0.4342  0.0839  0.1896
15233TIP3    H167114   0.173   3.190  15.641  0.7419  0.4079 -0.9289
15233TIP3    H267115   0.232   3.270  15.755 -0.2706 -1.0104  0.6089
15234TIP3   OH267116   0.616   1.479   2.433  0.7499  0.0461  0.3794
15234TIP3    H167117   0.601   1.573   2.428  0.1623 -0.1396 -1.9564
15234TIP3    H267118   0.711   1.469   2.428  0.7965  0.4820  0.4240
15235TIP3   OH267119   0.952   5.532   2.044 -0.4345 -0.5808 -0.0132
15235TIP3    H167120   1.026   5.587   2.021 -0.7704  0.0974  0.5059
15235TIP3    H267121   0.929   5.486   1.963 -1.1853  1.2555 -0.8672
15236TIP3   OH267122   5.749   6.007  13.159  0.0258 -0.2612 -0.0500
15236TIP3    H167123   5.700   5.975  13.084 -2.2874  1.0631  0.8285
15236TIP3    H267124   5.808   6.074  13.123  0.7799 -1.4411 -1.0264
15237TIP3   OH267125   1.330   3.358   0.024  0.2479  0.5447 -0.5512
15237TIP3    H167126   1.395   3.307   0.072  0.5705 -0.0967 -1.6515
15237TIP3    H267127   1.318   3.438   0.076  1.8154  0.6081 -0.2764
15238TIP3   OH267128   2.419   2.579  10.911 -0.2465 -0.0662 -0.5592
15238TIP3    H167129   2.447   2.489  10.930  3.2589  1.1860  0.5761
15238TIP3    H267130   2.472   2.604  10.835  0.4336  1.7456  0.4846
15239TIP3   OH267131   0.605   4.493  16.123 -0.2972  0.5702 -0.1888
15239TIP3    H167132   0.513   4.503  16.149  0.0066  2.7939  0.1228
15239TIP3    H267133   0.653   4.550  16.183  1.3829 -1.1988  0.1568
15240TIP3   OH267134   0.155   1.978  16.906 -0.0395  0.0316  0.3416
15240TIP3    H167135   0.143   2.054  16.849 -0.9665 -0.6214 -0.3591
15240TIP3    H267136   0.094   1.992  16.978 -1.1134 -0.6064 -0.4078
15241TIP3   OH267137   0.466   2.614   4.748  0.0315  0.2882 -0.0988
15241TIP3    H167138   0.471   2.537   4.691 -1.6665  1.3511 -1.7446
15241TIP3    H267139   0.481   2.688   4.690  1.9121  1.2311  1.5233
15242TIP3   OH267140   2.746   3.961  15.549 -0.0648 -0.0747  0.4464
15242TIP3    H167141   2.672   3.947  15.609 -0.8955 -0.4072 -0.6321
15242TIP3    H267142   2.716   3.924  15.465  2.6096 -3.3137  0.8300
15243TIP3   OH267143   2.852   0.965   0.610 -0.0653  0.3591  0.1122
15243TIP3    H167144   2.800   0.885   0.608  0.3183  0.1442 -1.3199
15243TIP3    H267145   2.918   0.950   0.678  1.1372 -1.2438 -1.3856
15244TIP3   OH267146   2.398   3.552   0.667 -0.0156  0.1991 -0.0034
15244TIP3    H167147   2.476   3.554   0.611  1.2822  0.5743  1.7582
15244TIP3    H267148   2.401   3.634   0.715 -0.3970 -0.6679  1.5408
15245TIP3   OH267149   2.630   1.903   3.369 -0.1896 -0.0130 -0.2821
15245TIP3    H167150   2.700   1.965   3.386  0.0781  0.2383 -2.1793
15245TIP3    H267151   2.669   1.817   3.383  0.3124  0.1481 -0.7166
15246TIP3   OH267152   3.033   1.225   1.550 -0.0838 -0.1852  0.2477
15246TIP3    H167153   3.095   1.170   1.598 -1.0517 -1.0082  0.5752
15246TIP3    H267154   3.019   1.179   1.467  1.6890  1.3044 -0.8988
15247TIP3   OH267155   2.339   6.186   4.561 -0.5713  0.1576  0.5398
15247TIP3    H167156   2.317   6.240   4.485 -2.4132  1.8750  2.2320
15247TIP3    H267157   2.264   6.127   4.571 -0.1413 -0.3497  0.7596
15248TIP3   OH267158   0.320   5.084   4.610  0.2473  0.0306 -0.3540
15248TIP3    H167159   0.393   5.028   4.636 -1.3220 -2.7082 -1.6253
15248TIP3    H267160   0.284   5.118   4.692  2.0467  0.2560  0.3488
15249TIP3   OH267161   3.242   6.672   0.730 -0.0448  0.0454  0.3716
15249TIP3    H167162   3.168   6.626   0.770 -0.5017  1.5444  1.3091
15249TIP3    H267163   3.301   6.603   0.701 -0.9368 -1.1263  1.3131
15250TIP3   OH267164   5.469   4.406   2.747  0.2394  0.1369 -0.0687
15250TIP3    H167165   5.545   4.382   2.695 -0.5078  1.4616 -1.8175
15250TIP3    H267166   5.505   4.432   2.832  1.5722 -0.8987 -0.3004
15251TIP3   OH267167   0.011   5.909   0.167  0.0425 -0.8526  0.2012
15251TIP3    H167168   0.076   5.857   0.120 -0.4140 -0.5197 -0.8145
15251TIP3    H267169   0.001   5.866   0.251  2.0151 -0.5800  0.5915
15252TIP3   OH267170   2.589   1.725  14.222 -0.4240  0.2706  0.7754
15252TIP3    H167171   2.638   1.722  14.304 -0.2552 -0.5769  0.6525
15252TIP3    H267172   2.656   1.721  14.154 -0.5065  1.9506  0.5800
15253TIP3   OH267173   5.767   5.971  11.346 -0.0088  0.1183  0.0266
15253TIP3    H167174   5.703   5.927  11.290  1.0670 -0.1215 -1.0337
15253TIP3    H267175   5.714   6.017  11.412 -1.3542  1.2012 -1.7472
15254TIP3   OH267176   0.686   6.078  16.047 -0.1338 -0.6538 -0.4867
15254TIP3    H167177   0.638   6.090  16.129  0.4073  1.5383 -0.4707
15254TIP3    H267178   0.765   6.132  16.057  0.5052 -1.2726 -1.9964
15255TIP3   OH267179   0.761   1.864  13.384 -0.0059  0.6083  0.1584
15255TIP3    H167180   0.815   1.838  13.459 -0.8588  1.0256  0.9248
15255TIP3    H267181   0.674   1.829  13.404 -0.0523  0.0156 -1.0303
15256TIP3   OH267182   0.252   3.743  14.808 -0.4855  0.0644  0.0140
15256TIP3    H167183   0.158   3.742  14.791 -0.6555  2.0751  0.6276
15256TIP3    H267184   0.286   3.811  14.750  0.8594 -1.7895 -1.4100
15257TIP3   OH267185   2.491   5.378   0.527 -0.7581 -0.0540  0.0092
15257TIP3    H167186   2.492   5.468   0.561  0.4922  0.1146 -0.4449
15257TIP3    H267187   2.583   5.359   0.508 -0.7986 -1.9870  1.5745
15258TIP3   OH267188   4.009   1.823   2.138  0.4363  0.2941 -0.0303
15258TIP3    H167189   4.095   1.781   2.152  0.1839 -0.4485 -0.6753
15258TIP3    H267190   4.027   1.896   2.080  0.8372  0.9277  0.8727
15259TIP3   OH267191   0.325   0.617   5.012  0.3994  0.4050  0.0900
15259TIP3    H167192   0.244   0.638   5.058  1.0281  1.4461  0.7386
15259TIP3    H267193   0.363   0.545   5.062 -0.4615 -0.5715 -0.6290
15260TIP3   OH267194   1.522   4.846  13.024 -0.2968 -0.2157  0.6059
15260TIP3    H167195   1.542   4.839  12.931 -0.4353 -2.3437  0.7034
15260TIP3    H267196   1.594   4.899  13.060  0.0337  0.1869 -0.6117
15261TIP3   OH267197   0.595   6.450  13.013  0.1016 -0.9868  0.2175
15261TIP3    H167198   0.636   6.521  13.062 -0.8577 -0.2719 -0.0072
15261TIP3    H267199   0.535   6.409  13.075  0.2805 -1.2786  0.1977
15262TIP3   OH267200   0.286   1.917   1.302 -0.3374 -0.0347 -0.3556
15262TIP3    H167201   0.303   1.826   1.326  0.6167 -0.2445 -1.8093
15262TIP3    H267202   0.220   1.913   1.233  1.8080  0.1921 -2.4743
15263TIP3   OH267203   5.147   5.579   1.744 -0.0420 -0.6166  0.6090
15263TIP3    H167204   5.104   5.601   1.661  1.2722  1.9547  0.5425
15263TIP3    H267205   5.083   5.600   1.811  0.1518  0.8096  0.3807
15264TIP3   OH267206   0.382   1.016   2.381  0.5693 -0.0268  0.1349
15264TIP3    H167207   0.399   1.061   2.463 -0.0668  1.8701 -0.7538
15264TIP3    H267208   0.318   0.948   2.404  0.2409  0.6204  1.1644
15265TIP3   OH267209   5.233   4.101  14.973  0.6075  0.2300  0.1465
15265TIP3    H167210   5.158   4.143  15.016 -1.1333 -2.5301 -0.0802
15265TIP3    H267211   5.288   4.071  15.046 -0.7460 -1.6106  0.4543
15266TIP3   OH267212   1.210   2.528  13.804  0.4381 -0.4452  0.2668
15266TIP3    H167213   1.203   2.440  13.841 -2.6085 -0.4695 -0.2921
15266TIP3    H267214   1.177   2.520  13.715  0.6020  1.1625  0.0472
15267TIP3   OH267215   1.365   0.290   4.992  0.2710 -0.2890 -0.2275
15267TIP3    H167216   1.318   0.374   4.988 -0.6734 -0.8179 -0.3673
15267TIP3    H267217   1.439   0.302   4.933  0.6309  0.7446  0.4168
15268TIP3   OH267218   6.727   1.175   4.110 -0.0385 -0.0183  0.1001
15268TIP3    H167219   6.666   1.114   4.069  1.0794 -0.2037 -1.3037
15268TIP3    H267220   6.679   1.208   4.186 -2.3321  0.6821 -1.5778
15269TIP3   OH267221   5.068   2.602  17.033 -0.0882 -0.2249  0.7125
15269TIP3    H167222   5.111   2.518  17.046 -1.5172 -0.8651  1.4167
15269TIP3    H267223   4.998   2.604  17.099 -0.3804  1.2869  0.3693
15270TIP3   OH267224   4.590   0.804  17.030 -0.5179  0.8763 -0.7340
15270TIP3    H167225   4.683   0.782  17.036 -1.1358 -1.2416  1.6060
15270TIP3    H267226   4.562   0.766  16.946  0.2929 -0.1869 -0.5357
15271TIP3   OH267227   1.078   6.688   2.735  0.3029 -0.1989 -0.3741
15271TIP3    H167228   1.121   6.663   2.817 -0.3566  1.3153  0.4576
15271TIP3    H267229   1.143   6.670   2.668  2.1230  1.6824  0.8203
15272TIP3   OH267230   4.469   4.248  15.096 -0.4467  0.0671 -0.3506
15272TIP3    H167231   4.529   4.207  15.158  0.0687  1.6632  0.2476
15272TIP3    H267232   4.445   4.179  15.035  0.1293 -1.1805  0.8239
15273TIP3   OH267233   5.423   2.043  11.861  0.6387  0.3699  0.1263
15273TIP3    H167234   5.491   2.015  11.801  2.1553  0.8709  1.5697
15273TIP3    H267235   5.366   1.966  11.871  1.2221 -0.1776 -0.7620
15274TIP3   OH267236   4.986   4.779   5.009 -0.0400 -0.4645  0.5205
15274TIP3    H167237   4.914   4.748   4.954  0.1287 -0.2486  0.1779
15274TIP3    H267238   5.063   4.775   4.952 -0.0275  0.6483  0.4489
15275TIP3   OH267239   3.422   3.330   5.734 -0.4288 -0.1291 -0.1272
15275TIP3    H167240   3.329   3.355   5.728 -0.3218  0.8025  1.6707
15275TIP3    H267241   3.430   3.288   5.819  1.2645  1.9336  0.7903
15276TIP3   OH267242   3.649   1.168   2.382  0.5335  0.1655 -0.3936
15276TIP3    H167243   3.686   1.185   2.468 -1.3398 -4.3561  1.4894
15276TIP3    H267244   3.555   1.161   2.396  0.3587 -2.5625 -2.3866
15277TIP3   OH267245   5.604   5.850  14.236 -0.2531 -0.5176 -0.4527
15277TIP3    H167246   5.669   5.920  14.228 -0.0584 -0.5279  0.8622
15277TIP3    H267247   5.520   5.896  14.238 -0.0451 -0.1739  1.9272
15278TIP3   OH267248   2.442   5.778  16.792  0.5391 -0.3540 -0.2571
15278TIP3    H167249   2.422   5.837  16.720  0.6469 -0.2269 -0.1796
15278TIP3    H267250   2.360   5.770  16.841  0.0534 -1.6201 -1.2564
15279TIP3   OH267251   1.938   0.824  11.446 -0.0381  0.0114 -0.0603
15279TIP3    H167252   1.888   0.889  11.397 -0.3517 -0.2960 -0.1481
15279TIP3    H267253   2.029   0.840  11.421 -0.1965 -0.1462 -0.7478
15280TIP3   OH267254   0.317   1.416   4.277 -0.5032 -0.3252 -0.1940
15280TIP3    H167255   0.228   1.406   4.310 -0.3905 -1.4978 -0.2365
15280TIP3    H267256   0.308   1.476   4.202 -1.2994 -0.6949 -0.3959
15281TIP3   OH267257   4.076   4.096   4.420 -0.3009  0.2570  0.4353
15281TIP3    H167258   4.078   4.122   4.512  0.7713 -0.5437  0.6558
15281TIP3    H267259   4.031   4.167   4.375 -0.0340  1.0717  1.4527
15282TIP3   OH267260   2.692   2.219  12.163  0.3078  0.4360 -0.2476
15282TIP3    H167261   2.663   2.291  12.107  1.7287  0.5648 -0.8470
15282TIP3    H267262   2.787   2.230  12.169  0.6322 -1.6958 -0.8305
15283TIP3   OH267263   4.585   1.409   4.865 -0.1759 -0.5189  0.3877
15283TIP3    H167264   4.509   1.399   4.807 -0.7180 -1.1061  1.1927
15283TIP3    H267265   4.549   1.443   4.947  0.4197 -0.8626  0.7961
15284TIP3   OH267266   1.674   0.749  13.705 -0.3225 -0.3109  0.1301
15284TIP3    H167267   1.598   0.698  13.677  0.4586 -1.7887  0.6744
15284TIP3    H267268   1.742   0.728  13.640  0.6293 -1.5568  1.5044
15285TIP3   OH267269   4.669   1.890   1.736  0.3038  0.4177  0.2644
15285TIP3    H167270   4.578   1.898   1.706 -0.1517  0.1824  1.5485
15285TIP3    H267271   4.688   1.974   1.778  0.3404  0.0956  0.8973
15286TIP3   OH267272   2.995   1.797  14.194  0.4639  0.2036  0.0168
15286TIP3    H167273   2.955   1.790  14.107  0.0153 -2.0314  0.3743
15286TIP3    H267274   2.928   1.840  14.248  0.1252  0.1715 -0.3738
15287TIP3   OH267275   3.593   0.776   1.701  0.0236  0.0386  0.1537
15287TIP3    H167276   3.659   0.708   1.705 -0.4171 -0.3835  0.2997
15287TIP3    H267277   3.516   0.733   1.664 -0.3430  0.3861  0.5002
15288TIP3   OH267278   1.130   4.975   3.843 -0.2148  0.4035  0.0839
15288TIP3    H167279   1.177   4.904   3.887  1.6895  0.1796 -2.2074
15288TIP3    H267280   1.048   4.935   3.814 -0.8358  0.1692  2.0685
15289TIP3   OH267281   4.299   1.210   3.334 -0.3019  0.0053 -0.2665
15289TIP3    H167282   4.333   1.298   3.351 -1.8352  0.4459  0.5497
15289TIP3    H267283   4.206   1.215   3.355 -0.3093 -1.9438  0.2690
15290TIP3   OH267284   6.485   1.274  11.862  0.0012 -0.0841  0.0433
15290TIP3    H167285   6.511   1.344  11.922 -1.7639  0.2939  0.3818
15290TIP3    H267286   6.396   1.251  11.887  0.0028 -1.4164 -1.0520
15291TIP3   OH267287   0.876   6.387  16.377 -0.1851 -0.5681  0.2630
15291TIP3    H167288   0.811   6.393  16.307  0.7323  1.5680 -0.4346
15291TIP3    H267289   0.840   6.321  16.437 -2.6653  0.0776 -0.4449
15292TIP3   OH267290   3.388   4.550   5.668 -0.2478  0.1976 -0.2119
15292TIP3    H167291   3.437   4.571   5.748  1.0581  0.3656 -1.0409
15292TIP3    H267292   3.298   4.537   5.698  0.3330 -0.3058  1.3694
15293TIP3   OH267293   4.208   5.003   1.352  0.5813 -0.5344  0.0331
15293TIP3    H167294   4.255   5.082   1.378  0.9287 -1.0379  0.9634
15293TIP3    H267295   4.261   4.964   1.283  0.2026  0.2498 -0.7089
15294TIP3   OH267296   5.053   5.271  11.627  0.1542 -0.0593 -0.2045
15294TIP3    H167297   5.060   5.273  11.532 -0.9015 -1.9805 -0.3656
15294TIP3    H267298   5.100   5.191  11.653  0.9073  0.7426  0.9291
15295TIP3   OH267299   0.852   3.872   2.316  0.1751 -1.0955  0.0795
15295TIP3    H167300   0.850   3.918   2.400  1.2588  1.1036 -1.0624
15295TIP3    H267301   0.807   3.930   2.255  1.9685 -1.2836 -1.4914
15296TIP3   OH267302   0.812   3.506  13.554  0.4127 -0.4735 -0.1806
15296TIP3    H167303   0.773   3.580  13.599  1.0818  0.4892 -1.1590
15296TIP3    H267304   0.846   3.543  13.472  3.2896 -1.3114  0.6050
15297TIP3   OH267305   4.114   4.264  17.182 -0.0621 -0.9556 -0.2933
15297TIP3    H167306   4.192   4.245  17.130  0.0670 -0.3605 -0.3254
15297TIP3    H267307   4.148   4.286  17.268 -0.1901 -0.5588 -0.3459
15298TIP3   OH267308   3.366   6.505   5.314 -0.3814 -0.3083  0.2675
15298TIP3    H167309   3.390   6.597   5.324  0.4157 -0.3652 -1.0089
15298TIP3    H267310   3.442   6.457   5.349 -0.7310 -0.4847  0.7883
15299TIP3   OH267311   5.586   0.409   0.220  0.2911  0.3593 -0.4811
15299TIP3    H167312   5.530   0.442   0.150  0.0947  0.7618 -0.1425
15299TIP3    H267313   5.640   0.484   0.244 -1.5294  1.0572  1.6478
15300TIP3   OH267314   2.983   2.052   6.312 -0.2447  0.5240 -0.3297
15300TIP3    H167315   2.942   1.967   6.329 -0.1918  0.4556 -0.5355
15300TIP3    H267316   2.911   2.108   6.284 -0.3195  0.6160  0.0475
15301TIP3   OH267317   5.552   0.434  14.414 -0.3251  0.4985  0.2869
15301TIP3    H167318   5.497   0.420  14.337 -0.9595  0.5934  0.7196
15301TIP3    H267319   5.551   0.529  14.427  0.2011  0.5335  0.1138
15302TIP3   OH267320   4.465   3.469  16.527  0.4584 -0.1476 -0.3149
15302TIP3    H167321   4.455   3.529  16.453  2.8362 -1.2370 -1.5755
15302TIP3    H267322   4.542   3.501  16.574  1.9361 -2.3230 -1.1737
15303TIP3   OH267323   4.799   4.374  12.578 -0.3038  0.0841  0.4781
15303TIP3    H167324   4.845   4.320  12.514 -2.9537 -1.7413  0.0564
15303TIP3    H267325   4.829   4.342  12.663  0.9628  0.4974  0.1905
15304TIP3   OH267326   3.567   2.860  13.399 -0.8043  0.0832  0.1018
15304TIP3    H167327   3.553   2.918  13.473 -0.6196 -0.6455  0.7061
15304TIP3    H267328   3.486   2.810  13.392 -0.7679  0.0513 -0.1009
15305TIP3   OH267329   1.688   2.197  13.309  0.1576  0.3911  0.0357
15305TIP3    H167330   1.747   2.225  13.380 -0.6033 -0.6265  1.0958
15305TIP3    H267331   1.638   2.124  13.347 -0.6323  0.1735 -1.3864
15306TIP3   OH267332   3.223   5.296   1.614 -0.3930  0.2436  0.0605
15306TIP3    H167333   3.274   5.373   1.590 -0.0768 -0.0381 -0.1779
15306TIP3    H267334   3.262   5.266   1.696 -0.5218  0.3451  0.1575
15307TIP3   OH267335   2.593   0.603  13.632 -0.5525 -0.1333  0.4840
15307TIP3    H167336   2.556   0.691  13.626 -0.6583 -0.2025  0.1387
15307TIP3    H267337   2.559   0.557  13.556  1.1013  0.1095 -0.4211
15308TIP3   OH267338   1.299   4.682   4.318  0.3448  0.1559 -0.8281
15308TIP3    H167339   1.269   4.660   4.406 -0.4871 -0.1944 -1.1993
15308TIP3    H267340   1.277   4.774   4.307  1.2540  0.4469 -0.3479
15309TIP3   OH267341   4.440   0.412  11.168 -0.3259  0.7018 -0.1089
15309TIP3    H167342   4.348   0.427  11.147 -0.8151 -0.5237  1.0968
15309TIP3    H267343   4.444   0.319  11.191  1.4388  0.4532 -1.3167
15310TIP3   OH267344   1.335   0.880  14.857 -0.1727  0.3405  0.5970
15310TIP3    H167345   1.299   0.839  14.778 -0.9513  0.0477  1.1041
15310TIP3    H267346   1.430   0.867  14.849 -0.3006 -0.2742  0.0390
15311TIP3   OH267347   4.898   6.639  13.515  0.0883 -0.0979  0.5221
15311TIP3    H167348   4.985   6.661  13.548  0.1204 -0.5089  0.7126
15311TIP3    H267349   4.889   6.545  13.530  1.1062 -0.8284 -3.0039
15312TIP3   OH267350   3.668   2.831   5.982  0.0562  0.2060 -0.0308
15312TIP3    H167351   3.754   2.860   6.011 -0.7881  1.6365  1.1135
15312TIP3    H267352   3.638   2.772   6.051  0.2040 -0.4581 -0.5321
15313TIP3   OH267353   4.621   1.602   3.319  0.7562 -0.0141 -0.4029
15313TIP3    H167354   4.704   1.635   3.286 -0.6687  2.8937 -1.2889
15313TIP3    H267355   4.598   1.662   3.390 -0.4047 -1.0373  0.1087
15314TIP3   OH267356   1.031   0.386   1.215 -0.1109  0.5186 -0.3761
15314TIP3    H167357   1.107   0.414   1.267 -0.0659 -0.1345 -0.0852
15314TIP3    H267358   0.992   0.467   1.184  1.2127  0.8386 -1.2369
15315TIP3   OH267359   4.381   6.180  16.881  0.4341  0.2030  0.1887
15315TIP3    H167360   4.329   6.106  16.914 -0.6125  1.2059  0.8068
15315TIP3    H267361   4.469   6.144  16.869  0.0049 -1.0655  0.7890
15316TIP3   OH267362   0.824   4.701  13.091 -0.1749 -0.3598 -0.1383
15316TIP3    H167363   0.822   4.778  13.148 -2.1838  0.1068 -0.8170
15316TIP3    H267364   0.814   4.627  13.151  1.0307 -0.0678  0.4394
15317TIP3   OH267365   6.247   5.129   1.863 -0.3522 -0.0744  0.0981
15317TIP3    H167366   6.285   5.165   1.944 -1.2137 -1.4892  1.1571
15317TIP3    H267367   6.323   5.112   1.807  0.1641  2.2272  0.0335
15318TIP3   OH267368   0.218   6.586  16.623  0.3986 -0.1434  0.1645
15318TIP3    H167369   0.258   6.673  16.629 -0.6869  0.6342 -3.0908
15318TIP3    H267370   0.135   6.601  16.578 -0.2377 -2.7740  0.4077
15319TIP3   OH267371   2.057   1.900   3.592 -0.5664 -0.5594  0.0862
15319TIP3    H167372   1.968   1.915   3.626 -1.0522 -1.2975 -0.8371
15319TIP3    H267373   2.097   1.840   3.655 -0.5470  0.1735  0.7771
15320TIP3   OH267374   2.361   3.103   5.417  0.7000  0.0860 -0.0353
15320TIP3    H167375   2.287   3.054   5.451  0.9440  0.8869  1.6978
15320TIP3    H267376   2.327   3.150   5.341 -0.8386  1.2649  1.3596
15321TIP3   OH267377   2.749   4.079   6.199 -0.0310  0.3426  0.3957
15321TIP3    H167378   2.762   4.141   6.127  3.2909  0.4944  1.0508
15321TIP3    H267379   2.716   4.133   6.271  0.5099  0.9199  0.2168
15322TIP3   OH267380   1.422   3.015  13.164 -0.5167 -0.1138 -0.4923
15322TIP3    H167381   1.477   3.053  13.233  0.3034 -1.1161 -0.5725
15322TIP3    H267382   1.333   3.042  13.186 -0.2486 -0.3415  0.9042
15323TIP3   OH267383   5.521   2.854  14.713 -0.1788 -0.2284  0.4070
15323TIP3    H167384   5.568   2.897  14.643  1.5202  0.2555  1.8166
15323TIP3    H267385   5.484   2.775  14.673 -2.7343  2.0772 -2.0228
15324TIP3   OH267386   2.923   3.904  13.970 -0.5657  0.3822 -0.4819
15324TIP3    H167387   3.002   3.863  13.934 -0.9185 -0.5474 -0.2161
15324TIP3    H267388   2.859   3.833  13.974 -1.2270  0.9921 -0.1235
15325TIP3   OH267389   5.351   5.957  14.169  0.0850 -0.0667  0.1470
15325TIP3    H167390   5.381   5.942  14.080 -0.2617 -0.2233  0.0567
15325TIP3    H267391   5.329   6.050  14.171 -0.9736 -0.2982 -0.2551
15326TIP3   OH267392   5.473   3.180  13.600 -0.0552 -0.0958  0.2390
15326TIP3    H167393   5.542   3.210  13.541  0.4475  1.6922  1.6922
15326TIP3    H267394   5.391   3.207  13.558  0.3098  1.4004  0.4585
15327TIP3   OH267395   2.849   5.508  12.872 -0.6189 -0.1339  0.1537
15327TIP3    H167396   2.910   5.538  12.805 -0.9060 -0.0019 -0.0482
15327TIP3    H267397   2.785   5.454  12.825 -0.6964 -0.2187  0.3549
15328TIP3   OH267398   0.654   3.025  14.476 -0.1977 -0.3619  0.4060
15328TIP3    H167399   0.697   3.103  14.441  1.0716 -0.9934  0.5424
15328TIP3    H267400   0.714   2.992  14.543 -2.4149  0.6032  2.9226
15329TIP3   OH267401   1.525   0.077  16.036  0.4496  0.3795 -0.2485
15329TIP3    H167402   1.573   0.159  16.051 -0.6630  0.4411  3.5135
15329TIP3    H267403   1.440   0.105  16.004  0.9748  0.5331 -1.5447
15330TIP3   OH267404   3.487   1.492   2.003  0.2135  0.1629 -0.1526
15330TIP3    H167405   3.444   1.544   2.071  0.3253  0.3974 -0.2591
15330TIP3    H267406   3.416   1.464   1.946 -0.0023 -0.8633  0.6075
15331TIP3   OH267407   5.003   4.967  14.530  0.2743  0.2508 -0.5869
15331TIP3    H167408   5.035   5.027  14.598 -0.3211  1.3485 -1.2632
15331TIP3    H267409   5.082   4.940  14.483  0.6671 -0.3494  0.3873
15332TIP3   OH267410   4.089   3.794   0.188 -0.3150  0.1082 -0.1111
15332TIP3    H167411   4.159   3.857   0.203 -0.8155  0.2626  1.6125
15332TIP3    H267412   4.134   3.714   0.161  0.6902 -0.4707  3.1349
15333TIP3   OH267413   4.693   0.678  14.498 -0.0230  0.4497  0.3078
15333TIP3    H167414   4.671   0.771  14.502 -0.9681  0.1696  2.3897
15333TIP3    H267415   4.609   0.634  14.487 -0.2715 -0.4114  4.6210
15334TIP3   OH267416   1.816   3.943   2.571 -0.0388  0.0686 -0.1616
15334TIP3    H167417   1.834   4.003   2.643 -0.0139 -2.6106  2.1864
15334TIP3    H267418   1.874   3.868   2.588 -1.5450 -1.5051 -1.7897
15335TIP3   OH267419   6.255   0.763   6.171 -0.2081 -0.2557  0.5541
15335TIP3    H167420   6.348   0.756   6.146  0.6596  1.9123  2.9791
15335TIP3    H267421   6.240   0.690   6.231 -0.0952 -0.5945  0.1769
15336TIP3   OH267422   2.647   2.270  12.914 -0.0316 -0.5022 -0.2002
15336TIP3    H167423   2.557   2.241  12.926  0.2816 -0.7934  1.5124
15336TIP3    H267424   2.681   2.284  13.002  1.8969 -1.2985 -0.7704
15337TIP3   OH267425   5.271   4.301   2.144 -0.0344 -0.0395 -0.8047
15337TIP3    H167426   5.251   4.216   2.183  2.0139  0.1493  0.7572
15337TIP3    H267427   5.309   4.280   2.059  1.5495 -0.7574  0.0588
15338TIP3   OH267428   5.066   1.830   5.077  0.1701 -0.1875 -0.5860
15338TIP3    H167429   5.154   1.808   5.047  0.2042 -0.4014 -0.3267
15338TIP3    H267430   5.010   1.761   5.040  0.5365 -1.8636  1.8231
15339TIP3   OH267431   6.064   1.972  14.498 -1.2805  0.1134  0.4108
15339TIP3    H167432   5.980   1.931  14.518 -0.4394 -1.6346  0.4088
15339TIP3    H267433   6.113   1.970  14.580 -0.3756 -0.9464 -0.1548
15340TIP3   OH267434   2.796   4.589  13.676 -0.1986  0.1136 -0.4280
15340TIP3    H167435   2.710   4.621  13.704  0.1035 -0.3673  1.1315
15340TIP3    H267436   2.786   4.493  13.675  0.3676  0.0465 -0.0322
15341TIP3   OH267437   4.212   1.619   4.890  0.1325  0.3667  0.2406
15341TIP3    H167438   4.283   1.571   4.933  0.2517 -0.0576 -0.4257
15341TIP3    H267439   4.254   1.698   4.856  0.1798  0.3550  0.2702
15342TIP3   OH267440   3.446   3.556   2.071 -0.3639  0.2392 -0.0093
15342TIP3    H167441   3.359   3.580   2.038 -0.0637 -0.1505 -1.1075
15342TIP3    H267442   3.428   3.508   2.152 -1.2951 -1.7971 -1.3832
15343TIP3   OH267443   2.769   0.413   1.720  0.2036  0.1081 -0.0696
15343TIP3    H167444   2.790   0.387   1.809 -1.0900 -0.0706  0.1925
15343TIP3    H267445   2.853   0.441   1.682  1.1144 -1.7501  0.5437
15344TIP3   OH267446   1.259   2.927  13.436 -0.2183  0.0351 -0.4559
15344TIP3    H167447   1.231   2.999  13.380  0.1969 -0.1853 -0.9535
15344TIP3    H267448   1.234   2.953  13.524 -1.8975 -0.0989 -0.8737
15345TIP3   OH267449   3.854   2.578   3.303 -0.0038 -0.5511 -0.1466
15345TIP3    H167450   3.893   2.623   3.228  1.1899  0.3024  0.9541
15345TIP3    H267451   3.774   2.627   3.322  0.4656  0.1516  0.0506
15346TIP3   OH267452   4.089   3.884   2.429 -0.3084 -0.5284 -0.0190
15346TIP3    H167453   4.178   3.921   2.428  0.3038 -1.9066  1.3355
15346TIP3    H267454   4.046   3.929   2.503 -0.3920 -0.6637  0.0139
15347TIP3   OH267455   6.040   1.766  14.984  0.0374  0.2375  0.5174
15347TIP3    H167456   6.014   1.718  14.906 -0.8990  0.4747  0.6785
15347TIP3    H267457   6.028   1.858  14.961 -1.5837  0.2655  1.4029
15348TIP3   OH267458   5.310   4.859   5.205 -0.1196  0.2650  0.2878
15348TIP3    H167459   5.392   4.849   5.254 -1.1511  0.3813  2.0685
15348TIP3    H267460   5.280   4.770   5.190 -0.8380  0.2638  1.6653
15349TIP3   OH267461   3.090   2.314  12.593 -0.5011 -0.5078 -0.2383
15349TIP3    H167462   3.094   2.390  12.535  0.7714 -1.0523 -0.8771
15349TIP3    H267463   3.069   2.352  12.679 -3.2507  0.2094 -1.1696
15350TIP3   OH267464   3.040   6.126  16.787 -0.0758  0.2535  0.1026
15350TIP3    H167465   3.065   6.190  16.854 -0.1756 -0.0439  0.4285
15350TIP3    H267466   2.966   6.079  16.826 -0.5519  0.5094 -0.4824
15351TIP3   OH267467   5.484   4.299  14.925  0.5371  0.1844  0.0898
15351TIP3    H167468   5.511   4.362  14.993 -1.0886 -0.3839  1.2906
15351TIP3    H267469   5.517   4.215  14.956 -0.0521 -0.0487  0.0878
15352TIP3   OH267470   1.659   0.451  15.669  0.2985 -0.0219  0.2432
15352TIP3    H167471   1.740   0.495  15.644  1.2012 -0.9798  1.4201
15352TIP3    H267472   1.679   0.357  15.661 -1.6373 -0.2887 -2.3818
15353TIP3   OH267473   0.361   1.551   4.046 -0.1064  0.1246  0.7720
15353TIP3    H167474   0.401   1.484   3.991  0.4172  2.3607 -1.7038
15353TIP3    H267475   0.430   1.616   4.059 -1.3039  1.3664  1.0532
15354TIP3   OH267476   4.953   4.538   3.503  0.4488 -0.5696 -0.0653
15354TIP3    H167477   4.967   4.459   3.451  1.4662  1.0163 -2.2813
15354TIP3    H267478   5.005   4.605   3.459 -0.0434  1.2427  2.0301
15355TIP3   OH267479   6.594   3.159  11.552  0.0912 -0.8708 -0.3781
15355TIP3    H167480   6.586   3.220  11.625  0.3287 -0.5587 -0.6107
15355TIP3    H267481   6.583   3.073  11.592 -0.1361 -0.6808 -0.0306
15356TIP3   OH267482   0.624   2.146  11.411 -0.6223  0.1641  0.6255
15356TIP3    H167483   0.583   2.199  11.343  2.5651  1.2713 -0.5358
15356TIP3    H267484   0.692   2.097  11.365  0.2265 -0.6415  2.6659
15357TIP3   OH267485   0.736   5.382  13.103  0.5697 -0.1661 -0.0467
15357TIP3    H167486   0.668   5.363  13.039  0.3715 -0.7256  0.3214
15357TIP3    H267487   0.808   5.323  13.080  0.4868 -0.3896  0.2590
15358TIP3   OH267488   6.512   1.090   4.787 -0.1092  0.8211  0.2574
15358TIP3    H167489   6.428   1.047   4.774  0.6231 -0.2377 -1.0813
15358TIP3    H267490   6.553   1.039   4.857 -0.2491  0.8278  0.3448
15359TIP3   OH267491   5.442   3.105   1.261 -0.4504  0.2437 -0.2845
15359TIP3    H167492   5.391   3.121   1.340 -0.0434  1.3128 -0.2348
15359TIP3    H267493   5.528   3.077   1.293  0.4684  2.8971 -0.2779
15360TIP3   OH267494   0.411   3.250  15.324  0.2023  0.3235 -0.2206
15360TIP3    H167495   0.498   3.284  15.302  0.3091  0.5323  0.5253
15360TIP3    H267496   0.428   3.170  15.374 -0.0458 -0.4391 -1.3256
15361TIP3   OH267497   5.973   4.075  12.303 -0.8041  0.5731 -0.3082
15361TIP3    H167498   5.904   4.134  12.273 -0.6997  0.4430 -0.8199
15361TIP3    H267499   6.045   4.090  12.242 -0.7010  0.0723 -0.3142
15362TIP3   OH267500   2.994   2.346  16.095 -0.4585 -0.4012  0.0722
15362TIP3    H167501   3.051   2.421  16.113  0.8004 -0.7879 -2.1340
15362TIP3    H267502   3.008   2.287  16.170  1.7609 -0.3039 -0.2117
15363TIP3   OH267503   5.945   3.215  10.686  0.1557 -0.1803  0.1880
15363TIP3    H167504   6.015   3.182  10.631  0.2773  0.7058 -0.1996
15363TIP3    H267505   5.973   3.303  10.712 -0.8438  0.2178 -0.0395
15364TIP3   OH267506   2.537   4.690  13.699  0.1527 -0.2369  0.5642
15364TIP3    H167507   2.458   4.636  13.700 -0.5979  0.8207 -0.3002
15364TIP3    H267508   2.551   4.711  13.607 -1.1967  3.3353  1.0819
15365TIP3   OH267509   6.686   2.716   2.909  0.6423  0.5485  0.2298
15365TIP3    H167510   6.645   2.632   2.888 -0.5181  1.6520 -2.0662
15365TIP3    H267511   6.679   2.722   3.005 -2.5350 -0.3415  0.1298
15366TIP3   OH267512   2.605   0.892  11.657  0.0095  0.1148 -0.2604
15366TIP3    H167513   2.652   0.856  11.732 -1.7769 -0.7924  0.4706
15366TIP3    H267514   2.611   0.825  11.590  0.8559  0.5475 -0.6136
15367TIP3   OH267515   2.818   1.912  14.368 -0.0253  0.0656  0.2612
15367TIP3    H167516   2.725   1.927  14.386 -0.4684 -0.8524 -1.1411
15367TIP3    H267517   2.862   1.932  14.451 -1.4102  0.9950  0.8006
15368TIP3   OH267518   5.412   4.500  12.700 -0.0379 -0.4350  0.2151
15368TIP3    H167519   5.423   4.407  12.680  1.2909 -0.2087 -0.1129
15368TIP3    H267520   5.469   4.516  12.775  1.3925  0.5892 -1.0754
15369TIP3   OH267521   0.179   3.349   1.290  0.2930  0.3958 -0.2207
15369TIP3    H167522   0.141   3.303   1.364 -0.7135 -0.0405 -0.9914
15369TIP3    H267523   0.220   3.427   1.328  0.7902 -0.4032  0.9204
15370TIP3   OH267524   1.915   1.460   0.635 -0.4069  0.3301 -0.3487
15370TIP3    H167525   1.824   1.445   0.663 -1.1071  0.9454 -2.1897
15370TIP3    H267526   1.941   1.378   0.593 -0.6706  0.7064 -1.2511
15371TIP3   OH267527   1.971   6.013   4.099 -0.2696  0.6701 -0.0328
15371TIP3    H167528   1.913   5.942   4.128  0.2498 -0.2049 -1.1090
15371TIP3    H267529   2.017   6.040   4.178  2.8034 -3.2244 -0.3387
15372TIP3   OH267530   5.259   1.487  16.102 -0.3365  0.0574 -0.8729
15372TIP3    H167531   5.232   1.568  16.145  0.7082  0.1592 -0.3840
15372TIP3    H267532   5.329   1.452  16.158 -0.5531 -1.0132 -1.2498
15373TIP3   OH267533   1.790   6.419   0.614  0.2468 -0.1685 -0.1425
15373TIP3    H167534   1.772   6.383   0.527  0.8225  0.9236 -0.7161
15373TIP3    H267535   1.706   6.412   0.660  0.1188 -1.4101 -0.5366
15374TIP3   OH267536   6.049   1.974  16.875  0.1105  0.3094 -0.0378
15374TIP3    H167537   5.980   1.946  16.936  1.1443  1.0217  1.5033
15374TIP3    H267538   6.123   1.997  16.932  1.5165 -0.1653 -1.6562
15375TIP3   OH267539   5.396   2.801   0.164 -0.3905  0.3628  0.0155
15375TIP3    H167540   5.442   2.717   0.166  2.6044  1.9248 -0.7031
15375TIP3    H267541   5.312   2.781   0.122  0.1540 -2.3120  0.1157
15376TIP3   OH267542   0.685   1.683   4.629  0.1655  0.3245  0.2063
15376TIP3    H167543   0.685   1.705   4.536  0.8378  2.1138  0.6092
15376TIP3    H267544   0.597   1.651   4.646 -0.6605  2.1081 -0.5775
15377TIP3   OH267545   0.979   1.820   5.270 -0.0594  0.2800  1.0411
15377TIP3    H167546   1.050   1.863   5.221  1.1927  0.8820  3.2745
15377TIP3    H267547   0.976   1.731   5.235  2.3824 -0.0100  1.4139
15378TIP3   OH267548   2.100   4.161   1.191 -0.2226  0.5842  0.4973
15378TIP3    H167549   2.055   4.243   1.171  1.3203  1.4925  0.6310
15378TIP3    H267550   2.079   4.143   1.283 -1.0657  0.4912  0.2902
15379TIP3   OH267551   6.102   5.376  13.846  0.1057  0.2895 -0.1681
15379TIP3    H167552   6.158   5.440  13.889 -0.5107 -0.6418  2.1021
15379TIP3    H267553   6.044   5.427  13.790  3.5566  1.2390 -3.0757
15380TIP3   OH267554   6.468   0.020   6.008  0.4168 -0.0447 -0.1365
15380TIP3    H167555   6.537   0.003   5.945 -0.2809 -1.7289 -0.4742
15380TIP3    H267556   6.419  -0.062   6.013 -0.7546  0.7019  1.0854
15381TIP3   OH267557   3.593   0.679   3.067 -0.2157  0.4820 -0.4088
15381TIP3    H167558   3.532   0.726   3.011 -0.7044  0.0370 -0.2496
15381TIP3    H267559   3.546   0.600   3.094  0.7719 -0.3297 -1.0458
15382TIP3   OH267560   4.924   1.683  14.221 -0.0192 -0.3057 -0.1323
15382TIP3    H167561   4.946   1.774  14.245 -0.0275  0.1162 -1.6837
15382TIP3    H267562   4.829   1.683  14.212 -0.1260 -0.7433  0.9474
15383TIP3   OH267563   1.914   5.831   2.674 -0.1382 -0.2993  0.2264
15383TIP3    H167564   1.939   5.912   2.630 -1.0786 -0.5555 -0.7933
15383TIP3    H267565   1.860   5.860   2.748 -0.1570  0.0313  0.0849
15384TIP3   OH267566   0.451   4.251  16.268 -0.2599 -0.1837 -0.0131
15384TIP3    H167567   0.389   4.270  16.198  0.8291 -0.1365 -0.9650
15384TIP3    H267568   0.494   4.170  16.241 -0.6123 -0.7663  1.1385
15385TIP3   OH267569   2.121   5.059  16.379 -0.0496 -0.1662 -0.0253
15385TIP3    H167570   2.150   5.100  16.298 -0.3499 -1.2679 -0.6985
15385TIP3    H267571   2.031   5.090  16.391  1.0329  2.5461  1.6047
15386TIP3   OH267572   6.658   1.200   3.052  0.0971  0.3330 -0.1388
15386TIP3    H167573   6.569   1.207   3.018 -0.1451 -2.2010 -0.0908
15386TIP3    H267574   6.651   1.232   3.142 -0.6394  0.7532 -0.3393
15387TIP3   OH267575   0.264   3.880   4.197  0.9758  0.3718  0.1889
15387TIP3    H167576   0.231   3.956   4.245  0.7652  0.1392  0.4149
15387TIP3    H267577   0.277   3.912   4.107  0.8088  0.6517  0.2630
15388TIP3   OH267578   1.852   4.961  12.704  0.0098  0.5630 -0.1521
15388TIP3    H167579   1.889   5.049  12.709  1.2639  0.0607 -0.5336
15388TIP3    H267580   1.909   4.914  12.643 -1.4135 -0.1394 -0.9845
15389TIP3   OH267581   5.323   5.966   0.285 -0.1551  0.3803 -0.0878
15389TIP3    H167582   5.361   6.034   0.230 -0.2387 -1.0911 -2.0197
15389TIP3    H267583   5.373   5.971   0.367 -0.2680  2.8377 -0.1316
15390TIP3   OH267584   2.419   4.955  14.571  0.3826 -0.0406 -0.0005
15390TIP3    H167585   2.342   4.899  14.582  0.5592 -0.1632  0.6182
15390TIP3    H267586   2.420   5.010  14.649  0.9261 -0.0376 -0.0084
15391TIP3   OH267587   4.404   0.967   4.572  0.2772 -0.4665 -0.4356
15391TIP3    H167588   4.317   0.997   4.545 -0.3558 -1.4082  0.5231
15391TIP3    H267589   4.437   1.037   4.628  0.2673  0.0302 -1.0438
15392TIP3   OH267590   3.080   1.720  11.522 -0.2082 -0.2551 -0.2889
15392TIP3    H167591   3.159   1.762  11.556 -0.2517 -0.4761  0.0873
15392TIP3    H267592   3.035   1.687  11.600 -0.3099 -0.7638 -0.5607
15393TIP3   OH267593   0.872   5.263  15.803  0.3676  1.1065  0.4951
15393TIP3    H167594   0.831   5.176  15.808 -0.3599  1.3592 -0.6520
15393TIP3    H267595   0.857   5.301  15.889 -0.9779  0.8048  0.4167
15394TIP3   OH267596   6.300   5.220  10.545  0.9383  0.0210  0.4356
15394TIP3    H167597   6.256   5.230  10.460  0.2818  1.2219  0.9028
15394TIP3    H267598   6.393   5.223  10.524  0.7964  3.2122  0.0346
15395TIP3   OH267599   5.539   5.052  15.824  0.2575  0.1932  0.2737
15395TIP3    H167600   5.494   5.126  15.866 -0.4625 -0.4522  0.6618
15395TIP3    H267601   5.602   5.093  15.764  0.7257  1.1226  1.3846
15396TIP3   OH267602   3.323   1.356  12.825  0.3159 -0.2073  0.0616
15396TIP3    H167603   3.251   1.382  12.767 -1.3020 -0.1058  2.0632
15396TIP3    H267604   3.351   1.271  12.791 -0.8542 -0.3297 -0.6507
15397TIP3   OH267605   1.172   1.519  12.921 -0.0298 -0.8129 -0.4627
15397TIP3    H167606   1.137   1.533  13.009 -0.8978  0.6755 -1.0437
15397TIP3    H267607   1.095   1.508  12.865  0.5021 -1.1052 -1.1538
15398TIP3   OH267608   4.788   4.863   2.444 -0.2034 -0.1569  0.3773
15398TIP3    H167609   4.867   4.912   2.422 -0.4172 -0.0811 -0.2074
15398TIP3    H267610   4.728   4.929   2.479 -0.0165 -0.2148  0.8212
15399TIP3   OH267611   1.565   4.755   5.537 -0.4567  0.3272  0.0505
15399TIP3    H167612   1.645   4.735   5.586 -1.0517  1.3204  1.4357
15399TIP3    H267613   1.532   4.669   5.510  0.5555 -0.1479  0.3022
15400TIP3   OH267614   6.669   4.417   5.784  0.4217 -0.3123 -0.0360
15400TIP3    H167615   6.601   4.411   5.851  0.7028 -2.1649  0.1050
15400TIP3    H267616   6.633   4.370   5.709  0.4312  1.0774 -0.9242
15401TIP3   OH267617   4.485   4.104  11.882 -0.1244  0.2769 -0.1299
15401TIP3    H167618   4.569   4.117  11.838 -0.1761 -2.5515 -1.1250
15401TIP3    H267619   4.420   4.136  11.820  0.1005  1.1622  0.0753
15402TIP3   OH267620   0.307   0.999  16.431  0.1714 -0.2697 -0.2121
15402TIP3    H167621   0.388   1.032  16.392  0.5151 -0.4945  0.3061
15402TIP3    H267622   0.248   1.074  16.431  1.0579  0.4577  1.2827
15403TIP3   OH267623   3.609   0.056  16.089 -0.4453 -0.2750 -0.6293
15403TIP3    H167624   3.610  -0.023  16.143  1.9467 -0.6223 -1.1297
15403TIP3    H267625   3.588   0.025  16.001 -0.7348 -0.1807 -0.5964
15404TIP3   OH267626   5.244   4.359  11.531 -0.2251  0.6058  0.1615
15404TIP3    H167627   5.284   4.289  11.479  0.5774  1.8804 -0.9675
15404TIP3    H267628   5.161   4.322  11.561  0.5535 -1.1312  0.2970
15405TIP3   OH267629   3.572   0.003  12.897 -0.1223 -0.8412 -0.0577
15405TIP3    H167630   3.625   0.078  12.871 -0.6815 -0.4174  0.0045
15405TIP3    H267631   3.627  -0.073  12.878  2.0746 -0.3077  3.6443
15406TIP3   OH267632   1.046   3.558  11.474 -0.6167  0.6591  0.1946
15406TIP3    H167633   1.127   3.604  11.452 -0.4934  0.7099  0.7579
15406TIP3    H267634   0.977   3.613  11.435 -0.2997 -0.1676 -1.5755
15407TIP3   OH267635   4.639   4.208  13.174  0.5540 -0.3206  0.4122
15407TIP3    H167636   4.589   4.227  13.095  1.0292 -1.1033 -0.0876
15407TIP3    H267637   4.730   4.224  13.149  0.7675 -1.2322  0.5916
15408TIP3   OH267638   0.945   5.944   0.853  0.0680  0.1607 -0.0410
15408TIP3    H167639   0.883   5.940   0.926 -1.7729 -3.3025 -1.6420
15408TIP3    H267640   0.897   5.988   0.783  0.6870  0.6530 -0.1520
15409TIP3   OH267641   2.721   3.303   5.454  0.3012  0.2582  0.0526
15409TIP3    H167642   2.633   3.333   5.434 -0.1708 -0.7896  0.5494
15409TIP3    H267643   2.774   3.335   5.380 -0.6684  0.0417 -0.7554
15410TIP3   OH267644   0.820   2.359  14.311  0.1342  0.1449  0.0571
15410TIP3    H167645   0.814   2.271  14.274 -0.6382  0.3076 -0.2025
15410TIP3    H267646   0.891   2.400  14.262 -1.0595  0.4538 -1.4527
15411TIP3   OH267647   6.304   4.924   6.230 -0.5054 -0.1686 -0.3929
15411TIP3    H167648   6.243   4.856   6.262 -0.4477 -0.0562 -0.0356
15411TIP3    H267649   6.335   4.891   6.146 -0.6395 -0.4880 -0.3186
15412TIP3   OH267650   2.744   2.653   0.868  0.2839  0.3794  0.6671
15412TIP3    H167651   2.832   2.685   0.849 -0.2351  1.3580 -0.1733
15412TIP3    H267652   2.707   2.719   0.927 -0.0868  0.2768  0.5545
15413TIP3   OH267653   3.183   2.588  11.604  0.5458 -0.1935  0.5402
15413TIP3    H167654   3.110   2.600  11.543  1.4173  0.6670 -0.3420
15413TIP3    H267655   3.219   2.503  11.582  0.5116 -0.1272  0.2258
15414TIP3   OH267656   3.872   3.445   4.693  0.6324  0.1355 -0.1468
15414TIP3    H167657   3.943   3.425   4.755  0.2145  0.8482  0.5725
15414TIP3    H267658   3.821   3.513   4.737 -1.0875 -1.0941 -0.2039
15415TIP3   OH267659   1.018   3.505   1.466  0.3652 -0.2299  0.2639
15415TIP3    H167660   1.021   3.431   1.405 -1.0597  0.5444 -0.7623
15415TIP3    H267661   0.937   3.550   1.445  1.7138  2.2365  0.1826
15416TIP3   OH267662   2.246   3.969  16.513  0.1807 -0.0401 -0.5899
15416TIP3    H167663   2.187   3.995  16.584  0.5484  0.2038 -0.3711
15416TIP3    H267664   2.329   3.949  16.557  0.7188  1.1102 -1.0592
15417TIP3   OH267665   3.742   2.461   5.778  0.1501 -0.3396 -0.6788
15417TIP3    H167666   3.703   2.469   5.865  1.9871 -0.4166  0.1709
15417TIP3    H267667   3.836   2.466   5.793  0.4843 -0.1184 -2.6962
15418TIP3   OH267668   4.779   0.016  16.385 -0.2990 -0.5145 -0.4840
15418TIP3    H167669   4.796   0.095  16.333  1.3573 -1.2063 -1.0299
15418TIP3    H267670   4.685   0.003  16.377 -0.5699  1.2630 -0.5984
15419TIP3   OH267671   4.820   6.469   0.964  0.0961 -0.1333  0.2355
15419TIP3    H167672   4.884   6.399   0.957  1.8804  1.4617  0.2111
15419TIP3    H267673   4.818   6.491   1.057  3.2310  3.0776 -0.3744
15420TIP3   OH267674   4.184   2.604   0.981 -0.0451 -0.2907  0.0674
15420TIP3    H167675   4.219   2.524   0.940  0.2578  0.6291 -1.5412
15420TIP3    H267676   4.260   2.646   1.021  0.1169  0.0387 -0.5711
15421TIP3   OH267677   5.287   3.100   4.076  0.1463 -0.6124 -0.0058
15421TIP3    H167678   5.267   3.035   4.009 -0.6704 -1.7387  1.3194
15421TIP3    H267679   5.346   3.056   4.136  0.2934  0.1604  0.4280
15422TIP3   OH267680   6.543   1.758  11.161 -0.4952 -0.0655  0.1848
15422TIP3    H167681   6.635   1.731  11.161 -0.0801  1.2040  2.5119
15422TIP3    H267682   6.494   1.676  11.151  0.8615 -0.9453  0.5953
15423TIP3   OH267683   2.742   0.614   3.049  0.1926 -0.5628 -0.5346
15423TIP3    H167684   2.725   0.545   2.985  1.9518 -0.1189 -1.5007
15423TIP3    H267685   2.658   0.660   3.057 -0.7595 -2.2527 -0.5251
15424TIP3   OH267686   5.607   5.052  12.369  0.4299 -0.2427 -0.1905
15424TIP3    H167687   5.593   4.977  12.426  0.5099  0.4893  0.8025
15424TIP3    H267688   5.689   5.091  12.400  0.7952 -0.1873 -1.1912
15425TIP3   OH267689   1.142   3.326  13.988 -0.7579  0.2619  0.4730
15425TIP3    H167690   1.163   3.368  13.905  0.1448 -1.7447 -0.3282
15425TIP3    H267691   1.222   3.334  14.040 -0.5318 -0.5854  0.2627
15426TIP3   OH267692   1.053   2.612  11.926  0.0979  0.1362 -0.0739
15426TIP3    H167693   1.107   2.554  11.872  0.9941 -0.4147  1.3613
15426TIP3    H267694   1.059   2.697  11.883  2.0793  0.0615 -0.0002
15427TIP3   OH267695   6.161   6.267  16.223 -0.4736  0.2911 -0.1772
15427TIP3    H167696   6.114   6.338  16.268 -0.6546  0.0569  0.0028
15427TIP3    H267697   6.142   6.283  16.130 -1.1953  0.0000 -0.0868
15428TIP3   OH267698   4.183   1.392  12.942  0.1880 -0.3183  0.4309
15428TIP3    H167699   4.117   1.460  12.955  1.1468  0.8440 -0.6280
15428TIP3    H267700   4.146   1.314  12.984 -0.1340  1.2981  3.2568
15429TIP3   OH267701   5.647   5.865   2.092 -0.0067  0.1762  0.7360
15429TIP3    H167702   5.659   5.827   2.006  0.2227 -0.5934  1.1026
15429TIP3    H267703   5.729   5.847   2.139 -0.2879  0.2185  1.2532
15430TIP3   OH267704   6.382   2.639   2.591  0.3750 -0.7860  0.1555
15430TIP3    H167705   6.308   2.594   2.551 -0.9934  0.3789  1.3067
15430TIP3    H267706   6.459   2.591   2.561 -0.7417 -1.1971 -2.1475
15431TIP3   OH267707   4.322   5.668  15.053 -0.0073 -0.4754 -0.3028
15431TIP3    H167708   4.261   5.685  15.124 -1.2667 -0.9728 -1.2536
15431TIP3    H267709   4.287   5.717  14.979  0.6640 -0.8785 -0.8954
15432TIP3   OH267710   2.933   5.527  15.015 -0.0276 -0.8176  0.3090
15432TIP3    H167711   2.907   5.505  15.104  0.5355  0.0226  0.6831
15432TIP3    H267712   2.927   5.622  15.011  0.4527 -0.8147 -0.3970
15433TIP3   OH267713   4.932   4.951  12.926 -0.2337 -0.0041 -0.0514
15433TIP3    H167714   4.969   4.923  12.842  0.1107  0.4273 -0.0437
15433TIP3    H267715   5.002   5.000  12.968 -0.2638 -0.5642  0.6759
15434TIP3   OH267716   1.245   0.778   4.064  0.7814  0.1415  0.4343
15434TIP3    H167717   1.186   0.723   4.012  0.9150  1.1835 -0.8426
15434TIP3    H267718   1.239   0.742   4.153 -0.9226 -0.4641  0.0937
15435TIP3   OH267719   1.737   0.290   1.841  0.3661 -0.1232 -0.2575
15435TIP3    H167720   1.791   0.368   1.853  0.2190  0.1528 -1.3692
15435TIP3    H267721   1.796   0.217   1.861  0.8121  0.2288 -0.2856
15436TIP3   OH267722   2.441   1.453  10.640 -0.5908  0.5629 -0.3702
15436TIP3    H167723   2.499   1.504  10.583 -0.5216  0.8652 -0.0310
15436TIP3    H267724   2.431   1.369  10.595  2.6748 -0.7220  1.0762
15437TIP3   OH267725   1.017   3.668  15.468 -0.1890  0.1893 -0.4823
15437TIP3    H167726   1.081   3.617  15.420 -0.2733  1.0073 -1.4766
15437TIP3    H267727   0.986   3.609  15.537  2.2571  0.0506  0.5702
15438TIP3   OH267728   4.965   2.193  15.065 -0.0562 -0.4644 -0.4338
15438TIP3    H167729   4.930   2.272  15.024 -2.4759  0.0438  2.3824
15438TIP3    H267730   4.956   2.125  14.999 -1.8901  0.7515 -1.4939
15439TIP3   OH267731   2.452   2.550  11.915 -0.2236  0.1109  0.1638
15439TIP3    H167732   2.392   2.480  11.941 -1.2894  0.9731  0.0781
15439TIP3    H267733   2.538   2.520  11.943 -0.9992 -0.1611  2.3407
15440TIP3   OH267734   2.082   3.385   1.472 -0.3349 -0.0022 -1.1893
15440TIP3    H167735   2.067   3.343   1.557 -0.4136  1.3049 -0.5403
15440TIP3    H267736   1.996   3.419   1.447  0.3775  2.8329 -0.0094
15441TIP3   OH267737   6.626   0.219  14.466 -0.4993  0.2012 -0.4403
15441TIP3    H167738   6.534   0.192  14.467 -0.1841 -0.8645  0.4992
15441TIP3    H267739   6.657   0.201  14.555 -0.0178  2.7874 -0.0417
15442TIP3   OH267740   4.775   0.704   2.850 -0.0159 -0.2860 -0.3602
15442TIP3    H167741   4.785   0.739   2.938 -0.1295 -0.6085 -0.2172
15442TIP3    H267742   4.707   0.758   2.810  1.0556  0.7814 -0.7381
15443TIP3   OH267743   3.022   0.044   1.169  0.0242  0.6899 -0.2936
15443TIP3    H167744   2.942   0.095   1.161 -0.6696 -0.5903 -1.5874
15443TIP3    H267745   3.088   0.096   1.122 -0.5619  0.6379 -1.1803
15444TIP3   OH267746   5.722   4.625   0.116  0.1327 -0.0337 -0.6410
15444TIP3    H167747   5.707   4.653   0.206  0.4831  0.9663 -0.8961
15444TIP3    H267748   5.641   4.646   0.070  0.4050  0.5897 -0.8379
15445TIP3   OH267749   5.084   2.856   2.952  0.8405  0.5157  0.2991
15445TIP3    H167750   5.147   2.817   2.891 -0.0409 -1.2681  0.4990
15445TIP3    H267751   5.063   2.786   3.013  1.8816  2.3364  2.8454
15446TIP3   OH267752   4.484   1.724  14.763 -0.1497  0.5969  0.3726
15446TIP3    H167753   4.463   1.688  14.677  0.3762  0.1799  0.4164
15446TIP3    H267754   4.432   1.671  14.824 -0.9907  1.2900  0.2649
15447TIP3   OH267755   3.191   4.555  15.882 -0.2310  0.2273 -0.3241
15447TIP3    H167756   3.248   4.571  15.807 -2.2529  2.8473 -1.3812
15447TIP3    H267757   3.142   4.476  15.858  1.4605 -0.8443 -0.3043
15448TIP3   OH267758   5.677   6.060   0.216 -0.8548 -0.7603 -0.4926
15448TIP3    H167759   5.594   6.063   0.263 -1.1259  0.6391 -1.0349
15448TIP3    H267760   5.706   6.152   0.213  0.0174 -1.0578 -1.5075
15449TIP3   OH267761   4.267   2.707  13.093  0.0561  0.3704 -0.4968
15449TIP3    H167762   4.191   2.760  13.070  0.0262 -0.0487 -1.3693
15449TIP3    H267763   4.342   2.754  13.057  0.2123  0.7661  0.3347
15450TIP3   OH267764   3.792   5.153   5.049 -0.0695 -0.2029 -0.4319
15450TIP3    H167765   3.881   5.118   5.056  0.2636  0.6041 -0.5818
15450TIP3    H267766   3.755   5.110   4.973  1.0157  1.2128 -1.7946
15451TIP3   OH267767   4.626   4.807   5.460  0.2026  0.4628  0.1978
15451TIP3    H167768   4.643   4.726   5.508  0.6436 -0.8311 -2.0851
15451TIP3    H267769   4.703   4.861   5.476 -0.1129  0.4717  1.7747
15452TIP3   OH267770   1.370   4.951   0.495  0.2955 -0.1741  0.1571
15452TIP3    H167771   1.301   4.898   0.536  0.9655 -0.0551  1.4506
15452TIP3    H267772   1.346   5.041   0.515 -0.5233  0.0214 -1.5501
15453TIP3   OH267773   4.265   0.940  12.419 -0.0116  0.1717 -0.4641
15453TIP3    H167774   4.347   0.981  12.447 -0.3421  0.4760  0.0726
15453TIP3    H267775   4.245   0.981  12.335 -0.6842  1.6303  0.3773
15454TIP3   OH267776   4.591   3.426  17.201  0.0281  0.4602  0.5697
15454TIP3    H167777   4.601   3.341  17.159  0.0899  0.5328  0.4358
15454TIP3    H267778   4.680   3.450  17.227  0.5344  1.9866 -2.3352
15455TIP3   OH267779   3.164   3.182   3.432 -0.0648 -0.0781  0.4073
15455TIP3    H167780   3.129   3.163   3.345 -2.0295 -3.0771  1.7668
15455TIP3    H267781   3.118   3.262   3.458  1.6467  1.7144 -1.8467
15456TIP3   OH267782   0.533   2.006   0.003 -0.1339  0.0863 -0.6871
15456TIP3    H167783   0.496   1.991  -0.084 -0.8927 -1.2736 -0.1362
15456TIP3    H267784   0.591   2.082  -0.009  0.6254 -0.7532 -2.6239
15457TIP3   OH267785   6.611   2.464   2.996  0.6767  0.4040 -0.2123
15457TIP3    H167786   6.613   2.399   3.066  0.7863 -0.3874 -0.9421
15457TIP3    H267787   6.537   2.437   2.941 -0.9521  2.4045  0.8997
15458TIP3   OH267788   3.359   6.128  14.255  0.3400 -0.0448  0.1735
15458TIP3    H167789   3.267   6.121  14.282  0.3983 -0.8289  0.1649
15458TIP3    H267790   3.407   6.077  14.320  0.9735  1.8600  1.2377
15459TIP3   OH267791   0.479   4.796  16.157  0.3205  0.1673  0.3581
15459TIP3    H167792   0.539   4.781  16.083 -0.3538  0.0059 -0.1609
15459TIP3    H267793   0.520   4.866  16.207  1.2559 -0.3592  0.3421
15460TIP3   OH267794   6.648   0.714   1.300 -0.9946 -0.2493 -0.0988
15460TIP3    H167795   6.720   0.773   1.323 -1.5390  0.4373 -0.1666
15460TIP3    H267796   6.687   0.651   1.239 -1.0805  1.6630 -2.1752
15461TIP3   OH267797   2.038   5.800  14.678 -0.3141 -0.3115 -0.7087
15461TIP3    H167798   1.975   5.755  14.621  0.7057 -2.3798 -0.2608
15461TIP3    H267799   2.052   5.739  14.750 -0.0215  1.4093  0.7049
15462TIP3   OH267800   2.920   4.072   5.396 -0.4995  0.3404 -0.1123
15462TIP3    H167801   2.852   4.043   5.336 -0.0674  0.8915 -0.8796
15462TIP3    H267802   2.872   4.107   5.471 -1.0846  1.1809 -0.8618
15463TIP3   OH267803   5.398   0.627  11.758  0.3118 -0.1381  0.4926
15463TIP3    H167804   5.442   0.560  11.707  2.2359  1.6090 -0.2155
15463TIP3    H267805   5.469   0.680  11.794 -1.1822  2.7832 -0.7117
15464TIP3   OH267806   4.031   5.001  16.103 -0.5560  0.4190 -0.0548
15464TIP3    H167807   4.057   5.018  16.012  0.9647  1.5287  0.5668
15464TIP3    H267808   4.077   4.919  16.125  0.0952  0.8184  0.0997
15465TIP3   OH267809   6.229   5.349  14.497 -0.2689 -0.2922  0.0743
15465TIP3    H167810   6.317   5.336  14.462 -0.0799  1.1306 -0.0118
15465TIP3    H267811   6.243   5.376  14.587 -0.6486 -0.9649  0.3317
15466TIP3   OH267812   4.725   5.510  13.792 -0.4769  0.4345 -0.2609
15466TIP3    H167813   4.812   5.505  13.831 -0.4681 -0.2387 -0.3627
15466TIP3    H267814   4.725   5.592  13.743 -0.1176  0.7421  0.2619
15467TIP3   OH267815   2.002   5.606   0.506 -0.3198  0.6099  0.1929
15467TIP3    H167816   1.922   5.658   0.502 -1.2010 -0.7692 -0.9857
15467TIP3    H267817   2.063   5.651   0.447 -1.3518 -0.0807 -1.4691
15468TIP3   OH267818   0.201   2.534   0.815 -0.5243  0.0897 -0.2173
15468TIP3    H167819   0.152   2.454   0.836 -0.1836 -0.0706 -0.0222
15468TIP3    H267820   0.212   2.531   0.720 -1.6571  0.5752 -0.3710
15469TIP3   OH267821   6.539   4.746   1.400 -0.6211 -0.3780 -0.3551
15469TIP3    H167822   6.607   4.693   1.358 -0.9316 -0.4078 -0.8270
15469TIP3    H267823   6.467   4.746   1.337 -1.0634 -0.3518  0.1503
15470TIP3   OH267824   3.796   2.954  11.289 -0.4368 -0.5566 -0.1893
15470TIP3    H167825   3.719   2.950  11.346 -0.6042 -1.2901 -0.4587
15470TIP3    H267826   3.868   2.979  11.347 -0.4614 -2.0257  0.5064
15471TIP3   OH267827   3.239   6.110  11.800 -0.6825 -0.4152 -0.2477
15471TIP3    H167828   3.311   6.059  11.764 -1.3963 -2.2685  0.8784
15471TIP3    H267829   3.220   6.176  11.733  0.3551 -1.5397 -1.6762
15472TIP3   OH267830   1.541   5.059   3.347  0.2677 -0.7017 -0.2518
15472TIP3    H167831   1.560   5.058   3.441 -0.7109 -0.1470 -0.0421
15472TIP3    H267832   1.552   5.151   3.322  0.7703 -0.8926 -0.7362
15473TIP3   OH267833   6.734   4.853  14.514  0.4052  0.4744  0.0858
15473TIP3    H167834   6.651   4.870  14.469  0.1493 -1.1108 -0.0927
15473TIP3    H267835   6.790   4.927  14.490 -0.0670  0.1996 -2.0109
15474TIP3   OH267836   5.079   3.343  13.245  0.0682  0.0518  0.0802
15474TIP3    H167837   5.024   3.422  13.246  0.0929  0.0986 -0.9217
15474TIP3    H267838   5.017   3.270  13.248  0.0112  0.1070  0.2599
15475TIP3   OH267839   6.074   0.769   3.787 -0.6087  0.1419 -0.0222
15475TIP3    H167840   6.158   0.728   3.808 -0.7653 -0.0157  0.2890
15475TIP3    H267841   6.010   0.699   3.795 -0.7815  0.2792 -0.1934
15476TIP3   OH267842   4.884   6.043   4.035 -0.2336 -0.0427  0.1197
15476TIP3    H167843   4.838   5.977   4.087  2.9088  0.1374  3.3060
15476TIP3    H267844   4.829   6.121   4.040 -1.8217 -1.1434  0.0230
15477TIP3   OH267845   3.130   6.639   1.736  0.3953  0.3083 -0.1524
15477TIP3    H167846   3.187   6.709   1.706  1.5623  0.4671  2.2950
15477TIP3    H267847   3.134   6.573   1.666  0.2626  2.1121 -1.8972
15478TIP3   OH267848   2.699   4.117  15.250 -0.1237  0.4563 -1.0135
15478TIP3    H167849   2.680   4.207  15.278 -2.0108 -0.6274  1.3739
15478TIP3    H267850   2.613   4.078  15.236  0.6445 -1.3619 -0.7629
15479TIP3   OH267851   1.087   2.835   2.224  0.3175  0.0603  0.3645
15479TIP3    H167852   1.026   2.869   2.158 -0.8480 -1.8381  0.4284
15479TIP3    H267853   1.163   2.893   2.219 -0.7944  1.4517 -0.8947
15480TIP3   OH267854   0.328   1.014   4.575  0.4422  0.1832 -0.8144
15480TIP3    H167855   0.272   1.024   4.652 -0.0998  0.2748 -1.2211
15480TIP3    H267856   0.416   1.036   4.607 -0.0110  1.7562 -0.5898
15481TIP3   OH267857   0.715   1.790  14.143  0.3375  0.2461  0.6598
15481TIP3    H167858   0.752   1.705  14.169 -1.0255 -0.3075  0.8183
15481TIP3    H267859   0.725   1.792  14.048 -0.3055 -0.4300  0.5698
15482TIP3   OH267860   4.791   1.526   4.660  0.5494 -0.1888  0.6441
15482TIP3    H167861   4.816   1.444   4.703 -1.5780 -0.1702  1.9925
15482TIP3    H267862   4.738   1.498   4.585  1.0742 -0.0981  0.2410
15483TIP3   OH267863   6.559   2.774  17.133 -0.5695  0.0898 -0.0222
15483TIP3    H167864   6.518   2.813  17.210 -0.7726 -1.6093  0.7674
15483TIP3    H267865   6.510   2.808  17.059 -2.4033 -0.6856  0.8101
15484TIP3   OH267866   1.160   1.027  15.000  0.0511  0.0017 -0.5679
15484TIP3    H167867   1.239   0.985  14.966  0.0197  0.4144 -1.1505
15484TIP3    H267868   1.153   1.109  14.951 -0.7342 -0.0304 -0.5116
15485TIP3   OH267869   4.787   4.772  13.131 -0.0722  0.0821  0.3430
15485TIP3    H167870   4.829   4.698  13.175  0.5084 -0.4831 -1.1491
15485TIP3    H267871   4.856   4.837  13.121  0.2722 -0.5085 -1.3325
15486TIP3   OH267872   2.365   5.138   2.414 -0.6079  0.1840  0.3599
15486TIP3    H167873   2.411   5.220   2.431 -1.1876  1.1131 -2.2225
15486TIP3    H267874   2.272   5.163   2.411 -0.6541 -0.1113 -2.4150
15487TIP3   OH267875   4.431   0.329   1.066 -0.6136 -0.8124  0.3581
15487TIP3    H167876   4.480   0.390   1.121  0.5732  0.2251 -1.7618
15487TIP3    H267877   4.340   0.336   1.097  0.0352 -0.3121  2.1908
15488TIP3   OH267878   2.352   4.874  15.608 -0.3100  0.2425  0.4846
15488TIP3    H167879   2.322   4.798  15.658 -1.8599  1.6910  1.8305
15488TIP3    H267880   2.277   4.934  15.609  0.8465  1.7364 -0.6439
15489TIP3   OH267881   6.028   2.801  11.336 -0.5207 -0.0166  0.4352
15489TIP3    H167882   5.949   2.771  11.382 -0.9985 -0.4839 -0.6568
15489TIP3    H267883   5.998   2.817  11.246  0.4717  0.5306  0.2038
15490TIP3   OH267884   2.197   6.104  11.449  0.4146 -0.1812 -0.3292
15490TIP3    H167885   2.136   6.165  11.407  0.1263  0.2068  0.6425
15490TIP3    H267886   2.147   6.065  11.520  1.4966  0.6464  0.9040
15491TIP3   OH267887   0.913   6.001   1.146  0.3900 -0.1919 -0.5303
15491TIP3    H167888   0.832   6.016   1.194  0.9481 -0.2498  0.4520
15491TIP3    H267889   0.975   6.062   1.186  1.2433 -1.2665 -0.1940
15492TIP3   OH267890   3.237   3.921   3.696 -0.2676  0.3839  0.3338
15492TIP3    H167891   3.206   3.947   3.610 -0.9624  1.0532  0.7809
15492TIP3    H267892   3.162   3.878   3.737  0.8861 -2.4792 -0.4263
15493TIP3   OH267893   3.878   0.868  10.810  0.1055 -0.2992  0.3611
15493TIP3    H167894   3.911   0.957  10.820 -0.7383  0.0947 -0.2661
15493TIP3    H267895   3.872   0.835  10.900  0.9779  0.0650  0.5602
15494TIP3   OH267896   6.044   2.944  12.042 -0.3583 -0.1086  0.5979
15494TIP3    H167897   5.960   2.905  12.020 -1.3759  2.1855  0.2689
15494TIP3    H267898   6.101   2.923  11.968 -1.3722  0.4414 -0.3536
15495TIP3   OH267899   1.412   2.029   0.193 -0.4156  0.2953  0.1171
15495TIP3    H167900   1.442   1.938   0.189 -1.8705 -0.1958 -0.0936
15495TIP3    H267901   1.354   2.032   0.269 -1.0058  0.8346 -0.3374
15496TIP3   OH267902   1.956   5.420  14.495  0.0068 -0.0389 -0.2894
15496TIP3    H167903   1.900   5.349  14.462  0.9775 -0.0279 -2.0273
15496TIP3    H267904   2.027   5.375  14.539 -1.6199 -0.0450  2.4273
15497TIP3   OH267905   1.075   1.683   5.013  0.0962  0.4092  0.3410
15497TIP3    H167906   1.142   1.748   4.993  0.7773 -0.0871  1.0035
15497TIP3    H267907   1.020   1.680   4.934 -0.0494  1.9077  0.3635
15498TIP3   OH267908   1.721   1.179  11.407 -0.0084 -0.3810 -0.0979
15498TIP3    H167909   1.764   1.178  11.322  0.2872 -0.5110  0.0532
15498TIP3    H267910   1.789   1.210  11.468 -1.1912  3.0628 -0.4378
15499TIP3   OH267911   5.364   0.786   5.648 -0.7050  0.2893 -0.2008
15499TIP3    H167912   5.358   0.812   5.740 -0.9046  0.3406 -0.2296
15499TIP3    H267913   5.282   0.740   5.631  0.0666 -1.2876  0.1540
15500TIP3   OH267914   0.576   4.669  16.536  0.0966 -0.6876 -0.2235
15500TIP3    H167915   0.488   4.682  16.500 -0.5000  0.2747  1.5015
15500TIP3    H267916   0.635   4.691  16.464 -1.0501  1.1936 -0.6230
15501TIP3   OH267917   5.617   0.139   5.502  0.1909 -0.1079 -0.7963
15501TIP3    H167918   5.636   0.175   5.588 -1.3589  0.3609 -0.6360
15501TIP3    H267919   5.696   0.155   5.451  0.7557  0.4703  0.2584
15502TIP3   OH267920   1.557   3.926  16.731  0.3463 -0.1449  0.2119
15502TIP3    H167921   1.535   3.866  16.660 -0.5175 -0.9347  1.1439
15502TIP3    H267922   1.635   3.972  16.699  1.9021 -2.7579  0.0539
15503TIP3   OH267923   4.495   2.475  11.067 -0.1270 -0.2340 -0.7988
15503TIP3    H167924   4.532   2.506  11.150  0.2615 -0.9549 -0.6945
15503TIP3    H267925   4.559   2.411  11.035 -0.8778 -0.8793 -1.0360
15504TIP3   OH267926   5.371   2.261   1.209 -0.5397 -0.2187 -0.2265
15504TIP3    H167927   5.407   2.309   1.283  0.1450  2.3622 -2.1524
15504TIP3    H267928   5.292   2.309   1.185 -0.0133 -0.2085 -2.0128
15505TIP3   OH267929   0.535   5.100  12.537  0.1792 -0.2856 -0.0091
15505TIP3    H167930   0.542   5.194  12.520 -1.2091 -0.1532  0.1014
15505TIP3    H267931   0.543   5.092  12.632 -0.6032 -0.1725  0.0757
15506TIP3   OH267932   1.864   0.755   0.203 -0.1169  0.4273 -0.1536
15506TIP3    H167933   1.799   0.698   0.162 -0.3890  1.1757 -0.7498
15506TIP3    H267934   1.930   0.694   0.238  0.0754 -0.2160 -1.6196
15507TIP3   OH267935   5.991   0.314  14.917 -1.1115 -0.5162  0.1250
15507TIP3    H167936   5.965   0.243  14.975 -1.0980 -0.3670  0.3119
15507TIP3    H267937   6.016   0.270  14.835  0.6699 -0.8702  0.8462
15508TIP3   OH267938   1.040   0.525  15.083 -0.5853  1.1195 -0.1624
15508TIP3    H167939   0.962   0.579  15.069 -0.3902  1.2235 -0.8835
15508TIP3    H267940   1.007   0.443  15.118 -1.1624  0.6159 -1.8614
15509TIP3   OH267941   4.084   0.847   3.563 -0.6706  0.1137  0.1166
15509TIP3    H167942   4.082   0.926   3.508  0.0906 -0.3506 -0.5723
15509TIP3    H267943   3.992   0.834   3.587 -0.8121  1.1984  0.2214
15510TIP3   OH267944   6.387   6.040   0.812 -0.2053  0.0368  0.0029
15510TIP3    H167945   6.470   5.995   0.828  2.0349  2.9792 -2.5867
15510TIP3    H267946   6.377   6.098   0.888  1.5265  1.5158 -0.8325
15511TIP3   OH267947   4.872   0.821   2.333 -0.5871  0.2472  0.0600
15511TIP3    H167948   4.953   0.871   2.331 -0.9706  0.8926  0.5820
15511TIP3    H267949   4.804   0.885   2.353 -1.3204 -0.1707 -1.0240
15512TIP3   OH267950   6.199   1.403   3.839  0.3623 -0.3270  0.8330
15512TIP3    H167951   6.213   1.466   3.770  2.1046 -1.4141  0.1402
15512TIP3    H267952   6.145   1.334   3.799 -0.3128  0.0069  1.1583
15513TIP3   OH267953   6.275   1.139  12.393  0.2975  0.0115  0.0975
15513TIP3    H167954   6.186   1.104  12.397  0.1453  0.2942 -0.6626
15513TIP3    H267955   6.325   1.083  12.452 -0.0705 -1.0907 -0.6227
15514TIP3   OH267956   2.047   5.919   1.854  0.8912  0.1617 -0.2569
15514TIP3    H167957   2.097   5.853   1.807 -1.1768 -1.7081  0.0843
15514TIP3    H267958   2.079   5.913   1.944 -0.2340 -1.3674  0.0623
15515TIP3   OH267959   3.702   1.336  13.215 -0.0059 -0.0873  0.3003
15515TIP3    H167960   3.651   1.380  13.147  1.6440  2.3482  0.5874
15515TIP3    H267961   3.667   1.372  13.297  0.4536 -0.3058  0.5892
15516TIP3   OH267962   4.582   3.789  17.108  0.3757 -0.5078  0.1901
15516TIP3    H167963   4.514   3.723  17.095 -1.3910  1.3384 -0.2428
15516TIP3    H267964   4.652   3.764  17.048 -0.8507 -1.2357 -0.9654
15517TIP3   OH267965   4.587   4.575   0.472 -0.4628  0.1171 -0.3852
15517TIP3    H167966   4.638   4.645   0.431  0.1731 -0.1405 -0.0479
15517TIP3    H267967   4.629   4.494   0.443 -1.5844 -0.1469 -1.2806
15518TIP3   OH267968   2.728   1.922  12.045  0.1839  0.0255 -0.6763
15518TIP3    H167969   2.818   1.947  12.065 -0.5910  1.1037  1.7296
15518TIP3    H267970   2.674   1.982  12.097 -1.8619 -2.8253  0.7011
15519TIP3   OH267971   5.618   6.107   4.369 -0.8946 -0.2431 -0.4892
15519TIP3    H167972   5.615   6.184   4.427  1.5601 -0.3053 -0.2607
15519TIP3    H267973   5.593   6.142   4.283 -0.5560  0.6544 -0.2324
15520TIP3   OH267974   2.275   5.216   4.658 -0.1304  0.0958  0.7661
15520TIP3    H167975   2.266   5.122   4.672  0.2430 -0.0545  0.0091
15520TIP3    H267976   2.227   5.256   4.731 -1.0692 -0.6762  0.5763
15521TIP3   OH267977   2.079   3.550   5.405  0.0102 -0.5288  0.2756
15521TIP3    H167978   2.011   3.484   5.395  0.0711 -0.8663  1.9187
15521TIP3    H267979   2.080   3.570   5.499  0.1556  1.6306 -0.1583
15522TIP3   OH267980   2.451   0.541   5.453  0.1822 -0.1386 -0.0246
15522TIP3    H167981   2.507   0.465   5.438  0.7108  0.4658 -1.2174
15522TIP3    H267982   2.362   0.508   5.442  0.3272 -0.9873  1.3514
15523TIP3   OH267983   0.933   3.669  15.799  0.2551 -0.1703  0.5956
15523TIP3    H167984   0.951   3.578  15.772  0.1334 -0.0912  0.2323
15523TIP3    H267985   0.867   3.699  15.736  0.5053  0.2644  0.5399
15524TIP3   OH267986   4.398   3.866  15.937 -0.2248 -0.2122 -0.1038
15524TIP3    H167987   4.441   3.799  15.883 -0.4494  0.3711 -1.0131
15524TIP3    H267988   4.444   3.947  15.917  0.1896 -0.1176  1.1648
15525TIP3   OH267989   5.440   4.145   0.068  0.5154 -0.6283  0.2115
15525TIP3    H167990   5.364   4.137   0.125  0.8752 -0.2807  0.7430
15525TIP3    H267991   5.510   4.098   0.114  1.0776  0.5198  0.5630
15526TIP3   OH267992   2.001   0.704   5.425  0.6900 -0.2294  0.1232
15526TIP3    H167993   2.019   0.686   5.333  0.5063  0.8140 -0.1276
15526TIP3    H267994   2.016   0.621   5.469 -0.3500 -1.0382 -1.0085
15527TIP3   OH267995   3.519   1.587   6.067  0.7195 -0.7236 -0.0848
15527TIP3    H167996   3.427   1.585   6.040  0.5806  0.6378  0.2414
15527TIP3    H267997   3.517   1.572   6.161  0.8080 -0.5293 -0.0507
15528TIP3   OH267998   6.652   0.150  11.764 -0.3341 -0.5544 -0.4217
15528TIP3    H167999   6.614   0.171  11.679 -0.8736 -0.1548 -0.0867
15528TIP3    H268000   6.733   0.103  11.743 -1.7090 -2.6510 -1.1211
15529TIP3   OH268001   1.790   3.268   5.667  0.3606  0.0111  0.7030
15529TIP3    H168002   1.782   3.223   5.751 -2.1192  0.8410  0.9627
15529TIP3    H268003   1.715   3.239   5.616  1.3909  0.1496 -0.9562
15530TIP3   OH268004   3.505   2.891   5.187 -0.2447 -0.2816 -0.3024
15530TIP3    H168005   3.496   2.836   5.265 -0.2165  0.1711  0.0192
15530TIP3    H268006   3.482   2.979   5.216  1.8014  0.2853 -0.2842
15531TIP3   OH268007   0.227   0.122  16.290 -0.0861  0.6401 -0.3168
15531TIP3    H168008   0.221   0.217  16.299  0.6485  1.0271 -3.3937
15531TIP3    H268009   0.258   0.108  16.200 -1.3841 -2.5508 -0.3341
15532TIP3   OH268010   1.654   6.229  14.153 -0.1453 -0.4760  0.2524
15532TIP3    H168011   1.660   6.144  14.110 -1.1753  0.2535 -1.3832
15532TIP3    H268012   1.562   6.237  14.177  0.2958 -0.5943  2.0369
15533TIP3   OH268013   4.428   3.237   1.671 -0.1428 -0.1908 -0.1549
15533TIP3    H168014   4.430   3.204   1.760 -1.0248 -0.3072 -0.1836
15533TIP3    H268015   4.377   3.318   1.676  0.9480  0.5212 -0.3098
15534TIP3   OH268016   3.555   6.707   1.195 -0.0284 -1.0238 -0.4150
15534TIP3    H168017   3.552   6.684   1.102 -2.1222  0.2839 -0.6940
15534TIP3    H268018   3.483   6.659   1.235 -0.9845  0.7006 -0.0149
15535TIP3   OH268019   6.211   2.054   1.528 -0.5138  0.1361  0.2565
15535TIP3    H168020   6.242   1.984   1.586  0.7919  1.4278  1.1482
15535TIP3    H268021   6.154   2.009   1.465 -0.4320 -1.5816  1.3671
15536TIP3   OH268022   6.647   5.061   2.661 -0.1379 -0.1351  0.0186
15536TIP3    H168023   6.628   5.133   2.721  0.8557 -0.8223  1.1944
15536TIP3    H268024   6.576   5.063   2.597 -0.1047  1.8925  0.0259
15537TIP3   OH268025   0.178   0.334   5.135 -0.1435  0.2841  0.4210
15537TIP3    H168026   0.126   0.336   5.055  0.3896  0.4263  0.0796
15537TIP3    H268027   0.258   0.288   5.111  0.0336  0.3549  0.8678
15538TIP3   OH268028   5.255   4.136   3.775  0.1078  0.1037 -0.1888
15538TIP3    H168029   5.323   4.199   3.796 -0.1421  1.1243 -2.2821
15538TIP3    H268030   5.179   4.189   3.753 -0.2168 -0.9173 -1.5996
15539TIP3   OH268031   5.583   3.153  15.834  0.0340 -0.0769 -0.0821
15539TIP3    H168032   5.650   3.162  15.901 -1.2522  1.2829  1.0506
15539TIP3    H268033   5.570   3.242  15.800 -2.4597  0.0243  0.9910
15540TIP3   OH268034   6.608   4.883   5.404  0.4455  0.5761 -0.1452
15540TIP3    H168035   6.644   4.836   5.479 -0.8759  0.9682  0.7417
15540TIP3    H268036   6.665   4.859   5.331  1.2545 -0.4419  0.8148
15541TIP3   OH268037   3.202   5.162  12.529 -0.1433  0.0676 -1.0781
15541TIP3    H168038   3.211   5.088  12.469 -1.4045 -0.5286 -0.5492
15541TIP3    H268039   3.192   5.238  12.473 -0.8199 -0.4243 -1.6245
15542TIP3   OH268040   3.642   3.197  16.382 -0.2986 -0.3838  0.1505
15542TIP3    H168041   3.673   3.274  16.430 -1.2872  0.8454 -1.1291
15542TIP3    H268042   3.718   3.168  16.332 -0.8559  1.9807 -2.1640
15543TIP3   OH268043   5.789   1.878   2.143  0.1331 -0.2688 -0.1062
15543TIP3    H168044   5.783   1.786   2.168 -2.0745 -0.0597  0.2217
15543TIP3    H268045   5.883   1.894   2.132  0.6320 -2.2281  1.0728
15544TIP3   OH268046   3.002   5.383  15.469 -0.8794  0.1790 -0.0068
15544TIP3    H168047   2.961   5.368  15.384  0.3511 -0.0927 -0.5729
15544TIP3    H268048   2.972   5.470  15.495 -0.9644  0.4308 -0.9100
15545TIP3   OH268049   6.216   2.427   3.519 -0.2506  0.2896  0.4100
15545TIP3    H168050   6.185   2.483   3.590 -0.8897  0.9499 -0.3776
15545TIP3    H268051   6.205   2.337   3.551 -4.5889  0.4379 -0.4594
15546TIP3   OH268052   2.085   0.641  13.149  0.4085 -0.4410 -0.2597
15546TIP3    H168053   2.054   0.616  13.236  0.8764 -1.7833 -0.4641
15546TIP3    H268054   2.031   0.589  13.089 -1.1776  1.8394 -0.8534
15547TIP3   OH268055   0.425   0.506   2.459 -0.4993  0.1619  0.0733
15547TIP3    H168056   0.480   0.514   2.381 -0.8735  2.7205  0.0098
15547TIP3    H268057   0.486   0.520   2.532 -0.6909  0.8897  0.0959
15548TIP3   OH268058   0.472   3.107   4.971  0.1563 -0.0545 -0.1689
15548TIP3    H168059   0.422   3.035   4.932 -2.2716  1.1442  0.6023
15548TIP3    H268060   0.525   3.140   4.898 -1.3470 -0.3843 -1.4588
15549TIP3   OH268061   4.700   4.108   5.969  0.0297 -0.6097 -0.0845
15549TIP3    H168062   4.687   4.144   6.057  1.4049  1.3622 -0.6586
15549TIP3    H268063   4.615   4.072   5.945 -0.5965 -0.3709  1.7088
15550TIP3   OH268064   6.266   0.311   3.375 -0.0619 -0.3098 -0.4355
15550TIP3    H168065   6.283   0.275   3.288 -0.3507 -0.4121 -0.4481
15550TIP3    H268066   6.173   0.296   3.390 -0.8582  3.0808 -1.6478
15551TIP3   OH268067   6.682   0.060  12.035  0.6046 -1.1458 -0.7362
15551TIP3    H168068   6.700   0.130  11.972 -0.3687  0.5097  0.7861
15551TIP3    H268069   6.614   0.007  11.993  2.0291 -1.7944 -2.3133
15552TIP3   OH268070   5.335   1.580   4.193  0.4731  0.2514 -0.3364
15552TIP3    H168071   5.242   1.603   4.200  0.2147 -0.5440 -1.2018
15552TIP3    H268072   5.375   1.620   4.271 -0.5408  0.8289 -0.1047
15553TIP3   OH268073   3.100   0.103   0.653  0.2269 -0.1944 -0.5687
15553TIP3    H168074   3.109   0.096   0.558  2.3706  0.2464 -0.4210
15553TIP3    H268075   3.166   0.043   0.688  0.4238  0.6903  0.6348
15554TIP3   OH268076   0.256   5.260  14.186  0.0357 -0.0467 -0.3257
15554TIP3    H168077   0.298   5.346  14.179  0.8767 -0.5873 -2.2394
15554TIP3    H268078   0.319   5.200  14.146 -0.6125 -1.5382  0.8521
15555TIP3   OH268079   6.494   2.303   1.781  0.1461  0.2190  0.2935
15555TIP3    H168080   6.407   2.277   1.810 -1.2035  4.1125 -0.0186
15555TIP3    H268081   6.543   2.314   1.863  0.0551 -0.9084  0.5136
15556TIP3   OH268082   0.787   1.303   1.408  0.5634 -0.5967 -0.0595
15556TIP3    H168083   0.768   1.335   1.496 -0.0183 -0.9613 -0.0544
15556TIP3    H268084   0.825   1.379   1.363  0.1329 -0.1915  0.2648
15557TIP3   OH268085   2.569   0.184  11.198  0.3954  0.0332 -0.5650
15557TIP3    H168086   2.533   0.103  11.161 -1.7436  0.0258  1.4231
15557TIP3    H268087   2.492   0.238  11.216  1.6066  1.2831  0.9452
15558TIP3   OH268088   5.560   3.758   5.428  1.1914  0.4045 -0.1333
15558TIP3    H168089   5.611   3.677   5.434  1.3377  0.5342  0.3953
15558TIP3    H268090   5.557   3.778   5.334  0.9707 -0.3289 -0.2880
15559TIP3   OH268091   0.066   2.141   3.507  0.1558 -0.2429  0.0248
15559TIP3    H168092   0.162   2.144   3.504  0.1140 -0.3739 -2.6586
15559TIP3    H268093   0.042   2.075   3.443 -1.7442 -0.6274  1.0983
15560TIP3   OH268094   5.694   0.455   2.511  0.2054  0.4015  0.0053
15560TIP3    H168095   5.614   0.411   2.483 -0.4000  0.9599  0.8117
15560TIP3    H268096   5.748   0.459   2.432 -0.0500 -1.0635 -0.2635
15561TIP3   OH268097   1.765   2.967  11.856  0.3477  0.6027  0.3220
15561TIP3    H168098   1.714   3.044  11.878  0.6651  1.0102 -0.3482
15561TIP3    H268099   1.701   2.905  11.821  0.0847  0.5372  0.9104
15562TIP3   OH268100   3.463   2.560  15.475  0.1843  0.1433  0.3631
15562TIP3    H168101   3.404   2.554  15.400  0.6582 -0.2157  0.0161
15562TIP3    H268102   3.551   2.555  15.438  0.4322  0.4629  0.8977
15563TIP3   OH268103   5.399   1.926   0.567 -0.1006  0.3627 -0.3678
15563TIP3    H168104   5.403   1.916   0.472  1.8144 -0.0387 -0.2515
15563TIP3    H268105   5.374   1.839   0.598  3.4839 -0.6866 -0.2488
15564TIP3   OH268106   2.381   6.630  16.243 -0.6264  0.6088 -0.0346
15564TIP3    H168107   2.474   6.653  16.245  0.4968 -3.3872 -1.8103
15564TIP3    H268108   2.350   6.648  16.332  2.1359  0.7984  0.9439
15565TIP3   OH268109   2.887   2.883  15.906 -0.1144  0.2044  0.0470
15565TIP3    H168110   2.963   2.922  15.863 -0.4652 -0.4896 -1.2092
15565TIP3    H268111   2.925   2.832  15.978  0.4541  1.4893  0.6886
15566TIP3   OH268112   2.744   1.352  11.696  0.0971  0.4976  0.4028
15566TIP3    H168113   2.688   1.316  11.629  0.7074 -1.8703  1.1189
15566TIP3    H268114   2.832   1.352  11.657  0.0447  1.6689  0.2521
15567TIP3   OH268115   2.054   2.620   6.070 -0.1623 -0.0938  0.0506
15567TIP3    H168116   2.125   2.577   6.117  0.3210  0.6474  0.0160
15567TIP3    H268117   1.989   2.640   6.138 -2.5042 -4.8835 -0.5644
15568TIP3   OH268118   3.105   5.646  16.825  0.1618 -0.2421  0.6784
15568TIP3    H168119   3.152   5.697  16.758  0.4357 -1.4310 -0.0517
15568TIP3    H268120   3.014   5.673  16.815  0.2254 -0.2760 -0.0530
15569TIP3   OH268121   3.986   4.819  10.678  0.2914 -1.0087  0.2112
15569TIP3    H168122   3.999   4.743  10.734  0.7607 -1.1626 -0.1029
15569TIP3    H268123   3.975   4.892  10.739  1.4383 -1.0730  0.5049
15570TIP3   OH268124   2.232   3.817  15.048  0.8863 -0.1100  0.2311
15570TIP3    H168125   2.305   3.773  15.005 -0.2604 -1.1719 -0.6635
15570TIP3    H268126   2.154   3.771  15.017 -0.0201 -0.6646  3.1624
15571TIP3   OH268127   3.824   1.735   2.622 -0.2928  0.2957 -0.0204
15571TIP3    H168128   3.753   1.799   2.613 -0.6243  0.2241  1.9777
15571TIP3    H268129   3.812   1.697   2.709 -0.7416 -3.2771 -1.5220
15572TIP3   OH268130   0.117   2.967   2.518 -0.3730  0.2604 -0.1361
15572TIP3    H168131   0.107   2.910   2.595 -0.3972 -0.2218 -0.4912
15572TIP3    H268132   0.130   2.906   2.445 -1.1034  0.6874 -0.6302
15573TIP3   OH268133   0.854   4.191   5.922 -0.1530  0.3640 -0.5890
15573TIP3    H168134   0.793   4.198   5.995  0.4107  1.8315 -0.2478
15573TIP3    H268135   0.800   4.209   5.845 -0.5116 -0.0683 -0.4406
15574TIP3   OH268136   4.820   6.286   5.544 -0.0515 -0.3409  0.4096
15574TIP3    H168137   4.903   6.270   5.500  0.2216 -0.1625  0.8578
15574TIP3    H268138   4.844   6.323   5.629 -0.4711 -2.8900  1.6779
15575TIP3   OH268139   5.062   5.171   0.565  0.0489 -0.5512 -0.0619
15575TIP3    H168140   5.087   5.176   0.473  1.9435 -1.3641  0.3937
15575TIP3    H268141   5.121   5.107   0.603  0.2263  0.8006  2.0437
15576TIP3   OH268142   1.313   4.498   3.852  0.8937  0.1962 -0.0892
15576TIP3    H168143   1.382   4.451   3.899  0.0658 -1.1816 -0.2408
15576TIP3    H268144   1.300   4.448   3.772 -1.6834 -0.7218  0.8625
15577TIP3   OH268145   4.328   0.772  15.654 -0.4296  0.1646  0.6868
15577TIP3    H168146   4.246   0.748  15.696 -1.2297  0.7135 -0.5412
15577TIP3    H268147   4.304   0.795  15.564  0.8956  1.5046  0.6525
15578TIP3   OH268148   3.835   5.314   3.250 -0.4208  0.1002  0.2331
15578TIP3    H168149   3.767   5.262   3.293 -0.1437 -1.0510 -0.7001
15578TIP3    H268150   3.828   5.291   3.157  1.8062 -0.7035  0.2412
15579TIP3   OH268151   3.059   4.221  14.952  0.2182  0.1293  0.3631
15579TIP3    H168152   3.098   4.185  14.872 -0.1141  2.3960 -0.8558
15579TIP3    H268153   2.985   4.273  14.921 -0.0666  0.8331  2.1667
15580TIP3   OH268154   2.439   3.151  16.887  0.3791 -0.4577  0.3123
15580TIP3    H168155   2.358   3.174  16.843 -0.7964 -1.4888  1.8985
15580TIP3    H268156   2.483   3.090  16.827  1.5848  2.5475 -2.0331
15581TIP3   OH268157   5.410   6.436  13.237 -0.4682  0.4835 -0.4164
15581TIP3    H168158   5.366   6.456  13.154  0.3797 -0.0680 -1.0127
15581TIP3    H268159   5.472   6.367  13.214 -0.2653  0.2945  0.6997
15582TIP3   OH268160   0.528   0.329  12.929 -0.2033  0.5374 -0.5216
15582TIP3    H168161   0.444   0.284  12.939 -0.1455  0.2514 -1.2705
15582TIP3    H268162   0.593   0.260  12.940 -0.0791  0.6798 -0.3680
15583TIP3   OH268163   2.789   1.015   0.334 -0.2014  0.9253 -0.3658
15583TIP3    H168164   2.876   1.020   0.293  0.5834  0.8935  1.2611
15583TIP3    H268165   2.804   0.968   0.416 -1.8379  0.5707 -0.2559
15584TIP3   OH268166   4.490   6.111   4.996  0.1977 -0.1676  0.0343
15584TIP3    H168167   4.529   6.154   5.072  2.1325 -3.5488  1.1107
15584TIP3    H268168   4.401   6.090   5.024  0.1388  0.6703  0.4974
15585TIP3   OH268169   2.086   0.728   0.926 -0.0394  0.1562  0.1660
15585TIP3    H168170   2.104   0.685   0.843 -2.7611 -1.8304  0.5503
15585TIP3    H268171   2.007   0.685   0.959  0.3103  1.7140  3.2080
15586TIP3   OH268172   0.105   2.304  15.643 -0.3011  0.4727 -0.1346
15586TIP3    H168173   0.122   2.247  15.717 -2.6835  2.8607  2.3522
15586TIP3    H268174   0.164   2.378  15.654 -1.1978  1.2083 -0.1795
15587TIP3   OH268175   2.314   4.659  14.697 -0.7813  0.1350 -0.3412
15587TIP3    H168176   2.245   4.670  14.632 -2.4123 -0.2999  1.2594
15587TIP3    H268177   2.268   4.631  14.777  1.2307 -0.0863  0.7957
15588TIP3   OH268178   0.645   4.925   1.707 -0.5380  0.4289  0.4489
15588TIP3    H168179   0.665   4.908   1.615 -1.0863  1.9385  0.0433
15588TIP3    H268180   0.718   4.978   1.739  0.9425 -2.1956  1.5984
15589TIP3   OH268181   3.682   1.582   0.766 -1.0396 -0.0552  0.0198
15589TIP3    H168182   3.609   1.565   0.708 -1.2133  1.6072 -0.2823
15589TIP3    H268183   3.728   1.656   0.726  1.1392 -1.4247 -0.0941
15590TIP3   OH268184   2.348   4.360  16.207  0.2439  0.0399 -0.0677
15590TIP3    H168185   2.437   4.353  16.242  0.3982  1.1910 -0.2101
15590TIP3    H268186   2.306   4.278  16.233  1.2130 -0.3291  0.3787
15591TIP3   OH268187   3.561   2.210   4.691  0.3621  0.1220 -0.3094
15591TIP3    H168188   3.476   2.173   4.714  1.1192 -0.9976  0.7217
15591TIP3    H268189   3.555   2.226   4.597 -1.1580  0.5085 -0.1569
15592TIP3   OH268190   4.541   4.921   0.702 -0.1441 -0.0574  0.3959
15592TIP3    H168191   4.526   5.008   0.741 -1.3278 -0.9919  2.1038
15592TIP3    H268192   4.519   4.933   0.610  1.8272  1.9868  0.1462
15593TIP3   OH268193   1.470   3.443  16.466 -1.0275 -0.6818 -0.9343
15593TIP3    H168194   1.545   3.424  16.409 -0.1758 -0.8387  0.2377
15593TIP3    H268195   1.411   3.494  16.410  0.4925  0.5236 -1.5037
15594TIP3   OH268196   6.440   6.179  13.826 -0.4007 -0.4416  0.3032
15594TIP3    H168197   6.387   6.182  13.906 -0.7628 -0.6157  0.0693
15594TIP3    H268198   6.528   6.159  13.857 -0.2992  0.6706  0.7762
15595TIP3   OH268199   4.475   4.169   0.298  0.6986  0.6915  0.2100
15595TIP3    H168200   4.566   4.150   0.275  0.0604 -0.0613 -1.8662
15595TIP3    H268201   4.436   4.201   0.217 -1.3554 -0.8123  0.5528
15596TIP3   OH268202   0.739   5.054  11.919 -0.1821  0.3193  0.4615
15596TIP3    H168203   0.788   4.972  11.907  1.4618  1.1418  1.3751
15596TIP3    H268204   0.803   5.115  11.957 -1.4188  1.9908 -0.0741
15597TIP3   OH268205   2.216   1.209   1.897  0.5369 -1.0882  0.4342
15597TIP3    H168206   2.303   1.232   1.864  1.2066 -3.6999  0.2745
15597TIP3    H268207   2.220   1.226   1.991  1.7939 -2.7610  0.7086
15598TIP3   OH268208   0.345   4.578   5.952 -0.1455  0.6788  0.1988
15598TIP3    H168209   0.372   4.669   5.962  1.2425  0.2078  0.8126
15598TIP3    H268210   0.396   4.530   6.017 -1.3406 -0.4522  0.3170
15599TIP3   OH268211   1.116   0.400   3.904  0.6769 -0.6256  0.2166
15599TIP3    H168212   1.098   0.493   3.917  0.3435 -0.6989  0.2869
15599TIP3    H268213   1.120   0.390   3.808 -1.2169 -0.8898  0.1401
15600TIP3   OH268214   1.499   5.184  11.056 -0.7357  0.8339  0.0313
15600TIP3    H168215   1.414   5.140  11.048  0.6541 -2.2055  1.3682
15600TIP3    H268216   1.531   5.160  11.143  2.0836  0.8772 -0.9503
15601TIP3   OH268217   5.321   3.815   4.840  0.7276  0.6643 -0.1162
15601TIP3    H168218   5.361   3.818   4.753  0.2552  1.5103 -0.3091
15601TIP3    H268219   5.285   3.727   4.846  1.3647  0.3688 -0.5015
15602TIP3   OH268220   5.704   2.002   5.893  0.0272 -0.0849  0.2941
15602TIP3    H168221   5.734   1.915   5.918 -0.8358 -0.6729 -0.6704
15602TIP3    H268222   5.613   2.006   5.922 -0.3718 -0.0418 -0.9086
15603TIP3   OH268223   2.777   0.191  11.651 -0.1457  0.2666  0.3031
15603TIP3    H168224   2.787   0.217  11.743  0.1371  2.5098 -0.3349
15603TIP3    H268225   2.729   0.263  11.611 -2.2653 -1.7435 -0.8552
15604TIP3   OH268226   3.102   2.468   3.551 -0.1367  0.1827  0.0564
15604TIP3    H168227   3.095   2.383   3.507 -3.4797  0.1870  0.4704
15604TIP3    H268228   3.100   2.448   3.644 -1.2411  0.7155  0.1569
15605TIP3   OH268229   1.234   1.850  11.468 -0.1424  0.5558  0.0449
15605TIP3    H168230   1.285   1.918  11.512  0.9074  0.1284 -0.4846
15605TIP3    H268231   1.201   1.892  11.389  0.0103  0.6332  0.0201
15606TIP3   OH268232   3.759   3.814  16.396 -0.3944 -0.0583 -0.2601
15606TIP3    H168233   3.711   3.760  16.333 -0.5189 -1.1470  0.7661
15606TIP3    H268234   3.828   3.855  16.344 -2.5268  1.7427 -1.8251
15607TIP3   OH268235   3.330   3.613   5.042 -0.4532 -0.0349  0.1156
15607TIP3    H168236   3.424   3.598   5.044 -0.5264 -0.8083 -1.5525
15607TIP3    H268237   3.320   3.706   5.022 -0.0603  0.1493  0.7507
15608TIP3   OH268238   0.957   1.423  11.865  0.5377 -0.5026 -0.6411
15608TIP3    H168239   0.984   1.477  11.939  1.3999 -0.5254 -0.9309
15608TIP3    H268240   1.031   1.427  11.804 -0.0529 -0.7076 -1.3743
15609TIP3   OH268241   5.541   2.882   2.102  0.0857  0.8188 -0.2192
15609TIP3    H168242   5.473   2.824   2.136  0.3216 -0.3540 -1.6633
15609TIP3    H268243   5.498   2.968   2.097 -0.6459  0.5278  0.8000
15610TIP3   OH268244   4.024   0.980  11.397  0.5802  0.1794  0.1103
15610TIP3    H168245   4.084   1.008  11.467  2.3483 -0.1369 -1.2333
15610TIP3    H268246   4.075   0.916  11.347 -1.4884 -1.3406 -0.1003
15611TIP3   OH268247   5.368   4.578   4.925 -0.0095 -0.5481  0.2162
15611TIP3    H168248   5.347   4.668   4.899  1.1213 -0.2806  0.1812
15611TIP3    H268249   5.339   4.571   5.015  0.7476  0.1495  0.5177
15612TIP3   OH268250   6.633   6.383   1.474 -0.0797  0.6763  0.2404
15612TIP3    H168251   6.698   6.318   1.500 -0.6925  0.4445  1.2203
15612TIP3    H268252   6.628   6.375   1.379  1.8338  1.1971  0.0767
15613TIP3   OH268253   0.792   5.717   4.280  0.1520  0.3544 -0.1197
15613TIP3    H168254   0.759   5.715   4.190 -0.1366 -0.3110  0.0029
15613TIP3    H268255   0.841   5.636   4.290 -1.3686 -0.4614  0.9117
15614TIP3   OH268256   6.173   2.039  14.742 -0.1873  0.2712 -0.8301
15614TIP3    H168257   6.106   2.010  14.803  1.9352 -0.4496  1.2177
15614TIP3    H268258   6.203   2.123  14.777 -1.3054  1.5307 -2.7845
15615TIP3   OH268259   0.853   0.524  13.489  0.1709  0.3565  0.1856
15615TIP3    H168260   0.920   0.513  13.557 -1.0713 -1.0057  1.2375
15615TIP3    H268261   0.784   0.575  13.532 -1.5718 -2.3117  0.6667
15616TIP3   OH268262   4.585   0.232   5.694  0.0396  0.1313  0.4201
15616TIP3    H168263   4.516   0.289   5.729  0.6385 -0.2071  2.1789
15616TIP3    H268264   4.662   0.253   5.745  0.3261 -2.1225  0.9589
15617TIP3   OH268265   1.878   2.675   1.926  0.2513 -0.0083  0.0405
15617TIP3    H168266   1.957   2.693   1.876 -0.7092  3.2148 -0.4119
15617TIP3    H268267   1.810   2.661   1.861 -0.4046  1.3556  0.4175
15618TIP3   OH268268   0.536   2.343  14.108  1.0287 -0.2485  0.1820
15618TIP3    H168269   0.629   2.322  14.103  1.4589  1.1922  1.8146
15618TIP3    H268270   0.494   2.260  14.130  1.9560 -0.8296 -0.1935
15619TIP3   OH268271   0.194   3.810  12.945 -0.3941 -0.3354  0.0151
15619TIP3    H168272   0.131   3.861  12.894  0.6073  0.2697 -0.6432
15619TIP3    H268273   0.247   3.765  12.879 -0.3190 -1.0658  0.5683
15620TIP3   OH268274   1.026   1.538   4.331  0.1467 -0.4098  0.1743
15620TIP3    H168275   0.971   1.566   4.258  1.6722  1.5152 -0.3032
15620TIP3    H268276   1.085   1.473   4.292  2.3741  2.1536 -0.9042
15621TIP3   OH268277   6.235   0.599   4.746  0.2245  0.1368 -0.2783
15621TIP3    H168278   6.271   0.519   4.787  0.6869  0.0423 -0.8661
15621TIP3    H268279   6.280   0.605   4.662 -0.5857  0.4415 -0.6922
15622TIP3   OH268280   3.746   5.060  17.039 -0.8402 -0.4689 -0.0693
15622TIP3    H168281   3.823   5.075  17.094 -1.7338  0.0686  1.0525
15622TIP3    H268282   3.701   5.145  17.036 -0.2291 -0.1964 -2.5407
15623TIP3   OH268283   2.685   1.711   5.228 -0.1169  0.0558 -0.4383
15623TIP3    H168284   2.616   1.654   5.262 -0.4455  0.9353  0.3928
15623TIP3    H268285   2.720   1.756   5.305 -0.0412  1.1749 -1.1070
15624TIP3   OH268286   1.756   1.341  15.434  0.0570  0.1445 -0.3490
15624TIP3    H168287   1.704   1.389  15.370 -1.0904 -1.2841 -0.5453
15624TIP3    H268288   1.726   1.250  15.425  0.4602 -0.2109  1.6267
15625TIP3   OH268289   5.991   4.981   3.668  0.6044  0.7652 -0.1265
15625TIP3    H168290   5.978   5.039   3.594  0.7022  0.7262 -0.1736
15625TIP3    H268291   5.935   5.018   3.737  1.4939  1.5278  0.1880
15626TIP3   OH268292   6.648   2.934  11.235  0.2647  0.7822  0.4622
15626TIP3    H168293   6.579   2.972  11.179  0.8691  0.0047 -0.8393
15626TIP3    H268294   6.656   2.844  11.204  0.6755  0.3703  1.7656
15627TIP3   OH268295   0.387   2.544  15.420 -0.5750  0.3176 -0.2314
15627TIP3    H168296   0.382   2.621  15.364  0.2284  0.7346  0.2530
15627TIP3    H268297   0.308   2.548  15.474  0.6587  2.1775  1.5106
15628TIP3   OH268298   1.731   4.934   0.075  0.2140  0.0340  0.0306
15628TIP3    H168299   1.702   4.908   0.163 -1.9983  0.3928 -0.5595
15628TIP3    H268300   1.701   5.025   0.067 -2.1631 -0.8939 -2.1429
15629TIP3   OH268301   6.123   3.404   5.739  0.3602 -0.0791  0.3869
15629TIP3    H168302   6.091   3.494   5.740  0.3590 -0.0826  1.0733
15629TIP3    H268303   6.215   3.412   5.715 -0.0989 -0.0546 -1.3840
15630TIP3   OH268304   5.390   5.052   1.040 -0.0675 -0.3883  0.0902
15630TIP3    H168305   5.453   5.050   1.112 -3.0547  0.7456  2.8460
15630TIP3    H268306   5.438   5.090   0.967  2.7980 -0.7445  1.7322
15631TIP3   OH268307   1.572   5.121   3.618 -0.6655 -0.4960 -0.7632
15631TIP3    H168308   1.487   5.102   3.658 -0.5790  0.5962 -0.0085
15631TIP3    H268309   1.629   5.050   3.646 -0.7318  0.0046  0.7108
15632TIP3   OH268310   0.640   6.228   5.434 -0.2599  0.0085 -0.2090
15632TIP3    H168311   0.546   6.227   5.446 -0.2429  1.4671  0.0320
15632TIP3    H268312   0.675   6.259   5.517  0.4827 -1.1793 -0.0558
15633TIP3   OH268313   3.979   3.889   3.392  0.5227 -0.2460  0.5803
15633TIP3    H168314   4.002   3.807   3.348 -5.1440 -1.7208  0.0349
15633TIP3    H268315   3.945   3.946   3.323 -0.1887  0.7406  1.7106
15634TIP3   OH268316   0.408   1.301   1.393 -0.1709  0.8343 -0.0845
15634TIP3    H168317   0.405   1.206   1.389  0.5716  0.8393 -0.7249
15634TIP3    H268318   0.373   1.322   1.480  0.5063 -0.0521  0.4089
15635TIP3   OH268319   3.372   6.744  16.408 -0.1040 -0.0813 -0.2540
15635TIP3    H168320   3.334   6.657  16.416  0.7301 -0.5013 -0.7067
15635TIP3    H268321   3.403   6.765  16.496  0.2153 -0.4987 -0.2608
15636TIP3   OH268322   1.626   1.539   2.085 -0.4981 -0.0133  0.1020
15636TIP3    H168323   1.537   1.573   2.086 -0.2947  0.5911 -0.9855
15636TIP3    H268324   1.653   1.538   2.176 -1.7593 -0.5971  0.4836
15637TIP3   OH268325   4.659   1.177  15.227 -0.1026  0.0916 -0.4363
15637TIP3    H168326   4.639   1.264  15.262 -1.3879 -0.3224 -0.0980
15637TIP3    H268327   4.676   1.192  15.134 -1.4289  0.5808 -0.6248
15638TIP3   OH268328   0.875   1.632   2.628  0.3973  0.9369 -0.0306
15638TIP3    H168329   0.909   1.569   2.564  0.4569  0.4655  0.4680
15638TIP3    H268330   0.859   1.711   2.576  0.8959  0.7094 -0.5405
15639TIP3   OH268331   6.631   5.935   4.482 -0.6792  0.0501  0.0686
15639TIP3    H168332   6.578   5.877   4.538  4.7547 -2.1143  3.3589
15639TIP3    H268333   6.648   6.012   4.537  1.5564 -0.4103  0.0710
15640TIP3   OH268334   3.237   4.956  12.342  0.1499  0.2947  0.4916
15640TIP3    H168335   3.328   4.930  12.331 -0.3623 -0.6875 -1.6754
15640TIP3    H268336   3.187   4.878  12.318 -1.3141  1.8235 -1.5859
15641TIP3   OH268337   2.264   2.434  14.137 -0.4166 -0.4150 -0.0031
15641TIP3    H168338   2.257   2.351  14.089  0.1221 -0.9841  0.8993
15641TIP3    H268339   2.262   2.500  14.068  0.3205 -1.2235 -0.8336
15642TIP3   OH268340   3.560   4.728   3.832 -0.0734 -0.4770 -0.0955
15642TIP3    H168341   3.573   4.820   3.853  0.9705 -1.0555  1.8923
15642TIP3    H268342   3.646   4.688   3.844 -0.7898 -1.9353  0.3333
15643TIP3   OH268343   0.695   2.094   0.485  0.1699  0.0554  0.0087
15643TIP3    H168344   0.718   2.151   0.558  0.3569 -0.1044  0.0742
15643TIP3    H268345   0.623   2.040   0.519  0.0772  0.1641 -0.0131
15644TIP3   OH268346   0.390   5.594  12.595 -0.3791  0.1321  0.3171
15644TIP3    H168347   0.342   5.676  12.606 -1.7393 -0.9029  2.3957
15644TIP3    H268348   0.330   5.537  12.547  0.4625  0.2189 -0.8862
15645TIP3   OH268349   5.376   5.831   2.484 -0.0197 -0.4455 -0.1439
15645TIP3    H168350   5.388   5.754   2.540  1.7592 -0.9408 -1.1698
15645TIP3    H268351   5.319   5.800   2.413  2.6103 -1.5345 -1.8540
15646TIP3   OH268352   4.661   1.071   2.953  0.2896 -0.0973  0.7822
15646TIP3    H168353   4.629   1.030   2.873  1.6084 -0.7511  0.5695
15646TIP3    H268354   4.721   1.139   2.922 -0.1340  0.4626  1.1907
15647TIP3   OH268355   6.338   5.987   3.119  0.3232 -0.0197  0.6353
15647TIP3    H168356   6.259   5.957   3.075 -1.0325  1.9368  1.6645
15647TIP3    H268357   6.362   6.067   3.074  1.1656 -0.0815  0.9611
15648TIP3   OH268358   3.750   3.853  15.818  0.0353  0.6515 -0.3957
15648TIP3    H168359   3.839   3.819  15.804  0.1170  0.1189  1.3328
15648TIP3    H268360   3.759   3.917  15.888 -1.4946 -2.1851  2.5692
15649TIP3   OH268361   6.219   4.412   5.721  0.3454 -0.2375  0.1783
15649TIP3    H168362   6.274   4.366   5.785  1.8315 -0.5064 -1.2663
15649TIP3    H268363   6.148   4.350   5.703 -0.0069 -0.2192  1.4357
15650TIP3   OH268364   2.245   1.235  16.534  0.4018  0.8693 -0.1986
15650TIP3    H168365   2.250   1.329  16.550 -0.5586  1.0284 -0.7617
15650TIP3    H268366   2.183   1.203  16.599  1.1169  0.5360  0.3267
15651TIP3   OH268367   3.564   3.401  11.985 -0.2365  0.3731  0.4444
15651TIP3    H168368   3.477   3.395  11.944  0.0347 -0.7455  0.0121
15651TIP3    H268369   3.545   3.412  12.078 -0.8590 -0.7085  0.4635
15652TIP3   OH268370   0.420   4.662   4.818  0.0861  0.0107  0.3390
15652TIP3    H168371   0.376   4.731   4.768 -0.9566 -0.0077  1.1986
15652TIP3    H268372   0.479   4.709   4.877 -0.0139  0.1277  0.3456
15653TIP3   OH268373   3.972   5.196   1.807  0.5646  0.2782  0.0209
15653TIP3    H168374   3.979   5.249   1.886 -1.5258  1.0790 -0.3182
15653TIP3    H268375   3.938   5.112   1.838  0.5856  0.2934  0.0869
15654TIP3   OH268376   2.862   5.602   5.774 -0.0988 -0.0762 -0.1055
15654TIP3    H168377   2.795   5.670   5.784  0.1115 -0.1194  1.7345
15654TIP3    H268378   2.837   5.534   5.837 -0.9164 -2.2383 -2.6889
15655TIP3   OH268379   0.122   1.095   3.460  0.1115  0.0305  0.5024
15655TIP3    H168380   0.098   1.088   3.553  1.4328  1.0189  0.9454
15655TIP3    H268381   0.180   1.171   3.457  2.1869 -1.5752 -0.7189
15656TIP3   OH268382   5.701   5.716  13.994  0.4919  0.6451 -0.0746
15656TIP3    H168383   5.647   5.737  13.918 -0.7926 -1.0693  0.3475
15656TIP3    H268384   5.656   5.758  14.068  0.8837  0.9724 -0.0155
15657TIP3   OH268385   3.341   5.845  16.746  0.1137  0.3658  0.6797
15657TIP3    H168386   3.428   5.854  16.784  0.2515  1.8909  0.0492
15657TIP3    H268387   3.282   5.873  16.815  0.2312  0.9626  0.5422
15658TIP3   OH268388   3.604   6.485   2.075 -0.4162  0.0723 -0.1490
15658TIP3    H168389   3.628   6.576   2.056 -0.1300 -0.5816 -3.1662
15658TIP3    H268390   3.530   6.467   2.016  1.4627 -2.5322 -1.8426
15659TIP3   OH268391   4.879   1.534   5.522  0.1481 -0.1178 -0.3407
15659TIP3    H168392   4.798   1.508   5.565  0.7539 -0.3533  0.6959
15659TIP3    H268393   4.857   1.613   5.473 -0.3281  0.7715  1.2607
15660TIP3   OH268394   4.672   6.386  10.710  0.5812  0.5948 -0.3043
15660TIP3    H168395   4.583   6.354  10.728  0.7178  1.2652  1.7554
15660TIP3    H268396   4.705   6.328  10.642 -0.8834 -0.6454  0.0008
15661TIP3   OH268397   5.256   2.444  13.556  0.3010  0.6007 -0.8195
15661TIP3    H168398   5.290   2.530  13.577 -1.5833  1.4188 -1.0282
15661TIP3    H268399   5.305   2.384  13.613  0.6113  1.9509  0.3647
15662TIP3   OH268400   3.692   1.870   5.046  0.2649  0.2049 -0.6280
15662TIP3    H168401   3.758   1.827   4.992 -0.0549 -1.9862  0.6343
15662TIP3    H268402   3.617   1.883   4.988  0.3996 -0.9251 -1.0657
15663TIP3   OH268403   6.542   6.262  11.589  0.0636  0.0869  0.3111
15663TIP3    H168404   6.478   6.303  11.531 -0.7061 -0.8597  0.4729
15663TIP3    H268405   6.504   6.176  11.609  3.5099 -2.3905 -3.2329
15664TIP3   OH268406   5.899   1.149  13.162 -0.1677  0.3282  0.3047
15664TIP3    H168407   5.816   1.196  13.152  0.2076  1.0032  0.2625
15664TIP3    H268408   5.896   1.078  13.098 -0.1057  1.2332 -0.7187
15665TIP3   OH268409   2.478   1.195   1.365 -0.4268  0.0646 -0.1399
15665TIP3    H168410   2.560   1.241   1.350 -0.8070  0.2553 -1.8380
15665TIP3    H268411   2.497   1.104   1.340 -0.7151  0.1145 -0.5643
15666TIP3   OH268412   0.278   2.786  13.443  0.5317 -0.1102  0.4744
15666TIP3    H168413   0.201   2.764  13.495  0.6790  0.6315  1.0210
15666TIP3    H268414   0.291   2.711  13.386 -1.5303  0.4396 -0.7490
15667TIP3   OH268415   4.862   2.502   4.956  0.1746 -0.0483  0.1474
15667TIP3    H168416   4.781   2.455   4.933 -0.7981  0.8888  1.5916
15667TIP3    H268417   4.844   2.540   5.042  1.4870  1.7125 -0.3307
15668TIP3   OH268418   0.215   2.289  11.161  0.1631  0.5289 -0.1239
15668TIP3    H168419   0.164   2.274  11.240  2.3211  0.4323  1.3047
15668TIP3    H268420   0.179   2.229  11.097 -1.4326  0.3988  0.8692
15669TIP3   OH268421   4.342   3.819   4.844  0.8365  0.1379 -1.0103
15669TIP3    H168422   4.266   3.867   4.877  0.4639 -0.1360 -1.4562
15669TIP3    H268423   4.364   3.863   4.762  1.5734  0.6316 -0.5480
15670TIP3   OH268424   0.387   6.754   3.040 -0.2263  0.2663 -0.0958
15670TIP3    H168425   0.462   6.740   2.982  0.1277  0.3417  0.3372
15670TIP3    H268426   0.311   6.732   2.987  0.0663  0.7605 -0.7328
15671TIP3   OH268427   6.771   4.914   1.238  0.0576 -0.5359 -0.2009
15671TIP3    H168428   6.818   4.836   1.208 -0.1868 -0.7263 -0.0868
15671TIP3    H268429   6.831   4.955   1.301  0.7523  0.1020 -1.2587
15672TIP3   OH268430   3.782   4.263  15.097 -0.0158  0.6444  0.1816
15672TIP3    H168431   3.708   4.302  15.145  0.3373  0.1317  1.1558
15672TIP3    H268432   3.758   4.171  15.088  1.3154  0.0780  2.1128
15673TIP3   OH268433   6.196   4.404  14.681 -0.1530 -0.1994 -0.4745
15673TIP3    H168434   6.207   4.423  14.588  0.5137 -2.5145 -0.9081
15673TIP3    H268435   6.262   4.458  14.725 -0.8424  1.3195 -1.2843
15674TIP3   OH268436   6.654   6.059  11.783 -0.2411 -0.7129 -0.1782
15674TIP3    H168437   6.642   6.062  11.878  2.1092 -0.8705  0.1371
15674TIP3    H268438   6.702   6.139  11.763 -1.5403 -0.2203 -1.3717
15675TIP3   OH268439   1.727   6.253   0.406 -0.0861  0.0847  0.2058
15675TIP3    H168440   1.669   6.209   0.469  0.3008  0.3239  0.7259
15675TIP3    H268441   1.759   6.182   0.350 -0.7529 -0.0738  0.0159
15676TIP3   OH268442   3.907   6.688  11.129 -0.3631  0.5353 -0.4801
15676TIP3    H168443   3.913   6.641  11.212  0.7205  1.3057 -0.1042
15676TIP3    H268444   3.819   6.725  11.129 -0.9845 -0.9356 -0.4760
15677TIP3   OH268445   6.771   0.937   5.385  0.4585  0.1640  0.9203
15677TIP3    H168446   6.690   0.908   5.343  0.5296 -2.6884  2.6776
15677TIP3    H268447   6.827   0.964   5.312 -1.0085 -0.5487 -0.5044
15678TIP3   OH268448   0.360   6.528   0.824 -0.1609  0.4234  0.8265
15678TIP3    H168449   0.278   6.563   0.789  1.2689  1.8285 -1.2059
15678TIP3    H268450   0.389   6.464   0.760  0.4523  0.0941  1.4228
15679TIP3   OH268451   6.646   2.293   6.406  0.2742 -0.2532  0.2669
15679TIP3    H168452   6.701   2.228   6.450  0.1229 -0.0281  0.7969
15679TIP3    H268453   6.642   2.366   6.468  0.9750  0.5304 -0.5856
15680TIP3   OH268454   2.596   1.559  11.316 -0.1866 -0.3692  0.4564
15680TIP3    H168455   2.576   1.465  11.312 -0.7179 -0.2023 -0.9444
15680TIP3    H268456   2.691   1.564  11.308 -0.1582 -0.7893  0.5253
15681TIP3   OH268457   0.054   0.591  14.038  0.5065  0.0600  0.4646
15681TIP3    H168458   0.087   0.503  14.050  0.7707 -0.0177 -0.7609
15681TIP3    H268459   0.124   0.648  14.070  0.8809 -0.1539  0.0404
15682TIP3   OH268460   1.274   2.139  14.797  0.0206 -0.2999  0.3320
15682TIP3    H168461   1.197   2.194  14.810 -0.2691 -0.3139 -1.1885
15682TIP3    H268462   1.239   2.051  14.786  0.2244 -0.2805 -0.5496
15683TIP3   OH268463   2.550   2.006  11.217  0.0739  0.2293 -0.1451
15683TIP3    H168464   2.619   1.944  11.197 -0.4040 -0.7256  1.0962
15683TIP3    H268465   2.577   2.088  11.175  1.1972 -0.5486 -0.9332
15684TIP3   OH268466   2.927   0.948  15.661 -0.1433  0.5641 -0.3083
15684TIP3    H168467   2.867   0.907  15.724  2.2911 -0.7044  1.2819
15684TIP3    H268468   2.894   1.037  15.651 -3.9372 -0.9242 -1.7045
15685TIP3   OH268469   3.358   4.785   3.657 -0.3489 -0.6068  0.4633
15685TIP3    H168470   3.356   4.715   3.592 -1.8864  0.0007 -0.1720
15685TIP3    H268471   3.421   4.756   3.722 -0.1172 -2.0481 -0.3883
15686TIP3   OH268472   5.822   4.807  11.654  0.0106 -0.2585 -0.2067
15686TIP3    H168473   5.777   4.888  11.626  1.0377  0.6581  0.7742
15686TIP3    H268474   5.755   4.739  11.645 -0.8638  0.6895 -1.0773
15687TIP3   OH268475   2.090   5.476   3.410 -0.5121  0.0941  0.2829
15687TIP3    H168476   2.086   5.498   3.503  0.2128  2.3000 -0.1566
15687TIP3    H268477   2.174   5.512   3.382  0.1547 -2.2638 -0.8208
15688TIP3   OH268478   4.644   3.186   4.245  0.2360 -0.0343  0.1480
15688TIP3    H168479   4.591   3.241   4.303 -2.3057 -0.6521 -1.5151
15688TIP3    H268480   4.629   3.096   4.276  1.0751 -0.1545  0.2394
15689TIP3   OH268481   2.413   2.196  15.303  0.1388 -0.1880  0.2878
15689TIP3    H168482   2.352   2.163  15.237 -0.4889 -1.8245  1.6560
15689TIP3    H268483   2.402   2.291  15.300 -1.8109 -0.4071 -0.1153
15690TIP3   OH268484   4.104   3.190   2.184  0.0635  0.4299 -0.3593
15690TIP3    H168485   4.195   3.220   2.175  0.1131 -0.0838 -1.6907
15690TIP3    H268486   4.084   3.204   2.277  1.4669  0.6487 -0.0667
15691TIP3   OH268487   5.372   4.378  17.172  0.0898 -0.1423 -0.1274
15691TIP3    H168488   5.333   4.422  17.248  0.1127  1.1322 -0.8412
15691TIP3    H268489   5.415   4.301  17.209  1.7789  1.5105  1.4183
15692TIP3   OH268490   3.873   0.032   4.745 -0.4426 -0.1371 -0.5075
15692TIP3    H168491   3.927   0.065   4.817 -0.1137 -0.3079 -0.6785
15692TIP3    H268492   3.810   0.103   4.728  0.4548  0.5318 -1.0711
15693TIP3   OH268493   6.161   0.989   3.635  0.0683 -0.2186 -0.0400
15693TIP3    H168494   6.140   1.057   3.571  1.4622  0.5838  0.3344
15693TIP3    H268495   6.101   1.004   3.707  0.2196  0.4843 -0.0576
15694TIP3   OH268496   2.044   2.868  13.538 -0.2644 -0.1651  0.2570
15694TIP3    H168497   2.077   2.947  13.496  1.5932 -1.0354  0.0314
15694TIP3    H268498   1.972   2.839  13.481 -0.1720  0.6783 -0.3056
15695TIP3   OH268499   3.799   4.527  16.731 -0.3515  0.2933  0.0169
15695TIP3    H168500   3.861   4.459  16.703 -0.9228 -0.8823  1.5521
15695TIP3    H268501   3.850   4.584  16.789 -0.1771  0.5336 -0.3671
15696TIP3   OH268502   6.164   2.611  14.023 -0.4835 -0.4162  0.2842
15696TIP3    H168503   6.124   2.694  13.997 -0.9741 -0.4378  0.9381
15696TIP3    H268504   6.092   2.548  14.021 -0.6027 -0.3619  1.9047
15697TIP3   OH268505   4.739   3.976   3.807 -0.1634 -0.0187 -0.2298
15697TIP3    H168506   4.797   3.909   3.771 -1.6488 -0.5265 -1.7620
15697TIP3    H268507   4.756   4.054   3.755  0.7480  0.4793  0.8034
15698TIP3   OH268508   1.621   6.510   4.160 -0.9682  0.0228 -0.1011
15698TIP3    H168509   1.707   6.553   4.153 -0.7558 -0.7076 -2.1027
15698TIP3    H268510   1.560   6.582   4.174 -0.3997  0.8537 -1.7566
15699TIP3   OH268511   3.927   1.135  10.889 -0.0204 -0.4818 -1.0839
15699TIP3    H168512   3.972   1.149  10.806  0.9204  1.7113 -0.2293
15699TIP3    H268513   3.966   1.198  10.949 -1.2623 -1.4724  0.8216
15700TIP3   OH268514   3.764   4.564  15.594  0.0127 -0.0435  0.4063
15700TIP3    H168515   3.751   4.471  15.578  0.0934 -0.0693  0.4927
15700TIP3    H268516   3.679   4.604  15.574  0.3502  0.0273 -0.8823
15701TIP3   OH268517   0.848   0.575  16.695 -0.0590 -0.1443 -0.0435
15701TIP3    H168518   0.817   0.585  16.785  0.7357 -1.1405  0.3552
15701TIP3    H268519   0.929   0.524  16.703 -0.7351 -1.4724 -1.4353
15702TIP3   OH268520   1.272   3.693  15.237 -0.0117 -0.0271 -0.3273
15702TIP3    H168521   1.208   3.669  15.169 -2.3316 -0.1393  1.8059
15702TIP3    H268522   1.299   3.609  15.274  0.0594  0.1084 -0.0758
15703TIP3   OH268523   1.964   1.493   3.642  0.2025 -0.0844  0.4368
15703TIP3    H168524   1.928   1.563   3.696  0.5224 -0.4528  1.1318
15703TIP3    H268525   1.984   1.535   3.559 -1.9202  0.1081 -0.0129
15704TIP3   OH268526   0.973   3.789   5.094 -0.1226  0.5210  0.3882
15704TIP3    H168527   1.037   3.724   5.063  0.3146  0.1849  1.9586
15704TIP3    H268528   0.961   3.847   5.019  0.3020 -0.7342 -0.6953
15705TIP3   OH268529   3.510   4.286   6.188 -0.2311 -0.2420 -0.3451
15705TIP3    H168530   3.503   4.268   6.282  0.9830 -1.3265 -0.4406
15705TIP3    H268531   3.484   4.378   6.179 -2.2556 -0.6661  0.7844
15706TIP3   OH268532   4.041   4.086  11.505  0.1483  0.0400  0.1882
15706TIP3    H168533   4.003   4.094  11.417  1.8222 -1.9823 -0.7532
15706TIP3    H268534   3.976   4.036  11.555  0.3061 -1.0214 -0.6441
15707TIP3   OH268535   4.063   3.564  12.512  0.5463 -0.2388  0.2258
15707TIP3    H168536   4.014   3.487  12.483  0.1708 -0.2900  0.9820
15707TIP3    H268537   4.149   3.530  12.536  0.6475 -0.2961 -0.2130
15708TIP3   OH268538   0.788   4.129  12.104 -0.1740 -0.4432  0.5889
15708TIP3    H168539   0.734   4.124  12.183  0.0353  0.9359  0.8287
15708TIP3    H268540   0.845   4.052  12.109 -0.9976 -1.0260  1.1519
15709TIP3   OH268541   2.462   3.353  16.501 -0.0057 -0.2931  0.3109
15709TIP3    H168542   2.523   3.411  16.456 -1.1418 -0.2636 -1.2054
15709TIP3    H268543   2.415   3.410  16.562 -0.4088  0.1777 -0.4455
15710TIP3   OH268544   4.606   5.296   4.201  0.4281 -0.9816  0.1802
15710TIP3    H168545   4.605   5.217   4.148  4.0186  0.3863 -2.0858
15710TIP3    H268546   4.641   5.269   4.286  1.9921 -1.7601 -0.7062
15711TIP3   OH268547   2.685   4.210   5.878 -0.9141 -0.1138  0.3092
15711TIP3    H168548   2.636   4.282   5.839 -0.0885 -1.4077 -3.3891
15711TIP3    H268549   2.753   4.252   5.931 -0.8192  1.8242 -1.2867
15712TIP3   OH268550   2.784   2.419   2.817 -0.4054  0.3474  0.1365
15712TIP3    H168551   2.726   2.486   2.780  0.3225  0.7424 -0.3061
15712TIP3    H268552   2.725   2.359   2.863 -1.0761  1.2774  0.5214
15713TIP3   OH268553   5.540   1.718   6.152 -0.1681  0.1525 -0.6835
15713TIP3    H168554   5.529   1.624   6.161  1.0978  0.0893  0.2239
15713TIP3    H268555   5.614   1.729   6.093 -0.6606  0.5904 -1.2363
15714TIP3   OH268556   1.158   4.154   2.504  0.8442  0.5181  0.1595
15714TIP3    H168557   1.223   4.194   2.446 -0.2609  0.1922 -1.3662
15714TIP3    H268558   1.189   4.065   2.517  1.4453  0.7935  0.6111
15715TIP3   OH268559   4.039   3.804  11.041  0.3486 -0.4742  0.0918
15715TIP3    H168560   3.950   3.797  11.006 -0.0230 -0.4993  1.0134
15715TIP3    H268561   4.085   3.727  11.008 -0.1165 -0.7170  0.0074
15716TIP3   OH268562   4.233   0.611  13.270  0.7246 -0.1315 -0.1887
15716TIP3    H168563   4.228   0.698  13.309  0.4698 -1.2779  2.4520
15716TIP3    H268564   4.321   0.607  13.232  0.5825  1.4154 -0.7327
15717TIP3   OH268565   6.647   0.906  13.074 -0.2300  0.1512  0.1439
15717TIP3    H168566   6.646   0.819  13.113 -3.6660 -0.3395 -0.8803
15717TIP3    H268567   6.737   0.917  13.042  0.4377 -2.6999  0.9444
15718TIP3   OH268568   4.295   0.686  15.376 -0.3904 -0.1553 -0.0234
15718TIP3    H168569   4.238   0.610  15.374 -1.1261  0.4081 -1.1231
15718TIP3    H268570   4.269   0.738  15.301  1.1117  0.4646 -0.1478
15719TIP3   OH268571   1.120   4.555   1.292  0.0924  0.1652 -0.1808
15719TIP3    H168572   1.144   4.600   1.211  0.8508 -0.0686 -0.0890
15719TIP3    H268573   1.151   4.613   1.362 -0.0270  0.0799 -0.0551
15720TIP3   OH268574   4.310   6.017  13.650  0.0821  0.1678  0.1393
15720TIP3    H168575   4.221   6.004  13.616  0.1611  0.3347 -0.1361
15720TIP3    H268576   4.325   5.942  13.707  0.1532 -0.4245 -0.6440
15721TIP3   OH268577   0.944   1.176  11.223 -0.4143  0.0837 -0.2539
15721TIP3    H168578   0.876   1.244  11.227 -0.7160 -0.3075  1.2811
15721TIP3    H268579   0.908   1.111  11.162 -1.3174 -0.0106  0.3694
15722TIP3   OH268580   0.047   1.472   1.365 -0.0840 -0.0035 -0.0897
15722TIP3    H168581   0.036   1.466   1.270 -0.0601  0.3542 -0.1143
15722TIP3    H268582   0.133   1.512   1.378 -0.2763  0.3616  0.0766
15723TIP3   OH268583   0.054   2.924  14.006 -0.1561 -0.4522  0.4131
15723TIP3    H168584   0.023   2.844  13.963 -0.9464 -0.2177  0.5421
15723TIP3    H268585   0.130   2.895  14.058 -0.2720 -1.0668  0.2447
15724TIP3   OH268586   0.317   1.471   0.400  0.8007  0.5050  0.2053
15724TIP3    H168587   0.384   1.519   0.449  0.5907  0.1562  0.8383
15724TIP3    H268588   0.254   1.538   0.374  0.7182  0.6329  0.7378
15725TIP3   OH268589   3.215   0.424   1.691  0.3073 -0.0534  0.1169
15725TIP3    H168590   3.261   0.344   1.666 -1.1113 -0.7919 -0.1634
15725TIP3    H268591   3.253   0.448   1.776  0.7274 -1.0219  0.2110
15726TIP3   OH268592   4.949   3.434   3.636  0.5094 -0.3403 -0.3238
15726TIP3    H168593   5.030   3.483   3.618 -0.2444  0.5619 -1.2961
15726TIP3    H268594   4.980   3.347   3.664  1.9453  1.3369  3.7637
15727TIP3   OH268595   0.668   1.111   1.184 -0.2280  0.8973  0.1784
15727TIP3    H168596   0.592   1.055   1.198  0.2280 -0.1114 -1.2882
15727TIP3    H268597   0.698   1.132   1.272 -1.0667 -0.2647  0.7592
15728TIP3   OH268598   0.633   3.804   3.318 -0.2845  0.0317  0.5506
15728TIP3    H168599   0.559   3.815   3.258 -0.1071  0.6947  0.4439
15728TIP3    H268600   0.705   3.852   3.276 -0.0113  0.0416  1.0276
15729TIP3   OH268601   4.829   2.549  13.695  0.0620 -0.1261 -0.1923
15729TIP3    H168602   4.841   2.578  13.786  1.6151  1.0434 -0.7482
15729TIP3    H268603   4.746   2.589  13.669  0.3804  0.8275  0.2264
15730TIP3   OH268604   3.096   2.542   1.900 -0.1138 -0.3230  0.0460
15730TIP3    H168605   3.074   2.491   1.821 -0.1134 -1.0525  0.5170
15730TIP3    H268606   3.014   2.547   1.948  0.4326 -2.0026  1.2068
15731TIP3   OH268607   6.157   1.484   5.298  0.5158 -0.0229 -0.0954
15731TIP3    H168608   6.131   1.397   5.271  2.7194 -0.9092  0.5402
15731TIP3    H268609   6.091   1.510   5.362  0.1016 -1.4108  0.0459
15732TIP3   OH268610   1.920   4.499   5.080  0.2055  0.3434 -0.0893
15732TIP3    H168611   2.000   4.452   5.101 -0.7917 -0.8996  1.0507
15732TIP3    H268612   1.948   4.571   5.024  1.8501 -1.1342 -1.1891
15733TIP3   OH268613   4.297   3.822  12.260  0.0535 -0.5104 -0.0729
15733TIP3    H168614   4.341   3.863  12.186  0.8033 -1.1488  0.0129
15733TIP3    H268615   4.222   3.879  12.278 -0.5226 -0.7008 -1.7359
15734TIP3   OH268616   5.699   1.486   3.372  0.2875 -0.2847 -0.3535
15734TIP3    H168617   5.717   1.394   3.352  0.3326 -0.3910  0.1752
15734TIP3    H268618   5.719   1.495   3.465  1.5031  0.5589 -0.6827
15735TIP3   OH268619   0.399   1.247  11.557 -0.0910  0.2809 -0.0792
15735TIP3    H168620   0.378   1.213  11.470 -1.5444  2.1393 -0.4725
15735TIP3    H268621   0.397   1.342  11.547 -2.2554  0.5510  2.4345
15736TIP3   OH268622   3.047   3.775   1.801 -0.6332  0.0553 -0.1226
15736TIP3    H168623   2.992   3.852   1.811  0.2982  0.9418 -1.6269
15736TIP3    H268624   3.036   3.748   1.710  0.3549 -0.5771 -0.0737
15737TIP3   OH268625   6.409   1.410   2.194  0.2849  0.3479  0.1470
15737TIP3    H168626   6.417   1.479   2.260 -0.9780  0.4011  0.2421
15737TIP3    H268627   6.470   1.436   2.125 -0.4447  1.7409  0.0237
15738TIP3   OH268628   4.946   3.910   2.624 -0.6789  0.1403  0.0610
15738TIP3    H168629   5.031   3.947   2.644 -0.3194 -0.8308  0.3688
15738TIP3    H268630   4.884   3.981   2.637 -0.1274  0.3190  1.7442
15739TIP3   OH268631   3.124   2.540   6.812  0.2737 -0.3549  0.7029
15739TIP3    H168632   3.192   2.584   6.762 -2.8972  1.2904 -2.3412
15739TIP3    H268633   3.118   2.453   6.773 -0.7447  0.2038 -0.4062
15740TIP3   OH268634   4.012   6.492  10.539 -0.1818 -0.3053  0.4312
15740TIP3    H168635   4.071   6.470  10.610 -0.8079  1.6611  1.5826
15740TIP3    H268636   3.980   6.407  10.507 -0.7592 -1.1646  3.2244
15741TIP3   OH268637   2.539   4.990   1.746  0.1338  0.8027 -0.3209
15741TIP3    H168638   2.565   5.007   1.656  2.1455 -0.8957 -0.1028
15741TIP3    H268639   2.544   4.894   1.755 -2.0966  0.7676  1.0035
15742TIP3   OH268640   0.889   1.634  16.190 -0.0140 -0.3507 -0.0264
15742TIP3    H168641   0.798   1.632  16.159  0.1122  0.6129 -0.4665
15742TIP3    H268642   0.884   1.676  16.276 -0.1445 -1.4858  0.5334
15743TIP3   OH268643   0.581   2.812  11.921 -0.0631 -0.6086  0.2978
15743TIP3    H168644   0.546   2.833  12.008 -1.5143  2.5801 -0.9676
15743TIP3    H268645   0.507   2.827  11.861  1.7400  0.2220 -1.7811
15744TIP3   OH268646   4.674   0.477  13.031  0.1745  0.2632 -0.1569
15744TIP3    H168647   4.766   0.468  13.057  0.2908  1.6322 -0.0957
15744TIP3    H268648   4.671   0.557  12.979 -1.3685  1.3656  1.5975
15745TIP3   OH268649   5.149   5.195  11.871  0.9174 -0.1726  0.1781
15745TIP3    H168650   5.186   5.108  11.885 -0.4396 -0.7383  0.3232
15745TIP3    H268651   5.056   5.179  11.851  1.0357  1.1304 -1.4987
15746TIP3   OH268652   1.336   5.811  11.872  0.0017 -0.3510 -0.0582
15746TIP3    H168653   1.324   5.899  11.837 -0.5795 -0.6609 -0.6556
15746TIP3    H268654   1.300   5.754  11.804  1.1263 -1.0935 -0.0476
15747TIP3   OH268655   4.777   5.992  16.388  0.1754 -0.0179  0.0490
15747TIP3    H168656   4.719   6.066  16.406  0.4796 -0.3378  2.4491
15747TIP3    H268657   4.718   5.919  16.368 -0.2167 -0.0114  1.1786
15748TIP3   OH268658   4.749   6.337  16.447 -0.1645  0.3500  0.3254
15748TIP3    H168659   4.721   6.403  16.510 -3.1603  2.1732 -2.7474
15748TIP3    H268660   4.668   6.311  16.402  1.6499 -1.9385 -1.7811
15749TIP3   OH268661   6.029   4.415   2.539 -0.2871 -0.2483 -0.0489
15749TIP3    H168662   6.112   4.381   2.505  0.1428  1.6602 -0.9714
15749TIP3    H268663   6.040   4.416   2.634  1.1233  0.9246 -0.2139
15750TIP3   OH268664   2.607   1.632  10.446 -0.2873  0.0744  0.4025
15750TIP3    H168665   2.695   1.667  10.439 -0.1839  0.0033  1.3367
15750TIP3    H268666   2.591   1.589  10.362 -0.4616  2.4518 -0.8240
15751TIP3   OH268667   2.972   4.818   2.785  0.3054  0.1494 -0.0305
15751TIP3    H168668   2.889   4.818   2.736  0.6968  0.5322 -0.6933
15751TIP3    H268669   3.038   4.797   2.720  0.7697  0.1267  0.4468
15752TIP3   OH268670   2.242   1.790  13.897  0.1307 -0.6623 -0.1619
15752TIP3    H168671   2.192   1.714  13.925  0.1407 -0.5929  0.0454
15752TIP3    H268672   2.276   1.827  13.978 -0.3635 -0.1013 -0.2034
15753TIP3   OH268673   0.029   5.376   1.077 -0.2228  0.1737 -0.3780
15753TIP3    H168674   0.034   5.416   1.164  0.9911  0.7418 -0.6900
15753TIP3    H268675  -0.042   5.312   1.084 -1.1771  1.3130  0.5646
15754TIP3   OH268676   2.551   3.264  15.710  0.0221  0.2875 -0.9606
15754TIP3    H168677   2.546   3.208  15.787  0.4409 -0.6314 -1.5975
15754TIP3    H268678   2.539   3.353  15.744  0.7850 -0.0599  0.2267
15755TIP3   OH268679   1.637   5.758   2.056 -0.2532 -0.0134  0.3208
15755TIP3    H168680   1.650   5.666   2.030 -0.8278  0.5871 -2.1760
15755TIP3    H268681   1.559   5.756   2.111  0.3692 -1.1544  1.2149
15756TIP3   OH268682   1.599   0.355   4.799 -0.3371 -0.3520  0.1665
15756TIP3    H168683   1.647   0.438   4.797 -0.1601 -0.4752 -1.5818
15756TIP3    H268684   1.529   0.367   4.734 -1.2346 -1.0190  1.0115
15757TIP3   OH268685   6.372   5.107   3.769 -0.0305 -0.2010  0.7352
15757TIP3    H168686   6.467   5.092   3.762 -0.2939 -2.0656  0.8347
15757TIP3    H268687   6.342   5.111   3.678  0.0995  0.1126  0.7053
15758TIP3   OH268688   3.473   0.956   1.315  0.6221  0.2147  0.0658
15758TIP3    H168689   3.405   0.944   1.249  1.0152 -0.1012 -0.2816
15758TIP3    H268690   3.455   1.043   1.351 -0.2089 -0.0246  0.2609
15759TIP3   OH268691   6.623   1.796   2.769  0.1066  0.5170 -0.1721
15759TIP3    H168692   6.663   1.875   2.733  1.0926 -0.4351 -1.1892
15759TIP3    H268693   6.682   1.770   2.840  0.2946  0.1616 -0.4584
15760TIP3   OH268694   3.836   0.595   5.440 -0.2848 -0.7120 -0.1210
15760TIP3    H168695   3.765   0.605   5.376 -0.3513 -1.5591 -0.1898
15760TIP3    H268696   3.905   0.654   5.408 -0.0266 -1.6878 -1.4063
15761TIP3   OH268697   5.039   0.962  16.705 -0.3593 -0.0865 -0.1972
15761TIP3    H168698   5.010   1.011  16.782  1.1111  0.3651  0.0723
15761TIP3    H268699   5.086   0.886  16.741 -0.8922 -0.6392 -0.6423
15762TIP3   OH268700   6.373   4.828  10.556  0.7949 -0.1397 -0.2831
15762TIP3    H168701   6.416   4.776  10.488  0.7910  0.0125 -0.3978
15762TIP3    H268702   6.401   4.918  10.540  0.7877 -0.1023 -0.0889
15763TIP3   OH268703   5.245   4.831   4.871 -0.2906  0.3266  0.2533
15763TIP3    H168704   5.191   4.849   4.794  1.1929  1.2079 -0.6174
15763TIP3    H268705   5.245   4.914   4.920  2.2834  1.1741 -1.0643
15764TIP3   OH268706   1.458   3.971  13.472 -0.2911  0.6006  0.7771
15764TIP3    H168707   1.465   3.908  13.544  0.1403 -1.4011 -0.9523
15764TIP3    H268708   1.383   3.939  13.420  0.5677  0.9089 -0.6846
15765TIP3   OH268709   0.996   6.295   5.473 -0.0977  0.7529  0.0679
15765TIP3    H168710   1.076   6.243   5.469 -0.0984  0.8483 -1.3532
15765TIP3    H268711   0.929   6.235   5.505  0.1558  0.1992 -0.4478
15766TIP3   OH268712   5.921   1.500   2.364  0.5378 -0.4096  0.2852
15766TIP3    H168713   5.879   1.507   2.450 -0.0580 -0.4251 -0.0008
15766TIP3    H268714   6.014   1.514   2.381  0.3770 -0.0744  0.8847
15767TIP3   OH268715   0.502   4.953  16.501  0.7248 -0.5755 -0.4830
15767TIP3    H168716   0.500   5.033  16.553 -0.6412 -1.2800  0.5924
15767TIP3    H268717   0.414   4.915  16.512  0.9136 -1.5340 -2.0506
15768TIP3   OH268718   6.001   0.913  16.352  0.3778  0.2591  0.4835
15768TIP3    H168719   6.063   0.877  16.416  0.1786 -1.1560 -0.0843
15768TIP3    H268720   6.055   0.960  16.289  1.0542 -2.1751 -0.8123
15769TIP3   OH268721   2.865   3.786   0.423  0.6430 -0.0834  0.1322
15769TIP3    H168722   2.836   3.782   0.332 -0.2210 -0.0402  0.4013
15769TIP3    H268723   2.874   3.880   0.442 -1.7876  0.0377  0.8896
15770TIP3   OH268724   4.933   0.288  15.132 -0.9648  0.3227 -0.0638
15770TIP3    H168725   4.935   0.196  15.157 -1.0439  0.5240  0.7249
15770TIP3    H268726   4.848   0.300  15.091 -1.0931  0.1138  0.1361
15771TIP3   OH268727   6.498   2.164  12.802  0.5156  0.3812 -0.1503
15771TIP3    H168728   6.467   2.198  12.886 -0.3180 -1.3568  0.2610
15771TIP3    H268729   6.592   2.150  12.815  0.6371  1.3320  0.0661
15772TIP3   OH268730   1.621   6.019  13.113 -0.0690  0.2861 -0.7165
15772TIP3    H168731   1.532   6.052  13.100  0.1972  0.9777 -0.8368
15772TIP3    H268732   1.660   6.079  13.177  0.3720  0.1009 -0.8059
15773TIP3   OH268733   3.114   6.756   3.664 -0.3363  0.1428 -0.0279
15773TIP3    H168734   3.147   6.708   3.588 -1.0874  0.4280 -0.5362
15773TIP3    H268735   3.081   6.689   3.723  0.2730 -0.0810  0.0625
15774TIP3   OH268736   5.067   1.628   4.105 -0.0262 -1.3841  0.0484
15774TIP3    H168737   5.004   1.601   4.172  0.7260 -1.6859  0.6477
15774TIP3    H268738   5.016   1.631   4.024 -1.3781  0.8519  0.9578
15775TIP3   OH268739   0.911   2.447   5.570  0.2795 -0.5410 -0.6141
15775TIP3    H168740   0.872   2.521   5.524 -1.7609 -0.7039  0.8169
15775TIP3    H268741   0.986   2.422   5.516  1.7021  3.2849 -0.5481
15776TIP3   OH268742   2.140   0.102   1.837  0.7787  0.0698 -0.3347
15776TIP3    H168743   2.231   0.129   1.850  0.9143 -1.1620  1.4207
15776TIP3    H268744   2.101   0.105   1.925 -0.5315 -0.6403 -0.8704
15777TIP3   OH268745   5.415   3.429   0.340 -0.0357 -0.5976  0.2292
15777TIP3    H168746   5.328   3.462   0.361  0.2949  1.0864 -0.9358
15777TIP3    H268747   5.443   3.381   0.418 -1.6178 -0.3438  0.9557
15778TIP3   OH268748   2.896   1.336   1.949  0.2667 -0.4489  0.1137
15778TIP3    H168749   2.926   1.372   1.866 -2.3569 -0.2590 -0.7778
15778TIP3    H268750   2.863   1.249   1.927 -3.1585  0.7280  0.3885
15779TIP3   OH268751   0.240   4.528   4.593  0.0269 -0.1065  0.0874
15779TIP3    H168752   0.204   4.458   4.647  2.1746 -1.2923  0.0498
15779TIP3    H268753   0.273   4.483   4.515  1.9259  0.8703  0.3096
15780TIP3   OH268754   5.273   6.311  12.869  0.0025 -0.1293  0.6653
15780TIP3    H168755   5.269   6.382  12.934  0.7680  0.5315 -0.0011
15780TIP3    H268756   5.253   6.354  12.786  0.8506 -0.6269  0.1988
15781TIP3   OH268757   3.492   6.331  13.373  0.2059 -0.1303  0.3154
15781TIP3    H168758   3.553   6.280  13.320  0.7119  1.4672 -0.6613
15781TIP3    H268759   3.520   6.314  13.463  1.5658 -0.0716 -0.0874
15782TIP3   OH268760   6.276   5.929  11.860  0.5890 -0.0639  0.2569
15782TIP3    H168761   6.351   5.885  11.821 -0.0746 -1.2585  0.2944
15782TIP3    H268762   6.267   6.010  11.811 -0.0135 -1.3800 -1.8591
15783TIP3   OH268763   3.700   6.695  16.338  0.2808 -0.3747  0.2639
15783TIP3    H168764   3.693   6.786  16.367 -0.3420 -0.1337 -0.6248
15783TIP3    H268765   3.654   6.645  16.405  0.3334 -0.0020  0.5806
15784TIP3   OH268766   6.088   2.763  16.556 -0.2514 -0.2571  0.0192
15784TIP3    H168767   6.017   2.825  16.541  0.7216  0.6501 -0.9951
15784TIP3    H268768   6.087   2.746  16.650 -2.1265 -0.6552 -0.0720
15785TIP3   OH268769   6.052   6.425  12.424 -0.2543 -0.3950 -0.5062
15785TIP3    H168770   5.978   6.485  12.430 -0.1765 -0.3102 -0.4025
15785TIP3    H268771   6.014   6.338  12.441 -0.7977 -0.6691 -2.9658
15786TIP3   OH268772   0.532   0.556   0.495 -0.4984 -0.1955  0.0074
15786TIP3    H168773   0.485   0.568   0.578  0.2974 -0.7013  0.5338
15786TIP3    H268774   0.482   0.489   0.448 -2.8228  2.3817 -1.3408
15787TIP3   OH268775   0.396   5.065   1.020 -0.1602 -0.6577  0.2051
15787TIP3    H168776   0.434   5.150   0.997 -1.6242  0.1593  0.7423
15787TIP3    H268777   0.396   5.015   0.938  0.5642 -0.0893 -0.1436
15788TIP3   OH268778   2.585   6.682  14.819 -0.6972 -0.6376  0.3669
15788TIP3    H168779   2.502   6.656  14.780 -1.5165  1.3231  0.7777
15788TIP3    H268780   2.579   6.654  14.910 -1.9097  1.6172  1.0188
15789TIP3   OH268781   0.178   4.666  12.902 -0.5347  0.2050  0.0706
15789TIP3    H168782   0.213   4.579  12.882  0.6598  0.7318 -0.1589
15789TIP3    H268783   0.137   4.656  12.988  0.0455 -0.4650  0.2729
15790TIP3   OH268784   3.638   6.426   2.914  0.2598 -0.9648 -0.0387
15790TIP3    H168785   3.654   6.332   2.913 -0.0401 -1.0190 -1.0314
15790TIP3    H268786   3.707   6.463   2.859  0.5000 -0.5823  0.5143
15791TIP3   OH268787   5.247   4.146   3.215  0.3720  0.4726  0.6487
15791TIP3    H168788   5.224   4.231   3.178  0.1504  0.3953  0.6100
15791TIP3    H268789   5.343   4.147   3.219  0.3800  0.6279  0.4241
15792TIP3   OH268790   3.137   1.431  16.182 -0.2015  0.7192  0.3626
15792TIP3    H168791   3.114   1.449  16.273  0.7413  1.7843  0.4066
15792TIP3    H268792   3.054   1.421  16.137 -0.7320  2.6300  0.8751
15793TIP3   OH268793   3.510   3.054  14.162 -0.3379  0.0120 -0.1514
15793TIP3    H168794   3.528   2.990  14.093  0.6402  1.0601 -0.8902
15793TIP3    H268795   3.427   3.025  14.200  0.3389 -1.9930 -0.1112
15794TIP3   OH268796   1.892   4.437  16.229  0.6090 -0.4617  0.2643
15794TIP3    H168797   1.910   4.355  16.182  1.5282 -1.2085  1.8733
15794TIP3    H268798   1.798   4.433  16.249  0.4357 -0.6324 -0.5761
15795TIP3   OH268799   1.220   1.757   6.192 -0.2609 -0.1304  0.1801
15795TIP3    H168800   1.265   1.823   6.244  0.5846  0.0321 -0.7371
15795TIP3    H268801   1.128   1.762   6.219  0.0105  0.5903  0.9632
15796TIP3   OH268802   4.454   0.837   0.527  0.0472 -0.6280  0.0000
15796TIP3    H168803   4.530   0.889   0.555 -0.9073  0.9544 -0.3240
15796TIP3    H268804   4.407   0.894   0.467 -0.7630 -2.0576 -0.7370
15797TIP3   OH268805   3.003   3.221  16.568  0.0521  0.2748  0.0834
15797TIP3    H168806   3.095   3.214  16.595  0.4746  0.7015 -1.2284
15797TIP3    H268807   2.994   3.311  16.538 -0.6976  0.1119 -0.1809
15798TIP3   OH268808   0.108   2.776   2.709 -0.4998 -0.3154 -0.2742
15798TIP3    H168809   0.044   2.739   2.770 -1.6073 -1.1510 -1.9095
15798TIP3    H268810   0.192   2.767   2.754 -1.4641  0.5229  1.7875
15799TIP3   OH268811   2.463   4.028   0.147 -0.4442  0.1159  0.1825
15799TIP3    H168812   2.420   3.945   0.169  0.9311 -0.4312  0.8495
15799TIP3    H268813   2.484   4.019   0.054 -1.4767  0.2608 -0.0739
15800TIP3   OH268814   0.325   1.439  13.679 -0.2079 -0.1175 -0.6027
15800TIP3    H168815   0.387   1.374  13.712 -0.8731  0.5445  1.9968
15800TIP3    H268816   0.348   1.520  13.725 -2.9369  0.1522  0.3605
15801TIP3   OH268817   4.191   0.660   0.642  0.4263  0.4483 -0.3121
15801TIP3    H168818   4.182   0.610   0.723 -1.7410  2.3355  0.6551
15801TIP3    H268819   4.275   0.704   0.651  0.3203  0.4335  0.7887
15802TIP3   OH268820   5.108   0.927   4.881  0.5670 -0.0199 -0.3762
15802TIP3    H168821   5.064   0.967   4.956  2.2200  0.5852  0.2958
15802TIP3    H268822   5.122   0.999   4.820 -0.6996 -0.4961 -1.2340
15803TIP3   OH268823   5.070   0.973  13.380 -0.1846  0.0563  0.0385
15803TIP3    H168824   5.111   0.887  13.372  1.6187  0.8583  0.5937
15803TIP3    H268825   5.112   1.013  13.456 -0.8687  1.5160 -0.3324
15804TIP3   OH268826   5.180   6.420  14.339  0.5405 -0.4916 -0.2228
15804TIP3    H168827   5.272   6.428  14.364  0.1272  1.7431  0.7567
15804TIP3    H268828   5.137   6.495  14.382 -1.1361  0.4592 -3.3824
15805TIP3   OH268829   0.273   5.073   6.097 -0.0862 -0.0859 -0.6446
15805TIP3    H168830   0.347   5.024   6.133 -0.5463 -2.2897 -2.5811
15805TIP3    H268831   0.314   5.149   6.053  0.8435 -0.1331  0.1253
15806TIP3   OH268832   5.164   4.827   5.539 -0.3712  0.2579 -0.8548
15806TIP3    H168833   5.257   4.803   5.538 -0.4528 -0.2525  1.0731
15806TIP3    H268834   5.155   4.883   5.616 -2.1452 -1.8707  0.5443
15807TIP3   OH268835   1.402   2.903   5.262 -0.5133 -0.1039  0.5676
15807TIP3    H168836   1.471   2.953   5.218  0.7009 -1.0829  1.3094
15807TIP3    H268837   1.321   2.943   5.232  0.3710  1.0460 -0.3712
15808TIP3   OH268838   0.259   5.353  12.485  0.3847  0.0302 -0.3724
15808TIP3    H168839   0.342   5.348  12.438  0.3122 -0.5232 -0.4427
15808TIP3    H268840   0.252   5.270  12.531  0.7952  0.8308  1.1892
15809TIP3   OH268841   5.431   2.661  14.024 -0.5067  0.3344  0.1481
15809TIP3    H168842   5.489   2.667  14.100 -2.8157  0.4168  1.9808
15809TIP3    H268843   5.355   2.612  14.056 -0.5366 -1.6697 -2.7742
15810TIP3   OH268844   0.849   3.081  15.478  0.2558 -0.5484  0.4324
15810TIP3    H168845   0.897   3.027  15.540  2.0846  1.9878  1.3260
15810TIP3    H268846   0.788   3.131  15.533  1.9586  1.7908  0.2412
15811TIP3   OH268847   4.083   4.759  13.610 -0.1142  0.5464  0.2793
15811TIP3    H168848   4.071   4.694  13.541 -0.1489  1.7816 -0.8970
15811TIP3    H268849   4.167   4.800  13.590 -0.7604  1.8440  0.1858
15812TIP3   OH268850   0.371   2.430  14.487  0.8574  0.7349  0.5563
15812TIP3    H168851   0.397   2.424  14.579 -0.9642  0.2447  1.0571
15812TIP3    H268852   0.454   2.437  14.440  1.8586  0.0770  2.1536
15813TIP3   OH268853   5.704   1.140  11.953  0.3235  0.5581  0.3266
15813TIP3    H168854   5.638   1.134  12.021 -0.0069 -0.6579 -0.0998
15813TIP3    H268855   5.670   1.089  11.880  1.6243  0.1007  0.0149
15814TIP3   OH268856   4.208   2.565  14.644  0.6349 -0.0454 -0.5790
15814TIP3    H168857   4.155   2.631  14.600  0.7371  0.2845 -0.2155
15814TIP3    H268858   4.201   2.587  14.737  0.2617 -0.8495 -0.4144
15815TIP3   OH268859   5.968   1.656   3.417  0.5799  0.3836  0.1887
15815TIP3    H168860   5.926   1.728   3.465 -2.4235 -0.9616 -0.3204
15815TIP3    H268861   5.917   1.578   3.441  0.2459 -0.6656 -3.5832
15816TIP3   OH268862   0.672   4.380  12.604  0.6775 -0.2903 -0.3442
15816TIP3    H168863   0.583   4.362  12.575  0.8981 -0.6354 -0.7980
15816TIP3    H268864   0.667   4.470  12.639 -0.3683 -1.1232  1.7614
15817TIP3   OH268865   4.662   1.617  12.602 -0.1380 -0.0046 -0.7542
15817TIP3    H168866   4.591   1.679  12.586 -0.0471 -0.3978 -2.9355
15817TIP3    H268867   4.650   1.587  12.692 -0.5937  2.6489  0.1117
15818TIP3   OH268868   1.878   5.351   1.385 -0.0062  0.4250  0.2924
15818TIP3    H168869   1.875   5.268   1.432  0.0707  0.4303  0.3060
15818TIP3    H268870   1.911   5.329   1.299 -0.7645  0.3108  0.0245
15819TIP3   OH268871   2.844   5.451   6.008 -0.1587  0.7292  0.2004
15819TIP3    H168872   2.916   5.515   6.015 -0.6902  1.4379 -0.6622
15819TIP3    H268873   2.862   5.388   6.077  0.9066  1.2950  0.4629
15820TIP3   OH268874   2.692   0.135   6.522 -0.4944 -0.6273  0.2462
15820TIP3    H168875   2.599   0.139   6.497  0.1723 -0.1042 -2.2023
15820TIP3    H268876   2.733   0.207   6.475  1.2482 -1.1095  0.9866
15821TIP3   OH268877   6.618   3.054  13.194 -0.2472  0.3501 -0.4733
15821TIP3    H168878   6.633   2.960  13.204  0.3827  0.4667 -0.2782
15821TIP3    H268879   6.576   3.063  13.108 -0.1867 -0.0960 -0.5508
15822TIP3   OH268880   2.675   5.908  16.560 -0.6208  0.2826 -0.0908
15822TIP3    H168881   2.734   5.903  16.485 -0.2432  0.1623  0.2129
15822TIP3    H268882   2.700   5.989  16.605 -1.2713  0.6822 -0.4485
15823TIP3   OH268883   4.296   2.350  11.600 -0.5223  0.0021  0.6126
15823TIP3    H168884   4.369   2.350  11.662  1.1915 -0.7930 -1.3410
15823TIP3    H268885   4.269   2.441  11.595  1.8036  0.6863 -0.2806
15824TIP3   OH268886   4.482   0.104   1.869 -0.2858 -0.1945 -0.4851
15824TIP3    H168887   4.395   0.129   1.900 -0.0056  1.4270 -0.9452
15824TIP3    H268888   4.483   0.009   1.874 -2.6028 -0.3270 -1.8286
15825TIP3   OH268889   4.456   4.302   3.044 -0.0573  0.1943 -0.1715
15825TIP3    H168890   4.465   4.343   3.130  1.5024  2.2001 -1.2516
15825TIP3    H268891   4.508   4.222   3.050 -1.1305 -0.4218  1.1921
15826TIP3   OH268892   5.650   0.905   1.517  0.6827  0.5670  0.1397
15826TIP3    H168893   5.688   0.968   1.578 -1.2338  0.7763  1.1762
15826TIP3    H268894   5.555   0.915   1.529  0.2823  0.0189 -2.2815
15827TIP3   OH268895   1.406   3.577   1.695 -0.2831 -0.0561 -0.4815
15827TIP3    H168896   1.403   3.566   1.600 -0.9321 -0.2573 -0.4447
15827TIP3    H268897   1.318   3.553   1.724 -0.2915  0.6659  0.1027
15828TIP3   OH268898   1.437   6.360  15.047  0.7177  0.1536 -0.2021
15828TIP3    H168899   1.378   6.428  15.079  0.2328 -1.4777  2.4732
15828TIP3    H268900   1.524   6.397  15.059  0.4485  0.4133  0.9376
15829TIP3   OH268901   6.433   4.977   4.675 -0.0236  0.0741 -0.2753
15829TIP3    H168902   6.481   5.055   4.703 -0.0737 -0.3788  1.1312
15829TIP3    H268903   6.346   4.989   4.712  0.0270 -0.7319  0.1056
15830TIP3   OH268904   1.544   0.699  15.068  0.2470 -0.2336 -0.9127
15830TIP3    H168905   1.565   0.646  15.145 -0.7721  0.7826  0.0678
15830TIP3    H268906   1.450   0.716  15.075  0.5026  1.4654 -1.3591
15831TIP3   OH268907   1.254   5.659  16.431  0.4349 -0.1341  0.1137
15831TIP3    H168908   1.322   5.706  16.382  1.0236 -1.1071 -0.0125
15831TIP3    H268909   1.172   5.695  16.398  0.8563  0.0198 -0.7902
15832TIP3   OH268910   6.001   0.757  13.010 -0.0012 -0.3042  0.3406
15832TIP3    H168911   5.933   0.689  13.014  0.1857 -0.5059  0.1751
15832TIP3    H268912   6.073   0.721  13.062  0.4351 -0.6303 -0.4764
15833TIP3   OH268913   5.455   5.763  11.563  0.4604 -0.1404 -0.1832
15833TIP3    H168914   5.404   5.813  11.626  1.1264 -0.4044  0.5726
15833TIP3    H268915   5.474   5.680  11.607 -1.1315 -1.3245 -1.6505
15834TIP3   OH268916   0.790   6.425  15.676 -0.9032  0.1464  0.2108
15834TIP3    H168917   0.780   6.476  15.756 -0.3153 -1.8071  1.5834
15834TIP3    H268918   0.884   6.403  15.674 -0.6918  1.1190 -1.6229
15835TIP3   OH268919   6.229   5.175   1.474 -0.2087 -0.3525 -0.1105
15835TIP3    H168920   6.312   5.202   1.514  0.6469 -0.3368 -1.8432
15835TIP3    H268921   6.195   5.255   1.434 -1.7887 -0.0342  1.7935
15836TIP3   OH268922   4.943   5.230   0.075 -0.2413 -0.1063 -0.6220
15836TIP3    H168923   5.020   5.197   0.031  0.2645 -0.1701  0.3053
15836TIP3    H268924   4.958   5.213   0.168 -2.2397 -1.9195 -0.5864
15837TIP3   OH268925   1.756   6.489  14.502 -0.3252 -0.5240  0.3901
15837TIP3    H168926   1.745   6.582  14.520  1.5808 -0.3549  0.7906
15837TIP3    H268927   1.790   6.485  14.413  1.5883 -0.7036  1.1102
15838TIP3   OH268928   2.856   1.506  15.206 -0.1455 -0.6267  0.0943
15838TIP3    H168929   2.901   1.422  15.204  1.3648  0.1503  0.2700
15838TIP3    H268930   2.764   1.485  15.198  0.3805 -2.1689 -2.4212
15839TIP3   OH268931   2.660   4.693  12.973 -0.2368 -0.1565  0.5678
15839TIP3    H168932   2.686   4.759  12.909  1.0980  0.2308  1.4797
15839TIP3    H268933   2.589   4.645  12.932 -1.1738  1.8161 -0.1242
15840TIP3   OH268934   1.886   5.725  14.077  0.5842 -0.8884  0.0174
15840TIP3    H168935   1.938   5.695  14.002  1.1857 -0.4013  0.2366
15840TIP3    H268936   1.796   5.727  14.044  0.5897 -2.5173 -0.1213
15841TIP3   OH268937   5.861   5.451   0.156 -0.0668  0.4345  0.0737
15841TIP3    H168938   5.844   5.543   0.136 -0.7466  0.1051 -0.9589
15841TIP3    H268939   5.922   5.453   0.229 -0.7691  1.7009  0.6458
15842TIP3   OH268940   4.410   3.742   1.641  0.1353  0.2468  0.6168
15842TIP3    H168941   4.333   3.766   1.589  0.4746  1.2601  0.5736
15842TIP3    H268942   4.470   3.702   1.578  0.7924  2.0244  0.1126
15843TIP3   OH268943   1.547   0.980  16.370  0.5036 -0.7218  0.0089
15843TIP3    H168944   1.621   0.921  16.384 -1.2077 -2.6374  1.2688
15843TIP3    H268945   1.490   0.933  16.309 -0.4913  0.0049  0.3605
15844TIP3   OH268946   1.787   4.910  15.914  0.2243  0.0247  0.4177
15844TIP3    H168947   1.794   4.915  15.818 -0.9459  0.8653  0.3555
15844TIP3    H268948   1.704   4.865  15.929  0.3419  0.0167  1.0320
15845TIP3   OH268949   6.033   1.282   3.291  0.1948  0.4801 -0.3965
15845TIP3    H168950   5.984   1.321   3.219 -1.5627  0.0221  0.5063
15845TIP3    H268951   6.122   1.315   3.281 -0.6740  2.6939 -1.1084
15846TIP3   OH268952   5.738   4.163   3.440 -0.1253 -0.0919 -0.3665
15846TIP3    H168953   5.722   4.163   3.534 -0.1600  0.5250 -0.3758
15846TIP3    H268954   5.768   4.251   3.420 -0.9175  0.0237 -1.0722
15847TIP3   OH268955   0.906   4.265  11.898 -0.3519  0.1274  0.0841
15847TIP3    H168956   0.882   4.220  11.978  1.1515 -1.0411 -0.0818
15847TIP3    H268957   0.943   4.197  11.842 -0.9626  0.9985 -1.4368
15848TIP3   OH268958   4.651   3.546   4.939  0.5796 -0.2815 -0.0920
15848TIP3    H168959   4.690   3.593   5.013 -0.4621 -0.2107  0.4159
15848TIP3    H268960   4.681   3.594   4.862 -1.4632  1.9839  0.4712
15849TIP3   OH268961   5.758   3.978   3.109 -0.5893 -0.0157 -0.2225
15849TIP3    H168962   5.758   3.889   3.074 -1.3466  0.3888 -1.2812
15849TIP3    H268963   5.820   3.975   3.182  1.2816 -0.8104 -1.8053
15850TIP3   OH268964   5.887   4.772   1.617 -0.2335 -0.4491 -0.3573
15850TIP3    H168965   5.913   4.746   1.528 -0.4414 -0.5305 -0.3938
15850TIP3    H268966   5.874   4.690   1.663 -2.3384 -0.4496 -0.8821
15851TIP3   OH268967   0.418   4.711   4.508  0.0810  0.1023 -0.4431
15851TIP3    H168968   0.359   4.780   4.479  1.0881  0.2218 -2.3130
15851TIP3    H268969   0.367   4.659   4.570 -1.7472  0.6006 -1.5112
15852TIP3   OH268970   5.614   5.268   2.121 -0.0513 -0.1397  0.2759
15852TIP3    H168971   5.609   5.231   2.033  0.8725  1.8010 -0.6162
15852TIP3    H268972   5.649   5.356   2.109  0.5668 -0.0150  2.6358
15853TIP3   OH268973   4.646   5.068   1.576  0.0178  0.0816  0.0873
15853TIP3    H168974   4.684   5.033   1.496  0.8094  0.7154  0.1761
15853TIP3    H268975   4.667   5.002   1.643  0.4120  0.1207  0.0072
15854TIP3   OH268976   5.609   0.706  13.119  0.1229  0.0086  0.5792
15854TIP3    H168977   5.652   0.778  13.167  2.9071 -2.0465  1.3324
15854TIP3    H268978   5.681   0.647  13.095 -1.8178 -1.4286 -1.9939
15855TIP3   OH268979   4.769   1.326  17.012  1.2700  0.3676 -0.2856
15855TIP3    H168980   4.691   1.283  17.049 -0.6741  1.4356 -2.9582
15855TIP3    H268981   4.824   1.346  17.088 -0.2232 -2.0258  1.5066
15856TIP3   OH268982   0.326   2.081   3.548  0.2295  0.3871  0.0582
15856TIP3    H168983   0.408   2.108   3.506  0.9513 -2.6759 -0.6331
15856TIP3    H268984   0.353   2.019   3.616 -1.4376  0.1482  0.5204
15857TIP3   OH268985   3.709   5.148  13.700  0.5408  0.2830 -0.3703
15857TIP3    H168986   3.639   5.177  13.640 -1.1006 -2.3416  0.2038
15857TIP3    H268987   3.779   5.119  13.642 -0.3977 -0.7037 -1.0323
15858TIP3   OH268988   3.769   4.978  14.644 -0.2264 -0.7740  0.6439
15858TIP3    H168989   3.764   4.884  14.662  0.0522 -1.0731 -0.7800
15858TIP3    H268990   3.797   4.983  14.553 -0.1348  0.6984  0.7488
15859TIP3   OH268991   1.162   0.309   4.332  0.6951  0.1835 -0.2031
15859TIP3    H168992   1.158   0.247   4.405 -1.7101  1.5051  0.8512
15859TIP3    H268993   1.083   0.292   4.281  0.8586  1.2752 -0.8376
15860TIP3   OH268994   0.942   5.159  13.413 -0.4005 -0.3922 -0.0484
15860TIP3    H168995   0.941   5.164  13.317  0.8513  1.2419 -0.0171
15860TIP3    H268996   1.034   5.175  13.436 -0.6386 -1.0792  1.4141
15861TIP3   OH268997   3.547   3.978  15.327 -0.2186 -0.2448 -0.7192
15861TIP3    H168998   3.494   4.043  15.280  1.0434  1.3128 -0.0680
15861TIP3    H268999   3.637   4.004  15.308  0.2987 -0.6662  1.0870
15862TIP3   OH269000   3.095   6.152  14.338  0.8546  0.1884 -0.4042
15862TIP3    H169001   3.002   6.146  14.359  1.2396  0.1918  1.3606
15862TIP3    H269002   3.108   6.244  14.315  0.1134 -0.1491 -2.2843
15863TIP3   OH269003   1.948   5.117  13.703  0.5255  0.4618  0.1962
15863TIP3    H169004   1.894   5.082  13.774  2.0426  1.5789  1.9265
15863TIP3    H269005   1.898   5.192  13.670 -0.0196  0.1544  0.3097
15864TIP3   OH269006   6.294   6.584  14.850 -0.4265  0.2933 -0.2294
15864TIP3    H169007   6.207   6.576  14.890 -0.6702  0.2528 -0.7600
15864TIP3    H269008   6.354   6.592  14.924 -1.0152  1.6082  0.1157
15865TIP3   OH269009   3.251   4.275   5.043  0.4626 -0.0778  0.4370
15865TIP3    H169010   3.323   4.282   5.106  1.3732  0.6173 -0.6733
15865TIP3    H269011   3.270   4.195   4.994 -0.3121 -0.6843  1.1040
15866TIP3   OH269012   1.492   2.016  16.727  0.5210 -0.0751  0.6046
15866TIP3    H169013   1.479   2.060  16.643  1.1478  1.3110  1.2250
15866TIP3    H269014   1.456   1.928  16.714  0.2945  0.2470 -0.9996
15867TIP3   OH269015   6.675   5.421  14.838 -0.3177  0.0799  0.7784
15867TIP3    H169016   6.723   5.441  14.919  0.0344  1.9589  0.1526
15867TIP3    H269017   6.727   5.353  14.796  1.8653  2.0487  0.1330
15868TIP3   OH269018   2.243   1.112  16.178  0.5863 -0.2526  0.0312
15868TIP3    H169019   2.295   1.148  16.106  0.9251 -0.3921  0.2074
15868TIP3    H269020   2.162   1.163  16.177  0.4685 -0.4537 -0.6379
15869TIP3   OH269021   5.752   6.171   3.806  0.1463 -0.0968  0.1274
15869TIP3    H169022   5.847   6.173   3.823  0.6795  0.9029 -2.6695
15869TIP3    H269023   5.737   6.087   3.765 -0.1892 -0.2350  0.5301
15870TIP3   OH269024   5.758   2.475   3.009  0.6051 -0.6819 -0.9242
15870TIP3    H169025   5.708   2.396   3.032  0.0052 -0.1243 -0.3099
15870TIP3    H269026   5.766   2.471   2.914  0.1461 -1.2317 -0.9434
15871TIP3   OH269027   4.092   1.474   3.572  0.6754  0.3260  0.1013
15871TIP3    H169028   4.156   1.403   3.567  2.8675  2.0819  2.0642
15871TIP3    H269029   4.025   1.441   3.632  1.2880 -0.4022  0.3941
15872TIP3   OH269030   5.780   0.709   2.134 -0.8710 -0.3016  0.5741
15872TIP3    H169031   5.707   0.743   2.186 -1.2430 -0.7150  0.3264
15872TIP3    H269032   5.827   0.788   2.105 -0.6742 -0.0711  1.5047
15873TIP3   OH269033   2.107   3.924  13.316  0.1492  0.0455 -0.5850
15873TIP3    H169034   2.030   3.948  13.367  1.4692  1.3742  0.8340
15873TIP3    H269035   2.087   3.953  13.227 -1.0527  0.2208 -0.2659
15874TIP3   OH269036   0.498   4.770   1.016 -0.4778 -0.3118 -0.2465
15874TIP3    H169037   0.499   4.761   1.111  0.4562 -0.0457 -0.2250
15874TIP3    H269038   0.509   4.681   0.983  0.0524 -0.3022 -0.0974
15875TIP3   OH269039   4.433   4.696   5.773 -0.5795 -0.0347  0.4105
15875TIP3    H169040   4.370   4.633   5.808 -1.6699  1.1385  0.6112
15875TIP3    H269041   4.465   4.656   5.692 -1.5355 -0.6655  0.3413
15876TIP3   OH269042   3.833   5.418  11.568 -0.7066 -0.0079  0.4743
15876TIP3    H169043   3.902   5.373  11.616 -0.6879  1.9128  2.3220
15876TIP3    H269044   3.877   5.491  11.523 -1.1671 -0.1531 -0.2304
15877TIP3   OH269045   5.204   5.019  11.592 -0.8973 -0.5511  0.1711
15877TIP3    H169046   5.157   4.971  11.660  0.9711 -3.8407 -0.8027
15877TIP3    H269047   5.160   4.994  11.510 -1.8484  1.8370 -0.1073
15878TIP3   OH269048   3.124   0.695  11.239 -0.0914  0.2068  0.2244
15878TIP3    H169049   3.038   0.665  11.212  0.0086 -0.1787  0.3362
15878TIP3    H269050   3.115   0.711  11.333  0.4090 -1.4230  0.5636
15879TIP3   OH269051   0.860   1.547   1.272 -0.3860 -0.3011 -0.2531
15879TIP3    H169052   0.941   1.559   1.223  1.0751 -0.5853  1.9893
15879TIP3    H269053   0.883   1.572   1.362 -3.0963  0.7034  0.2124
15880TIP3   OH269054   3.630   3.256   4.530 -0.0914 -0.6290  0.5270
15880TIP3    H169055   3.689   3.328   4.551  0.4603 -0.0218 -2.8053
15880TIP3    H269056   3.677   3.177   4.558  1.9588 -0.0875 -1.2539
15881TIP3   OH269057   0.360   1.505  15.659 -0.1402  0.1293  0.5497
15881TIP3    H169058   0.271   1.529  15.633 -1.0185 -0.7474  2.5914
15881TIP3    H269059   0.362   1.520  15.754  1.3080 -1.6473  0.8346
15882TIP3   OH269060   6.387   4.259   1.496 -0.3251 -0.3066 -0.0347
15882TIP3    H169061   6.395   4.236   1.404  0.1334  0.9726 -0.3208
15882TIP3    H269062   6.444   4.197   1.541  2.1015  1.2162 -0.9396
15883TIP3   OH269063   3.117   1.978   4.201  0.8230 -0.3652 -0.3918
15883TIP3    H169064   3.207   1.965   4.229  0.5382  1.4016  1.5603
15883TIP3    H269065   3.124   2.017   4.114  1.8916 -1.3886 -0.7729
15884TIP3   OH269066   1.719   2.065  11.328 -0.3567 -0.3790 -0.3398
15884TIP3    H169067   1.732   1.999  11.397  1.2022  1.4347  1.1796
15884TIP3    H269068   1.804   2.070  11.284 -0.6928  0.0657 -0.9315
15885TIP3   OH269069   0.037   5.508   0.643  0.1779 -0.0129 -0.1884
15885TIP3    H169070  -0.044   5.487   0.690 -0.4899  0.4906 -1.1120
15885TIP3    H269071   0.077   5.579   0.695 -0.6110  0.6158 -0.4411
15886TIP3   OH269072   1.654   4.211  14.535 -0.9401 -0.1537 -0.2160
15886TIP3    H169073   1.670   4.117  14.544 -0.5080 -0.0227  0.4495
15886TIP3    H269074   1.733   4.245  14.493 -1.6416 -0.2776 -1.6683
15887TIP3   OH269075   5.373   2.065   0.064 -0.2973  0.0112 -0.4046
15887TIP3    H169076   5.279   2.055   0.049 -0.1639 -0.7591 -0.7424
15887TIP3    H269077   5.379   2.136   0.128 -1.1256 -0.1828 -0.0980
15888TIP3   OH269078   2.890   0.085   5.793  0.9064  0.1564  0.2083
15888TIP3    H169079   2.981   0.080   5.820  1.0166  0.7358 -0.0589
15888TIP3    H269080   2.884   0.165   5.741 -0.2784  1.4167  2.2226
15889TIP3   OH269081   2.906   6.662  14.384  0.4088 -0.3097 -0.2799
15889TIP3    H169082   2.939   6.744  14.421  2.0527 -0.9377 -0.3051
15889TIP3    H269083   2.922   6.669  14.290  0.1435 -0.4763 -0.3381
15890TIP3   OH269084   6.657   6.409   4.031  0.5463 -0.0871  0.4213
15890TIP3    H169085   6.595   6.426   3.961  0.8979 -0.7828 -0.0654
15890TIP3    H269086   6.613   6.346   4.088 -0.1311  1.2228  1.3706
15891TIP3   OH269087   5.209   2.926  15.015  0.5161  0.2593  0.6572
15891TIP3    H169088   5.302   2.906  15.027  1.0104  2.7828  1.3393
15891TIP3    H269089   5.191   2.904  14.924  1.7386 -0.4324  0.5735
15892TIP3   OH269090   3.514   4.851   3.014 -0.4729  0.5473 -0.1816
15892TIP3    H169091   3.484   4.922   3.071 -1.9585  0.1083 -0.4025
15892TIP3    H269092   3.601   4.879   2.985 -0.0537  1.1790  1.5934
15893TIP3   OH269093   1.933   1.647   4.137 -0.1197  0.2038  0.1088
15893TIP3    H169094   1.893   1.711   4.197 -0.5583  1.2928 -1.3242
15893TIP3    H269095   2.027   1.662   4.146 -0.2323  1.2925 -0.4796
15894TIP3   OH269096   4.213   5.135  14.814  0.5398 -0.2565  0.3123
15894TIP3    H169097   4.257   5.110  14.733  1.9219 -2.0290  1.5744
15894TIP3    H269098   4.272   5.200  14.853 -0.7041  1.4925 -0.6367
15895TIP3   OH269099   1.727   4.747  11.858  0.5361  0.1383  0.7463
15895TIP3    H169100   1.810   4.789  11.837  1.8938 -1.6429  2.5140
15895TIP3    H269101   1.675   4.817  11.898  1.0787  1.3038 -0.5291
15896TIP3   OH269102   6.576   3.247   2.104 -0.6328  0.5539 -0.0685
15896TIP3    H169103   6.573   3.265   2.010 -1.4901 -0.0061 -0.1627
15896TIP3    H269104   6.539   3.159   2.113 -0.5112  0.5799  0.7874
15897TIP3   OH269105   5.030   1.349   0.145  0.2661  0.1923  0.1105
15897TIP3    H169106   5.066   1.298   0.072  1.4241 -0.2748  0.9848
15897TIP3    H269107   5.107   1.380   0.193 -0.3633  3.5873 -0.9224
15898TIP3   OH269108   3.804   0.167   1.910 -0.0809  0.6685  0.7378
15898TIP3    H169109   3.827   0.260   1.916 -1.3457  1.0419 -0.0769
15898TIP3    H269110   3.866   0.131   1.847  0.4742  0.9291  1.1267
15899TIP3   OH269111   3.688   0.853  12.272 -0.1765  0.3180  0.1855
15899TIP3    H169112   3.702   0.765  12.235  2.6577  0.3787  1.0239
15899TIP3    H269113   3.598   0.875  12.247 -0.5934 -2.4061 -0.9040
15900TIP3   OH269114   0.667   1.293   4.512 -0.4206  0.3521  0.3110
15900TIP3    H169115   0.640   1.255   4.595  0.2359 -0.4021  0.1888
15900TIP3    H269116   0.758   1.320   4.527 -0.5372  0.8864  0.0649
15901TIP3   OH269117   2.532   4.405   3.874 -0.3531 -0.6071 -0.1220
15901TIP3    H169118   2.455   4.357   3.844  0.1268 -1.6865  0.3842
15901TIP3    H269119   2.547   4.374   3.963 -1.4925  2.2340  1.1367
15902TIP3   OH269120   0.720   3.522   6.322 -0.0707  0.5011 -1.1401
15902TIP3    H169121   0.758   3.571   6.395  0.3839  0.4602 -1.3488
15902TIP3    H269122   0.635   3.563   6.307 -0.9418 -0.6195  0.5660
15903TIP3   OH269123   2.813   0.291  13.485 -0.8857 -0.2289 -0.2032
15903TIP3    H169124   2.822   0.213  13.430  0.2093 -0.6673  0.5803
15903TIP3    H269125   2.744   0.269  13.547 -0.4732 -0.6433  0.1152
15904TIP3   OH269126   6.681   4.390   0.217 -0.2546 -0.1369  0.0881
15904TIP3    H169127   6.592   4.414   0.242 -0.5092  0.5916 -1.4623
15904TIP3    H269128   6.703   4.451   0.146  1.2628 -0.6844  0.0777
15905TIP3   OH269129   2.429   4.046   0.415  0.2528  0.3969 -0.2120
15905TIP3    H169130   2.352   4.095   0.385  0.2885  0.8528  0.4506
15905TIP3    H269131   2.472   4.018   0.334 -0.6452  0.0737 -0.5959
15906TIP3   OH269132   2.048   3.544   6.110  0.3652  0.4879 -0.0623
15906TIP3    H169133   2.067   3.623   6.059 -2.2504  2.7669  2.2989
15906TIP3    H269134   2.124   3.534   6.167  1.4521  0.3318 -1.5163
15907TIP3   OH269135   0.491   2.140   4.736  0.4564  0.1479 -0.4410
15907TIP3    H169136   0.557   2.097   4.683 -0.3674  1.0080 -2.2069
15907TIP3    H269137   0.422   2.075   4.747 -0.2390  0.5843 -2.0758
15908TIP3   OH269138   5.764   5.423   0.662 -0.4088 -0.7205 -0.1071
15908TIP3    H169139   5.731   5.495   0.608 -0.6733 -0.3697  0.5125
15908TIP3    H269140   5.849   5.401   0.623  0.4821  1.0892  0.7058
15909TIP3   OH269141   5.526   4.136  11.936  0.3853  0.2509  0.3669
15909TIP3    H169142   5.535   4.225  11.969  1.2412  0.2858  0.0461
15909TIP3    H269143   5.469   4.145  11.859 -0.0846  0.4221  0.7322
15910TIP3   OH269144   1.771   3.639   2.349 -0.3069  0.5844  0.7300
15910TIP3    H169145   1.687   3.594   2.364 -0.3380  0.6337  0.7041
15910TIP3    H269146   1.833   3.591   2.403 -0.6256  1.4259  1.8470
15911TIP3   OH269147   4.367   5.209   4.738 -0.5614  0.0506 -0.5644
15911TIP3    H169148   4.428   5.140   4.710  0.3612 -0.0123  1.5138
15911TIP3    H269149   4.406   5.290   4.706  0.3586 -0.0427  0.2973
15912TIP3   OH269150   1.638   0.009  13.274  0.2017  0.3367  0.0080
15912TIP3    H169151   1.559  -0.024  13.232  0.1651  0.3168  0.0949
15912TIP3    H269152   1.628   0.104  13.275 -0.0422  0.3055  0.4658
15913TIP3   OH269153   0.265   0.899   0.780  0.1523 -0.3953  1.2387
15913TIP3    H169154   0.327   0.921   0.710 -0.3729 -0.9508  0.5945
15913TIP3    H269155   0.293   0.952   0.854 -1.2175  2.6736 -0.3378
15914TIP3   OH269156   3.175   3.870  12.262 -0.2882 -0.5134 -0.3287
15914TIP3    H169157   3.228   3.866  12.341  0.9874 -1.3240 -1.2060
15914TIP3    H269158   3.088   3.841  12.290 -0.6082  1.9431  1.3680
15915TIP3   OH269159   1.987   3.621  14.668  0.1941 -0.6507 -0.2402
15915TIP3    H169160   1.933   3.591  14.595 -0.6218  1.5372 -0.5427
15915TIP3    H269161   2.039   3.693  14.633  0.7020 -0.3815  1.0266
15916TIP3   OH269162   1.921   3.612  14.336  0.2187 -0.4858  0.1696
15916TIP3    H169163   2.005   3.656  14.351  0.3583 -0.5673 -0.3661
15916TIP3    H269164   1.905   3.625  14.243  0.0202 -1.1639  0.1146
15917TIP3   OH269165   6.556   0.782   2.849  0.1766 -0.1761 -0.9728
15917TIP3    H169166   6.595   0.862   2.813  2.8730 -0.2070  1.6363
15917TIP3    H269167   6.516   0.811   2.931 -0.9582 -1.0628 -1.2194
15918TIP3   OH269168   3.083   5.746  13.395  0.2427  0.1100 -0.1740
15918TIP3    H169169   3.157   5.772  13.451  0.8960 -0.6904 -0.6590
15918TIP3    H269170   3.040   5.829  13.374  0.9761  0.5849  0.1427
15919TIP3   OH269171   4.988   1.746  16.803 -0.0928  0.2323 -0.1147
15919TIP3    H169172   4.971   1.839  16.820 -3.3499 -0.5944  1.7458
15919TIP3    H269173   5.016   1.711  16.888  1.1052 -0.4857 -0.8057
15920TIP3   OH269174   1.783   3.922  10.631  0.1879  0.7808  0.0311
15920TIP3    H169175   1.737   4.002  10.607 -0.1159  0.1551 -1.5317
15920TIP3    H269176   1.848   3.909  10.562 -1.3735 -1.5956 -1.0601
15921TIP3   OH269177   0.270   4.873  10.815 -0.5848 -0.6418  0.0896
15921TIP3    H169178   0.254   4.815  10.889 -1.2222 -2.0069 -1.0852
15921TIP3    H269179   0.193   4.929  10.811 -0.6484 -0.7129  0.3378
15922TIP3   OH269180   4.814   3.000   1.941 -0.0086 -0.6516 -0.1146
15922TIP3    H169181   4.743   2.946   1.906  0.8189 -2.1878  0.5250
15922TIP3    H269182   4.842   3.055   1.867 -0.7323 -1.2385 -0.8270
15923TIP3   OH269183   4.456   3.706  14.348  0.0268 -0.2301 -0.7436
15923TIP3    H169184   4.429   3.782  14.296  1.3629 -0.8392 -2.3978
15923TIP3    H269185   4.374   3.661  14.368 -0.6466  0.8089 -1.0941
15924TIP3   OH269186   2.484   0.265   3.016 -0.4282 -0.2282 -0.4339
15924TIP3    H169187   2.403   0.307   3.046 -1.9938 -1.9998 -2.0064
15924TIP3    H269188   2.522   0.227   3.095 -1.0445  0.7487  0.3442
15925TIP3   OH269189   2.933   0.862   4.655  0.0071  0.5501 -0.0260
15925TIP3    H169190   2.860   0.880   4.715  1.8731  1.0173  2.1853
15925TIP3    H269191   2.892   0.826   4.577 -2.4643 -1.0345  1.9184
15926TIP3   OH269192   2.669   5.334   5.865 -0.4545 -0.3229  0.3683
15926TIP3    H169193   2.600   5.398   5.882 -0.6099 -0.5217  0.4795
15926TIP3    H269194   2.737   5.353   5.930  0.3547  0.9859 -0.8256
15927TIP3   OH269195   5.402   3.053  15.335  0.2341  1.0734  0.2795
15927TIP3    H169196   5.462   2.979  15.335  1.0898  1.7534  1.1866
15927TIP3    H269197   5.392   3.076  15.427 -1.2637  1.0917  0.1198
15928TIP3   OH269198   1.479   2.517  10.911  0.6819 -0.0577  0.1718
15928TIP3    H169199   1.417   2.495  10.980 -1.1026  3.1876 -0.3156
15928TIP3    H269200   1.429   2.507  10.830  0.8102  2.3995 -0.2376
15929TIP3   OH269201   2.864   0.726  13.088  0.3352  0.5912  0.1821
15929TIP3    H169202   2.845   0.813  13.125 -0.5873  1.0146 -1.2512
15929TIP3    H269203   2.788   0.706  13.033 -0.2840 -1.9246  1.8773
15930TIP3   OH269204   3.745   3.866   5.697 -0.0343 -0.3998 -0.3685
15930TIP3    H169205   3.769   3.778   5.726 -2.2098 -1.4357 -1.6417
15930TIP3    H269206   3.672   3.853   5.637 -2.4908  2.5066  1.8450
15931TIP3   OH269207   4.513   5.228   5.389 -0.2315 -0.5199 -0.0102
15931TIP3    H169208   4.581   5.261   5.331 -0.1105 -0.7365  0.0075
15931TIP3    H269209   4.473   5.155   5.341 -0.1188 -0.7107  0.1845
15932TIP3   OH269210   1.230   1.676  13.309  0.0803  0.1496 -0.6151
15932TIP3    H169211   1.213   1.668  13.403  0.2299 -1.1002 -0.6905
15932TIP3    H269212   1.143   1.676  13.269 -0.1498  3.3853 -0.3207
15933TIP3   OH269213   5.270   0.311  12.570  0.0683  0.6015  0.0326
15933TIP3    H169214   5.275   0.239  12.633 -2.1171 -0.7279 -1.2811
15933TIP3    H269215   5.201   0.368  12.604 -1.6626 -0.5224 -1.5326
15934TIP3   OH269216   1.221   2.458  11.763  0.2740 -0.3311 -0.3559
15934TIP3    H169217   1.304   2.495  11.734  1.1739 -0.4491  1.9297
15934TIP3    H269218   1.245   2.376  11.807 -0.9403  0.0391  1.0410
15935TIP3   OH269219   0.194   0.906  12.593  0.1271  0.0158  0.1754
15935TIP3    H169220   0.195   0.996  12.625  1.1681  0.6560 -1.6017
15935TIP3    H269221   0.266   0.902  12.530 -0.9531 -1.5734 -1.0066
15936TIP3   OH269222   4.293   6.755  17.103 -0.1090 -0.0007 -0.1681
15936TIP3    H169223   4.281   6.850  17.096 -0.1563 -0.1224 -1.8583
15936TIP3    H269224   4.368   6.735  17.047 -0.4235 -1.0180 -0.2471
15937TIP3   OH269225   6.668   3.470   4.241 -0.6919  0.1198 -0.4880
15937TIP3    H169226   6.664   3.500   4.150  0.2803  2.0325  0.0695
15937TIP3    H269227   6.581   3.433   4.258 -0.5153 -1.3267 -2.5213
15938TIP3   OH269228   5.505   1.001   2.531 -0.3581  0.1998 -0.1963
15938TIP3    H169229   5.521   1.005   2.625 -0.4142  1.5177 -0.2302
15938TIP3    H269230   5.416   0.966   2.523 -0.0947 -0.5753  0.2095
15939TIP3   OH269231   2.488   6.056  11.023  0.3507 -0.4700  0.3483
15939TIP3    H169232   2.395   6.052  11.044  0.6425 -1.6508  1.4381
15939TIP3    H269233   2.491   6.077  10.929 -0.9834  1.3418  0.6906
15940TIP3   OH269234   2.297   4.083  13.483  0.1098 -0.6095 -0.0310
15940TIP3    H169235   2.245   4.164  13.485  0.8899 -0.1004 -0.4507
15940TIP3    H269236   2.241   4.021  13.436  0.3330  0.2608 -1.4613
15941TIP3   OH269237   2.428   3.417   5.939 -0.1399  0.4529 -0.7602
15941TIP3    H169238   2.511   3.422   5.891  0.0678 -0.1477 -0.4691
15941TIP3    H269239   2.440   3.475   6.014  1.4069 -2.4168  1.3298
15942TIP3   OH269240   2.676   6.488  12.869 -0.5552 -0.1776 -0.4356
15942TIP3    H169241   2.737   6.558  12.893 -0.4556  0.3716 -2.1912
15942TIP3    H269242   2.621   6.476  12.946 -0.2179  1.4696  0.0821
15943TIP3   OH269243   1.647   0.076  13.953 -0.9844 -0.7275  0.4038
15943TIP3    H169244   1.586   0.146  13.975  0.2171  0.7986 -0.9709
15943TIP3    H269245   1.712   0.077  14.023 -0.5429  0.0514 -0.0170
15944TIP3   OH269246   2.405   1.254   6.262  0.2236 -0.4413  0.0923
15944TIP3    H169247   2.401   1.345   6.292  0.2137 -0.3706 -0.1268
15944TIP3    H269248   2.471   1.254   6.193 -0.2228 -0.4792 -0.3383
15945TIP3   OH269249   2.200   4.406  14.916  0.0250  0.1164 -0.7610
15945TIP3    H169250   2.267   4.447  14.971  1.0148 -1.2993 -0.9033
15945TIP3    H269251   2.126   4.392  14.975  1.1392 -1.5434  0.2524
15946TIP3   OH269252   0.342   3.805  15.591 -0.1105 -0.2579 -0.1434
15946TIP3    H169253   0.360   3.714  15.570  1.6391  0.3265 -1.2641
15946TIP3    H269254   0.416   3.833  15.645  0.0120  0.8583 -0.8721
15947TIP3   OH269255   6.666   6.087  15.711 -0.5088  0.1274  0.9192
15947TIP3    H169256   6.586   6.104  15.761 -1.0781  0.3160 -0.0332
15947TIP3    H269257   6.737   6.111  15.770 -1.1228 -0.9996  2.1542
15948TIP3   OH269258   3.742   4.199   1.838 -0.4718  0.2348 -0.4289
15948TIP3    H169259   3.718   4.178   1.748 -0.6180  1.7693 -0.7712
15948TIP3    H269260   3.699   4.283   1.855  1.2225  0.9654  0.3745
15949TIP3   OH269261   0.988   2.235  13.528 -0.0867  0.5817 -0.3263
15949TIP3    H169262   0.911   2.222  13.473  0.0742  1.1041 -0.6801
15949TIP3    H269263   1.033   2.311  13.490  1.6112 -0.8524 -1.2878
15950TIP3   OH269264   4.562   0.770  15.918 -0.6903  0.4455 -0.0194
15950TIP3    H169265   4.642   0.775  15.865 -0.2550 -0.1741  0.5687
15950TIP3    H269266   4.553   0.677  15.938 -3.0889  0.0997 -2.4075
15951TIP3   OH269267   3.704   1.118   3.198  0.0749 -0.1158 -0.1784
15951TIP3    H169268   3.620   1.157   3.220 -0.6844 -1.5052 -0.5869
15951TIP3    H269269   3.687   1.024   3.196  1.9511 -0.5160  1.1012
15952TIP3   OH269270   1.267   2.503   5.699  0.6036 -0.2874 -0.3415
15952TIP3    H169271   1.176   2.478   5.683  1.2627 -3.1157  0.0727
15952TIP3    H269272   1.262   2.572   5.765 -1.2432 -0.0741 -0.6795
15953TIP3   OH269273   1.421   3.887  14.221  0.8246  0.0365  0.0648
15953TIP3    H169274   1.343   3.920  14.176  0.8033  0.7593  0.6277
15953TIP3    H269275   1.402   3.794  14.237  0.0741  0.2187  0.2250
15954TIP3   OH269276   5.937   3.757   0.882  0.5096  0.1627  0.7906
15954TIP3    H169277   5.900   3.825   0.939 -0.2863  1.7445 -1.5275
15954TIP3    H269278   6.027   3.786   0.866 -0.2394  1.4809 -1.3060
15955TIP3   OH269279   5.202   3.504  11.163 -0.3858  0.5852  0.5406
15955TIP3    H169280   5.179   3.426  11.213 -0.5797 -0.0136 -0.4711
15955TIP3    H269281   5.141   3.503  11.089  1.0164  0.5398 -0.6339
15956TIP3   OH269282   3.260   3.972  10.855 -0.3548  0.6016  0.1798
15956TIP3    H169283   3.332   3.973  10.919 -0.4254  1.3065  0.2582
15956TIP3    H269284   3.286   3.907  10.790 -0.1559  0.0651  0.7857
15957TIP3   OH269285   1.088   6.274   0.648  0.6502 -0.0040 -0.4952
15957TIP3    H169286   1.017   6.223   0.688  1.4304 -0.3397  0.5048
15957TIP3    H269287   1.106   6.228   0.566 -0.4198  0.2055 -0.8582
15958TIP3   OH269288   2.539   2.467  12.728  0.2695  0.2688 -0.0333
15958TIP3    H169289   2.542   2.382  12.683 -2.7893 -0.0810  0.3437
15958TIP3    H269290   2.538   2.531  12.657  0.4390 -0.0913 -0.3663
15959TIP3   OH269291   0.494   6.594  14.966  0.0578 -0.4218 -0.6180
15959TIP3    H169292   0.440   6.515  14.976  1.1619 -1.2429 -1.0446
15959TIP3    H269293   0.469   6.630  14.881 -0.5265 -0.2442 -0.3735
15960TIP3   OH269294   2.971   3.594   6.172 -0.0400 -0.1158  0.3366
15960TIP3    H169295   2.929   3.680   6.181 -0.8048 -0.2881 -1.4014
15960TIP3    H269296   3.010   3.577   6.258  0.6665  2.2482  0.5026
15961TIP3   OH269297   3.186   0.026  14.408  0.2834  0.2469 -0.2991
15961TIP3    H169298   3.198  -0.001  14.317  0.5031 -0.9895  0.0859
15961TIP3    H269299   3.274   0.029  14.444 -0.0158 -2.5732  0.7759
15962TIP3   OH269300   6.643   5.020   0.808 -0.7211 -0.1931  0.1633
15962TIP3    H169301   6.569   5.074   0.783  0.3471  2.4261  2.4442
15962TIP3    H269302   6.618   4.983   0.893  0.4689  0.5464  0.8489
15963TIP3   OH269303   4.744   4.317   0.373  0.4887 -0.7890  0.1670
15963TIP3    H169304   4.697   4.328   0.290  0.1243  0.2626  0.5101
15963TIP3    H269305   4.807   4.247   0.355  3.2643  2.1721 -2.2743
15964TIP3   OH269306   1.143   5.933  12.067  1.0867 -0.4404  0.4607
15964TIP3    H169307   1.167   5.851  12.024  0.5947  0.9360 -2.5509
15964TIP3    H269308   1.183   6.001  12.013  1.0540  1.3539  2.6136
15965TIP3   OH269309   5.105   5.098   4.213  0.0732 -0.8242 -0.1759
15965TIP3    H169310   5.064   5.083   4.298 -0.5008 -1.9462 -0.6333
15965TIP3    H269311   5.197   5.077   4.226 -0.2198 -2.1393 -0.1061
15966TIP3   OH269312   3.707   3.967   4.479 -0.3017  1.0352  0.2164
15966TIP3    H169313   3.797   3.985   4.508 -0.2801  1.8114 -0.3212
15966TIP3    H269314   3.689   4.034   4.414 -1.3810  1.0462  0.5186
15967TIP3   OH269315   1.071   0.505   3.376 -0.1352  0.2215  0.1897
15967TIP3    H169316   1.029   0.589   3.395  1.1772  1.2752 -1.4052
15967TIP3    H269317   1.014   0.464   3.311  0.4223  0.9141 -0.7441
15968TIP3   OH269318   0.478   0.585  14.580 -0.2405  0.1085 -0.2289
15968TIP3    H169319   0.408   0.553  14.523 -0.1148 -1.5322  0.5079
15968TIP3    H269320   0.552   0.598  14.520 -0.3778 -0.7243 -0.5874
15969TIP3   OH269321   0.549   6.607   5.485  0.2905 -0.3852 -0.2653
15969TIP3    H169322   0.514   6.625   5.398  1.2796 -0.5344 -0.7097
15969TIP3    H269323   0.621   6.669   5.495  1.5427 -1.7590 -0.4360
15970TIP3   OH269324   4.248   3.189  15.744 -0.3726 -0.5848 -0.5315
15970TIP3    H169325   4.276   3.139  15.667 -1.4904 -0.7862 -0.8204
15970TIP3    H269326   4.230   3.277  15.710  0.8028 -0.2060 -0.1771
15971TIP3   OH269327   0.831   0.164   4.736 -0.2206  0.8958  0.1471
15971TIP3    H169328   0.912   0.169   4.788  0.7016  1.2104 -1.2907
15971TIP3    H269329   0.764   0.202   4.793  0.5437  0.1757  1.5501
15972TIP3   OH269330   6.056   0.196   5.296  0.2299 -0.8976  0.1016
15972TIP3    H169331   6.097   0.251   5.362  1.6507 -1.0272 -0.6658
15972TIP3    H269332   6.094   0.224   5.213 -0.0452 -2.0957 -0.4542
15973TIP3   OH269333   0.007   1.857  15.617 -0.4365  0.1359 -0.3761
15973TIP3    H169334   0.026   1.826  15.528  0.0216  0.8054 -0.5186
15973TIP3    H269335   0.091   1.849  15.663 -1.2637 -2.6232  0.7425
15974TIP3   OH269336   4.470   5.286  11.193 -0.3047 -0.4953  0.2313
15974TIP3    H169337   4.557   5.323  11.179 -0.0917 -0.4233  1.6557
15974TIP3    H269338   4.457   5.226  11.119  0.6578  0.0233 -0.3686
15975TIP3   OH269339   4.263   3.906  15.386 -0.0207  0.1327  0.4940
15975TIP3    H169340   4.322   3.851  15.334 -0.0634  1.3868 -0.9254
15975TIP3    H269341   4.315   3.932  15.462  1.7254  2.1807 -1.3212
15976TIP3   OH269342   4.779   1.931   1.142  0.0077  0.3255  0.1751
15976TIP3    H169343   4.842   1.884   1.197 -0.2061 -1.8273 -1.3672
15976TIP3    H269344   4.720   1.973   1.204  1.9608  1.0172  1.6272
15977TIP3   OH269345   2.702   5.206   4.484  0.4193  0.2701 -0.3360
15977TIP3    H169346   2.769   5.242   4.426  0.1135  0.6692 -0.4441
15977TIP3    H269347   2.657   5.283   4.520  1.0365  0.0524  0.9382
15978TIP3   OH269348   5.107   3.128   5.959  0.1073  0.7751 -0.3575
15978TIP3    H169349   5.153   3.180   5.893 -0.3024  0.6459 -0.7496
15978TIP3    H269350   5.036   3.087   5.911  0.5033 -0.2435 -0.0705
15979TIP3   OH269351   5.625   2.840   2.506 -0.3942  0.7527  0.3061
15979TIP3    H169352   5.658   2.878   2.425 -1.0988  0.0721 -0.3014
15979TIP3    H269353   5.653   2.901   2.574  2.0337  0.2416 -0.1975
15980TIP3   OH269354   4.031   5.379   4.227 -0.6318 -0.5636  0.2310
15980TIP3    H169355   4.097   5.364   4.294 -0.1071  1.4702  0.1906
15980TIP3    H269356   3.958   5.420   4.274 -0.4554  0.4265 -0.3547
15981TIP3   OH269357   0.435   4.730  13.862  0.1413  0.4314  0.4502
15981TIP3    H169358   0.448   4.817  13.823  0.6024  0.2590  0.2116
15981TIP3    H269359   0.521   4.704  13.893 -0.1671  0.4216  1.2983
15982TIP3   OH269360   5.467   2.744  12.513 -0.1619 -0.1686 -0.2693
15982TIP3    H169361   5.484   2.669  12.571 -0.5348 -0.2146 -0.2207
15982TIP3    H269362   5.442   2.815  12.573  1.1169  0.2715 -0.2293
15983TIP3   OH269363   0.769   3.333   0.400 -0.1357  0.0800 -0.5608
15983TIP3    H169364   0.768   3.242   0.370  0.0313 -0.6264  1.4833
15983TIP3    H269365   0.733   3.383   0.328 -0.5808 -1.6633 -1.5648
15984TIP3   OH269366   1.276   4.267   3.297  0.1988  0.0213  0.2714
15984TIP3    H169367   1.341   4.240   3.232  0.6224 -0.6303  0.9613
15984TIP3    H269368   1.257   4.187   3.347 -0.5407  0.3883  0.5851
15985TIP3   OH269369   4.120   4.861   3.488  0.3538  0.3195  0.1174
15985TIP3    H169370   4.092   4.915   3.415  1.0850 -0.7507 -0.9620
15985TIP3    H269371   4.180   4.917   3.537  1.1942  0.4608 -1.0578
15986TIP3   OH269372   5.832   6.309  10.740  0.1182 -0.0347 -0.2512
15986TIP3    H169373   5.787   6.388  10.770 -0.2075 -0.1609 -0.4022
15986TIP3    H269374   5.914   6.341  10.703 -0.2453  0.2809 -0.7846
15987TIP3   OH269375   6.726   2.225  14.228 -0.3054  0.5020 -0.2914
15987TIP3    H169376   6.802   2.263  14.183  0.1410  0.5578  0.5050
15987TIP3    H269377   6.705   2.147  14.177  0.3913  0.3919 -0.4095
15988TIP3   OH269378   5.676   6.240  13.423 -0.6986 -0.2152 -0.2095
15988TIP3    H169379   5.703   6.327  13.395 -0.2197 -0.5195 -0.7021
15988TIP3    H269380   5.745   6.212  13.484 -1.0625 -0.0885  0.2709
15989TIP3   OH269381   6.259   4.291   1.846 -0.5056 -0.4881 -0.1495
15989TIP3    H169382   6.193   4.270   1.781 -1.6638 -0.2137  0.9127
15989TIP3    H269383   6.220   4.265   1.930  0.0837  1.1359  0.6655
15990TIP3   OH269384   2.666   2.152  16.776 -0.5556 -0.1176 -0.2378
15990TIP3    H169385   2.752   2.109  16.781 -1.4372 -2.1260 -1.5814
15990TIP3    H269386   2.658   2.199  16.859  1.5777 -0.4279  0.1660
15991TIP3   OH269387   2.448   2.887  16.723  0.1402 -0.1672 -0.0863
15991TIP3    H169388   2.515   2.820  16.703 -0.4078 -0.5451 -0.6822
15991TIP3    H269389   2.491   2.970  16.702  0.3946 -0.4159 -0.5654
15992TIP3   OH269390   3.194   6.593   6.065  0.1423 -0.2429  0.6194
15992TIP3    H169391   3.129   6.570   5.998 -0.0238  0.9559  0.3652
15992TIP3    H269392   3.257   6.521   6.063  0.1960 -0.1725 -0.9026
15993TIP3   OH269393   5.488   4.478   1.112 -0.5363 -0.1004  0.3102
15993TIP3    H169394   5.522   4.494   1.024 -1.0974 -1.1940 -0.1200
15993TIP3    H269395   5.566   4.460   1.165 -0.3321 -1.4120 -0.4125
15994TIP3   OH269396   2.207   4.058   1.915 -0.2981  0.1779 -0.6813
15994TIP3    H169397   2.214   4.015   1.829  2.6919  0.7644 -0.8131
15994TIP3    H269398   2.139   4.010   1.961 -2.3828  0.2441 -3.6061
15995TIP3   OH269399   1.788   4.490  10.752  0.3142  0.8403  0.1983
15995TIP3    H169400   1.842   4.534  10.686  1.2312  0.2826  0.5847
15995TIP3    H269401   1.792   4.548  10.829  0.7957  0.5255  0.4070
15996TIP3   OH269402   2.911   1.797   6.391  0.4206  0.2252  0.0206
15996TIP3    H169403   2.938   1.708   6.414  0.0121  0.1756  0.3107
15996TIP3    H269404   2.816   1.795   6.398  0.4939  1.0886  1.4803
15997TIP3   OH269405   3.190   0.888   4.405  0.4320 -0.0090  0.4179
15997TIP3    H169406   3.117   0.842   4.365 -1.6026  2.2492  1.3983
15997TIP3    H269407   3.266   0.832   4.389 -1.4586 -2.2913 -0.8234
15998TIP3   OH269408   6.165   3.807   2.104  0.3556 -0.9130  0.5578
15998TIP3    H169409   6.182   3.714   2.121  3.8418 -0.4292  0.1331
15998TIP3    H269410   6.182   3.850   2.187 -1.6550 -0.6569  0.8606
15999TIP3   OH269411   4.843   2.913   0.945  0.7431  0.0528 -0.2038
15999TIP3    H169412   4.902   2.988   0.940  0.4009  0.1758 -3.2761
15999TIP3    H269413   4.853   2.868   0.861 -1.9915 -1.0922  0.0070
16000TIP3   OH269414   3.830   3.072   3.123  0.0738  0.3612 -0.3435
16000TIP3    H169415   3.788   2.988   3.108 -0.5104  1.0173 -2.5807
16000TIP3    H269416   3.880   3.088   3.043  2.1777  0.9945  1.0635
16001TIP3   OH269417   4.175   0.583   3.642 -0.7649 -0.2908 -0.3853
16001TIP3    H169418   4.164   0.668   3.598  3.1403  0.2449 -0.4839
16001TIP3    H269419   4.117   0.588   3.717 -0.3683  2.6504 -0.2051
16002TIP3   OH269420   4.400   0.061   0.656  0.3712  1.0455  0.4323
16002TIP3    H169421   4.443   0.112   0.725  0.5321  1.6166 -0.0866
16002TIP3    H269422   4.320   0.110   0.637 -0.3207  0.1945  1.1162
16003TIP3   OH269423   3.859   6.004   4.591  0.3690 -0.0767  0.2878
16003TIP3    H169424   3.883   5.916   4.562  0.2284  0.0218 -0.1433
16003TIP3    H269425   3.909   6.062   4.534  0.7615  0.1213  0.8331
16004TIP3   OH269426   6.703   6.235  14.446  0.6954 -0.0242 -0.2459
16004TIP3    H169427   6.774   6.195  14.496 -0.9560 -0.3376  1.9005
16004TIP3    H269428   6.663   6.162  14.399  0.8756 -0.0578 -0.3527
16005TIP3   OH269429   1.278   3.511  10.444 -0.2197 -0.7102 -0.4873
16005TIP3    H169430   1.306   3.531  10.533 -1.2240 -1.6285  0.0537
16005TIP3    H269431   1.359   3.497  10.396  0.3285 -0.3463  0.3209
16006TIP3   OH269432   4.649   4.317  16.302 -0.2807 -0.2626 -0.8907
16006TIP3    H169433   4.565   4.356  16.326 -0.2690 -0.4622 -0.5127
16006TIP3    H269434   4.710   4.391  16.301 -0.5711 -0.0342 -1.7050
16007TIP3   OH269435   5.581   6.062  13.735 -0.0708 -0.6844  0.3152
16007TIP3    H169436   5.637   6.140  13.731 -1.0231  0.0819  1.5646
16007TIP3    H269437   5.632   5.994  13.691  0.8151  0.6135 -0.6944
16008TIP3   OH269438   3.243   5.205   1.242  0.6474 -0.0375 -0.1433
16008TIP3    H169439   3.190   5.167   1.312 -1.3990  2.3008 -0.3882
16008TIP3    H269440   3.333   5.204   1.277 -0.2907  0.7825  2.4006
16009TIP3   OH269441   2.679   4.869  15.672  0.0410 -0.2251  0.4327
16009TIP3    H169442   2.663   4.898  15.762 -2.6277 -0.7869  0.1946
16009TIP3    H269443   2.598   4.892  15.625  1.0662 -0.7023 -1.6362
16010TIP3   OH269444   5.532   4.553  14.431 -0.3421 -0.7199  0.5564
16010TIP3    H169445   5.557   4.613  14.501  1.6562  0.1360 -0.8156
16010TIP3    H269446   5.455   4.594  14.392  1.0030  1.0323 -0.3664
16011TIP3   OH269447   5.126   0.086   3.390 -0.0174 -0.1383  0.4075
16011TIP3    H169448   5.095   0.168   3.429  1.5712  0.9098 -0.5206
16011TIP3    H269449   5.220   0.085   3.406  0.2112 -1.0603 -0.9356
16012TIP3   OH269450   1.496   0.179   5.560  0.2804 -0.0703  0.4495
16012TIP3    H169451   1.414   0.133   5.540  0.0825  0.0210  1.0464
16012TIP3    H269452   1.516   0.227   5.480  0.5385 -1.2667 -0.2154
16013TIP3   OH269453   4.413   5.683  13.497  0.5360  0.3430 -0.3860
16013TIP3    H169454   4.318   5.676  13.510  0.4966  0.2814 -0.6911
16013TIP3    H269455   4.427   5.774  13.472  0.9718  1.2536  2.9463
16014TIP3   OH269456   3.466   4.384   4.639 -0.0207  0.8474  0.2690
16014TIP3    H169457   3.472   4.409   4.731  0.3103  0.4092  0.3680
16014TIP3    H269458   3.547   4.417   4.599 -0.3205  1.3411  0.0573
16015TIP3   OH269459   5.773   4.740   5.785  0.0028  0.0969 -0.3023
16015TIP3    H169460   5.738   4.743   5.875 -0.4834  3.0566 -0.5325
16015TIP3    H269461   5.750   4.653   5.754 -3.8996  0.5772  0.8929
16016TIP3   OH269462   2.386   4.210  17.022 -0.2233 -0.6107  0.4615
16016TIP3    H169463   2.314   4.157  17.054 -0.4637 -0.6186 -0.0883
16016TIP3    H269464   2.363   4.230  16.931  0.6241 -0.8902  0.1800
16017TIP3   OH269465   3.157   2.448  12.128 -0.3533  0.1917  0.0542
16017TIP3    H169466   3.191   2.359  12.140 -1.4913 -0.4034 -1.0091
16017TIP3    H269467   3.165   2.464  12.034  0.2599  1.3902  0.3103
16018TIP3   OH269468   5.115   5.536  12.796  0.6618 -0.3856 -0.2674
16018TIP3    H169469   5.088   5.455  12.753 -1.2785  0.4542 -0.7080
16018TIP3    H269470   5.048   5.600  12.770  1.7424  1.1559  0.6797
16019TIP3   OH269471   5.446   6.233   5.691  0.5333 -0.6537 -0.6502
16019TIP3    H169472   5.480   6.212   5.603 -0.0412  0.3982 -1.1344
16019TIP3    H269473   5.416   6.324   5.684  2.1502  0.0509  1.1599
16020TIP3   OH269474   3.119   1.463  13.287  0.6394  0.2557  0.1441
16020TIP3    H169475   3.096   1.370  13.281  0.4188  0.3421 -0.3784
16020TIP3    H269476   3.034   1.508  13.287  0.7364  0.4448  0.6566
16021TIP3   OH269477   2.923   1.927  17.181  0.0235 -0.3085  0.1890
16021TIP3    H169478   2.967   1.842  17.187  1.9016  0.7187  1.5511
16021TIP3    H269479   2.966   1.971  17.108 -0.9801 -0.5423 -0.5434
16022TIP3   OH269480   4.637   4.013   0.667 -0.3388  0.3575 -0.2086
16022TIP3    H169481   4.666   4.006   0.758  1.4497 -0.9895 -0.8488
16022TIP3    H269482   4.659   4.103   0.642  0.0580  0.4271  0.3822
16023TIP3   OH269483   6.397   2.824   1.687  0.0685 -0.0678 -0.0245
16023TIP3    H169484   6.492   2.816   1.678  0.1070 -0.2083  0.4992
16023TIP3    H269485   6.362   2.748   1.640  0.2334 -0.2554  0.1572
16024TIP3   OH269486   4.097   2.673   0.506 -0.3580  0.1350  0.4154
16024TIP3    H169487   4.021   2.731   0.515 -0.9824 -0.4755 -0.7900
16024TIP3    H269488   4.059   2.585   0.501  0.2441 -0.0110 -2.4432
16025TIP3   OH269489   0.627   3.051  16.913  0.0461 -0.2588 -0.4900
16025TIP3    H169490   0.567   3.076  16.843 -1.6783 -0.4616  0.9014
16025TIP3    H269491   0.592   3.091  16.992  2.4671  0.7095  0.1557
16026TIP3   OH269492   4.110   2.474   6.264  0.4586  0.1724 -0.3024
16026TIP3    H169493   4.174   2.433   6.206  0.1683 -0.0179 -0.4916
16026TIP3    H269494   4.061   2.534   6.208 -1.0951 -1.4060 -0.7024
16027TIP3   OH269495   0.320   0.169  11.836  0.0200  0.1301 -0.5769
16027TIP3    H169496   0.320   0.167  11.932  2.7198  0.4476 -0.5410
16027TIP3    H269497   0.285   0.256  11.814 -1.4026 -0.2558  0.0708
16028TIP3   OH269498   5.448   1.552  12.498  0.2116  0.9302  0.5240
16028TIP3    H169499   5.499   1.479  12.462  0.0865  0.6372  0.9289
16028TIP3    H269500   5.391   1.579  12.427 -1.2270 -0.7301  0.9916
16029TIP3   OH269501   6.051   4.826   2.936  0.3271  0.6387  0.2519
16029TIP3    H169502   6.034   4.732   2.934  0.6916  0.5689  0.3786
16029TIP3    H269503   6.088   4.845   2.850  2.2739  0.2748  0.9869
16030TIP3   OH269504   1.896   4.836   5.373  0.1533 -0.5594 -0.3516
16030TIP3    H169505   1.989   4.838   5.349 -0.2321 -0.0261 -1.8987
16030TIP3    H269506   1.894   4.864   5.464  1.5528 -0.9510 -0.1873
16031TIP3   OH269507   1.768   6.435   2.553 -0.6423  0.2954  0.3359
16031TIP3    H169508   1.791   6.496   2.623 -1.0411 -0.2903  0.9864
16031TIP3    H269509   1.848   6.425   2.502 -0.0481 -0.0769  1.3206
16032TIP3   OH269510   3.605   3.688  12.060 -0.5226 -0.1337 -0.1923
16032TIP3    H169511   3.513   3.704  12.080 -0.2149  0.0235  1.1766
16032TIP3    H269512   3.632   3.621  12.123  1.4489  2.9937  2.4077
16033TIP3   OH269513   4.262   2.455  12.470  0.2309  0.1548  0.0871
16033TIP3    H169514   4.250   2.363  12.496 -0.2412 -0.2466 -1.5284
16033TIP3    H269515   4.233   2.458  12.379  3.0399  1.2939 -0.8185
16034TIP3   OH269516   0.038   3.976  13.265 -0.5351 -0.2091 -0.0050
16034TIP3    H169517   0.111   3.986  13.326  1.2861 -2.1963 -1.7913
16034TIP3    H269518   0.064   4.027  13.188 -1.4750 -0.1589 -0.3001
16035TIP3   OH269519   3.380   6.776  17.129  0.1095 -0.1989 -0.5537
16035TIP3    H169520   3.342   6.863  17.121 -1.6477 -0.8697  0.2271
16035TIP3    H269521   3.320   6.719  17.082 -0.3777 -1.4138  1.4533
16036TIP3   OH269522   0.463   1.638  12.864  0.5851  0.3884  0.1170
16036TIP3    H169523   0.520   1.573  12.904  1.3988  1.4844  0.7745
16036TIP3    H269524   0.470   1.715  12.921 -1.4762  0.5848  0.1633
16037TIP3   OH269525   0.784   3.327   2.761 -0.4912 -0.0885  0.1611
16037TIP3    H169526   0.782   3.370   2.675  2.4241 -0.8069 -0.3210
16037TIP3    H269527   0.758   3.237   2.742  0.6211 -0.3716 -0.0902
16038TIP3   OH269528   0.777   4.758  13.682 -0.5999 -0.3668 -0.1641
16038TIP3    H169529   0.814   4.774  13.769  1.4262 -1.5230 -0.7682
16038TIP3    H269530   0.786   4.841  13.636 -1.8072  0.2882  0.7557
16039TIP3   OH269531   0.833   3.289  16.502  0.4134 -0.3123 -0.5326
16039TIP3    H169532   0.875   3.305  16.418 -0.7803 -2.7307 -1.6510
16039TIP3    H269533   0.739   3.290  16.483  0.1083  0.2314  0.9781
16040TIP3   OH269534   3.076   1.962   2.845 -0.2513 -0.0520  0.0222
16040TIP3    H169535   3.090   1.889   2.785 -2.3619 -0.3888 -0.0860
16040TIP3    H269536   3.057   1.920   2.929 -3.7787  0.2818 -0.5452
16041TIP3   OH269537   2.653   3.956   5.316 -0.6980 -0.3511 -0.2240
16041TIP3    H169538   2.590   4.002   5.372 -0.6116  0.8051 -1.0423
16041TIP3    H269539   2.656   3.867   5.350 -0.8958  0.2476  1.3937
16042TIP3   OH269540   1.648   4.604  15.745  0.5131  0.2812  0.6027
16042TIP3    H169541   1.633   4.537  15.678 -1.0627  0.3128  0.9067
16042TIP3    H269542   1.565   4.610  15.792  0.9792  1.6892  1.2686
16043TIP3   OH269543   3.622   3.990   1.017 -0.1144 -0.4297  0.0936
16043TIP3    H169544   3.527   3.988   1.007 -0.2171 -0.6751  1.0325
16043TIP3    H269545   3.641   3.917   1.077  0.7301 -0.8035 -0.6073
16044TIP3   OH269546   1.536   2.288   0.188 -0.1290  0.0132 -0.7111
16044TIP3    H169547   1.454   2.238   0.190  0.1713 -0.4581  0.6951
16044TIP3    H269548   1.534   2.334   0.104 -2.3945  0.9065 -0.2200
16045TIP3   OH269549   5.175   1.081   4.351 -0.4808  0.0408 -0.2984
16045TIP3    H169550   5.239   1.101   4.419 -0.7547 -0.3792  0.0879
16045TIP3    H269551   5.116   1.017   4.391 -0.9129  0.1291 -0.7771
16046TIP3   OH269552   5.724   2.554  14.870  0.2049 -0.2300 -0.3895
16046TIP3    H169553   5.636   2.545  14.834 -0.6402  1.1022  1.2692
16046TIP3    H269554   5.733   2.481  14.932  0.0072  0.0295 -0.0553
16047TIP3   OH269555   1.448   2.776   3.428 -0.0839 -0.0212 -0.8076
16047TIP3    H169556   1.370   2.764   3.482  0.1950  1.0871 -0.1553
16047TIP3    H269557   1.466   2.688   3.394 -1.8285 -0.2290 -1.2735
16048TIP3   OH269558   2.502   6.600  15.629 -0.5827  0.0323 -0.2305
16048TIP3    H169559   2.439   6.669  15.610 -0.3497  0.1887 -0.4301
16048TIP3    H269560   2.583   6.629  15.588 -0.2245  0.1105  0.5119
16049TIP3   OH269561   4.229   4.496   2.024 -0.1830  0.3213  0.1246
16049TIP3    H169562   4.156   4.481   2.085 -0.5981 -1.9283 -0.8751
16049TIP3    H269563   4.187   4.533   1.946 -0.3826 -1.5338 -0.6790
16050TIP3   OH269564   6.423   1.292  11.176  0.0724 -0.1182 -0.1130
16050TIP3    H169565   6.506   1.256  11.207  0.0174  1.1939  1.6525
16050TIP3    H269566   6.358   1.227  11.201  0.3282 -0.1972  0.3591
16051TIP3   OH269567   0.739   3.959  15.488 -0.5142  0.2833  0.1170
16051TIP3    H169568   0.818   4.013  15.483  0.8208 -1.2386  3.4089
16051TIP3    H269569   0.678   4.010  15.542 -0.0842 -0.4824  1.3443
16052TIP3   OH269570   0.554   2.693   1.513  0.1984 -0.3178  0.6322
16052TIP3    H169571   0.546   2.759   1.444 -0.8775 -0.0754  0.9687
16052TIP3    H269572   0.575   2.612   1.466  1.2722  0.2072  0.1946
16053TIP3   OH269573   5.832   6.210   5.718  0.3605  0.2774 -0.1024
16053TIP3    H169574   5.871   6.132   5.680  2.2107  0.6224  1.0089
16053TIP3    H269575   5.901   6.277   5.712 -0.5418  1.3010  0.6462
16054TIP3   OH269576   4.314   6.039   0.055  0.2532  0.2879  0.3182
16054TIP3    H169577   4.306   6.008   0.145  3.4687 -1.0448  0.1978
16054TIP3    H269578   4.343   6.129   0.063  0.2439  0.2654  0.6145
16055TIP3   OH269579   4.086   1.947   3.761 -0.0025  0.3888  0.4124
16055TIP3    H169580   4.086   1.853   3.745 -0.4920  0.8148 -2.2391
16055TIP3    H269581   4.176   1.966   3.789  0.0536 -0.8740  1.1402
16056TIP3   OH269582   1.974   4.198   3.756 -0.3009 -0.3356 -0.0283
16056TIP3    H169583   2.054   4.185   3.706 -1.1971 -1.8715 -1.1328
16056TIP3    H269584   1.906   4.210   3.690 -1.1254  0.0304  0.8678
16057TIP3   OH269585   4.507   0.913  13.363 -0.1524  0.1723  0.2548
16057TIP3    H169586   4.601   0.920  13.344 -0.2556  2.1923  0.4106
16057TIP3    H269587   4.468   0.987  13.317 -1.6540 -0.5153  0.3997
16058TIP3   OH269588   3.541   4.835  15.918  0.3758  0.3829 -0.3073
16058TIP3    H169589   3.598   4.901  15.957  0.0089  0.8939 -0.6209
16058TIP3    H269590   3.470   4.886  15.879  0.3127 -0.1762 -0.9191
16059TIP3   OH269591   1.568   3.619  14.976  0.0294 -0.2423  0.6293
16059TIP3    H169592   1.491   3.562  14.976  0.6332 -1.0634  0.0511
16059TIP3    H269593   1.532   3.707  14.984 -1.0021 -0.5845 -0.0840
16060TIP3   OH269594   4.567   0.992  12.811 -0.1688 -0.3108 -0.1225
16060TIP3    H169595   4.533   1.009  12.724  2.8996  1.5427 -1.0508
16060TIP3    H269596   4.597   0.901  12.808 -1.7122 -0.8066 -0.4273
16061TIP3   OH269597   1.602   6.675  16.494  0.6396 -0.0128 -0.0298
16061TIP3    H169598   1.583   6.593  16.541  0.8100  0.5209  0.9796
16061TIP3    H269599   1.611   6.648  16.402 -1.8450 -0.7367 -0.0861
16062TIP3   OH269600   3.855   5.547   2.852  0.8236  0.5804  0.0105
16062TIP3    H169601   3.892   5.619   2.905  0.7079  0.3235  0.4412
16062TIP3    H269602   3.916   5.539   2.778  0.7550  1.2245 -0.1227
16063TIP3   OH269603   0.560   1.043  15.955 -0.0718 -0.2228 -0.2696
16063TIP3    H169604   0.587   1.092  16.033  2.4930 -2.1848  0.1434
16063TIP3    H269605   0.500   0.976  15.989  0.8840 -0.9471  0.0258
16064TIP3   OH269606   0.542   3.405  14.206  0.5265 -0.2370 -0.4194
16064TIP3    H169607   0.537   3.339  14.137  0.9963  0.0184 -0.6948
16064TIP3    H269608   0.469   3.383  14.265  1.3914 -1.7354  0.1310
16065TIP3   OH269609   5.163   5.802   1.371  0.2625 -0.2087 -0.1290
16065TIP3    H169610   5.070   5.819   1.384  0.2059 -0.3597 -0.3386
16065TIP3    H269611   5.203   5.889   1.369  0.0072 -0.1127 -0.9385
16066TIP3   OH269612   3.379   3.538   4.429 -0.3634  0.2347  0.6981
16066TIP3    H169613   3.357   3.471   4.494 -0.2945 -1.8367 -1.3307
16066TIP3    H269614   3.474   3.534   4.422 -0.3926  0.2429  0.2849
16067TIP3   OH269615   5.410   3.932   2.604  0.1215  0.1159 -0.1602
16067TIP3    H169616   5.493   3.930   2.652  0.2384 -0.0909 -0.3668
16067TIP3    H269617   5.404   3.845   2.563  1.1428  1.0562 -2.3869
16068TIP3   OH269618   6.730   2.009   4.706 -0.2163 -0.6847  0.1734
16068TIP3    H169619   6.706   2.028   4.615  1.3136  0.2145 -0.0610
16068TIP3    H269620   6.651   2.031   4.756  0.1001  2.3467 -0.5560
16069TIP3   OH269621   2.209   5.880  10.869  0.2229 -0.2069  0.6593
16069TIP3    H169622   2.207   5.971  10.900  1.4443 -0.2073  0.7799
16069TIP3    H269623   2.135   5.838  10.911 -0.5082  0.8019  0.3980
16070TIP3   OH269624   4.658   5.746  13.599 -0.1372 -0.6177  0.3070
16070TIP3    H169625   4.655   5.841  13.610  0.0515 -0.7502  1.6721
16070TIP3    H269626   4.577   5.724  13.555 -0.0594  0.2101 -0.2525
16071TIP3   OH269627   3.963   4.325  16.950 -0.3560 -0.1745 -0.3350
16071TIP3    H169628   3.988   4.323  17.043  0.0263 -0.9127 -0.4430
16071TIP3    H269629   3.872   4.297  16.949 -0.2640 -0.4944 -0.2019
16072TIP3   OH269630   0.576   2.697  15.138 -0.1296 -0.0539  0.0598
16072TIP3    H169631   0.597   2.663  15.225  0.9563  0.3648 -0.0300
16072TIP3    H269632   0.565   2.619  15.083 -2.1520 -0.3605  0.8523
16073TIP3   OH269633   0.357   5.071  14.014  0.0673  0.7516  0.1309
16073TIP3    H169634   0.327   5.041  13.928 -1.7330 -1.8322  1.5929
16073TIP3    H269635   0.444   5.030  14.024  0.9346  2.2558 -1.0332
16074TIP3   OH269636   1.437   1.818  13.589  0.4213  0.6781 -0.9239
16074TIP3    H169637   1.492   1.767  13.647 -1.3278  2.3463  2.3373
16074TIP3    H269638   1.354   1.771  13.586 -0.0595  1.4805 -0.6438
16075TIP3   OH269639   5.558   2.099   2.279 -0.0566  0.4854 -0.2671
16075TIP3    H169640   5.493   2.055   2.224 -1.1761 -0.2758  1.6079
16075TIP3    H269641   5.528   2.083   2.369  2.7503  0.0741  0.6478
16076TIP3   OH269642   6.691   1.809   1.283  0.4329  0.4159  0.4320
16076TIP3    H169643   6.738   1.812   1.366  0.4887  0.1094  0.4131
16076TIP3    H269644   6.630   1.882   1.287  0.7117  0.6419  0.5759
16077TIP3   OH269645   4.074   0.002   1.341  0.3450 -0.4163  0.6284
16077TIP3    H169646   4.000  -0.028   1.288  1.7714 -2.4973 -0.2448
16077TIP3    H269647   4.074   0.097   1.331 -4.1012 -0.0085  3.1789
16078TIP3   OH269648   1.045   5.736  15.158  0.3559  0.5175  0.2644
16078TIP3    H169649   0.951   5.757  15.151  0.8120  2.3547 -0.8005
16078TIP3    H269650   1.055   5.655  15.108 -0.7409 -0.0060  0.8520
16079TIP3   OH269651   4.958   0.263   2.041  0.4625 -0.1169 -0.1764
16079TIP3    H169652   4.953   0.275   1.946 -0.3910  1.6825  0.0736
16079TIP3    H269653   4.875   0.223   2.065 -0.7932  2.5643  0.2031
16080TIP3   OH269654   3.613   2.965   2.864  0.4501  0.0367  0.4135
16080TIP3    H169655   3.687   2.926   2.910  0.8386  0.5308  0.2179
16080TIP3    H269656   3.575   2.893   2.814 -1.1458 -0.9545  2.9561
16081TIP3   OH269657   2.773   2.661   0.474  0.1684  0.4697 -0.2354
16081TIP3    H169658   2.738   2.616   0.551  1.1320 -0.1095 -0.1276
16081TIP3    H269659   2.799   2.591   0.414  2.1572  0.8396  0.1542
16082TIP3   OH269660   5.731   5.231  12.992  0.0216  0.0525 -0.6816
16082TIP3    H169661   5.692   5.318  12.989  0.1421  0.1023 -0.8296
16082TIP3    H269662   5.804   5.235  12.930  1.2309  0.4270  0.7458
16083TIP3   OH269663   3.912   0.758  12.851 -0.0415  0.0248  0.4523
16083TIP3    H169664   3.834   0.808  12.828 -1.6629 -1.7060  2.0694
16083TIP3    H269665   3.936   0.714  12.769 -2.7399 -2.0326  0.6986
16084TIP3   OH269666   0.715   3.994  11.588 -0.6530  0.3643 -0.0764
16084TIP3    H169667   0.641   4.055  11.585  0.1803  1.3910  0.0927
16084TIP3    H269668   0.711   3.955  11.675 -0.5412  1.0073  0.2230
16085TIP3   OH269669   2.886   3.222  15.016  0.5084 -0.3598 -0.3973
16085TIP3    H169670   2.866   3.313  15.036  1.1103 -0.1085 -0.9132
16085TIP3    H269671   2.921   3.186  15.098  1.9865  0.3776 -0.6829
16086TIP3   OH269672   0.307   6.681  12.029 -0.0565 -0.2978 -0.0321
16086TIP3    H169673   0.385   6.668  12.082  0.1956 -0.6895 -0.4947
16086TIP3    H269674   0.235   6.687  12.092  0.4024  0.5414  0.4223
16087TIP3   OH269675   2.912   4.758  16.303  0.1373  0.0814 -0.1490
16087TIP3    H169676   2.877   4.763  16.392 -0.6602 -0.2664 -0.4403
16087TIP3    H269677   2.864   4.826  16.255 -0.4865 -0.7186 -0.6666
16088TIP3   OH269678   5.252   0.880   2.473  0.0124 -0.2929 -0.0112
16088TIP3    H169679   5.230   0.790   2.450  0.3340 -0.2530 -0.4789
16088TIP3    H269680   5.226   0.931   2.397  1.6360 -0.2331 -0.5524
16089TIP3   OH269681   3.300   3.378  11.814 -0.3589  0.4539  0.1469
16089TIP3    H169682   3.252   3.298  11.836 -0.6270 -0.0633 -2.2132
16089TIP3    H269683   3.330   3.365  11.724  2.4467  1.6389  0.8379
16090TIP3   OH269684   6.450   2.479   3.343  0.4891 -0.6717 -0.5292
16090TIP3    H169685   6.417   2.500   3.431  1.1256 -0.6396 -0.2983
16090TIP3    H269686   6.387   2.519   3.283 -0.3485 -1.3134 -0.0854
16091TIP3   OH269687   2.010   5.731   4.331 -0.2488  0.4474 -0.2126
16091TIP3    H169688   2.006   5.779   4.414  1.2440  0.8332 -0.3565
16091TIP3    H269689   1.929   5.754   4.286 -0.7317  0.8086  0.8135
16092TIP3   OH269690   3.875   5.647  15.954  0.2304  0.6826 -0.0194
16092TIP3    H169691   3.801   5.706  15.965  0.0715  0.8008 -1.5458
16092TIP3    H269692   3.836   5.564  15.927  0.6797  0.9989 -1.7239
16093TIP3   OH269693   4.094   5.622  13.812 -0.0031 -0.0757 -0.4084
16093TIP3    H169694   4.014   5.671  13.792  0.9922  0.6013 -2.9149
16093TIP3    H269695   4.132   5.667  13.887 -0.3178  1.5817 -1.2226
16094TIP3   OH269696   6.213   5.328  14.180  0.0694 -0.4981 -0.3989
16094TIP3    H169697   6.222   5.279  14.099  1.6208 -3.5288  1.5229
16094TIP3    H269698   6.301   5.327  14.219 -1.0308 -0.7859  2.2195
16095TIP3   OH269699   6.318   1.688   4.832 -0.1846 -0.2174 -0.3660
16095TIP3    H169700   6.249   1.676   4.898 -0.7099 -0.0585 -0.8887
16095TIP3    H269701   6.381   1.618   4.851 -0.6202 -0.5296 -0.0543
16096TIP3   OH269702   0.322   0.746  11.556 -0.0815  0.4424 -0.3182
16096TIP3    H169703   0.357   0.793  11.479 -1.5980  0.9032 -0.7339
16096TIP3    H269704   0.245   0.796  11.582 -2.6701 -2.6369 -1.7073
16097TIP3   OH269705   3.720   3.818  11.280 -0.1593 -0.2932  0.2802
16097TIP3    H169706   3.635   3.783  11.251 -0.4681  2.0473 -1.8723
16097TIP3    H269707   3.762   3.745  11.325 -2.5523 -2.0686 -0.2400
16098TIP3   OH269708   2.310   6.118   2.880  0.3717  0.3844 -0.1856
16098TIP3    H169709   2.230   6.156   2.919  1.0200  1.0695  0.4907
16098TIP3    H269710   2.360   6.086   2.955  0.9258  0.3231 -0.5789
16099TIP3   OH269711   3.433   3.340   5.035 -0.6254 -0.7249 -0.4161
16099TIP3    H169712   3.467   3.341   4.946  3.3694  2.0072  0.9882
16099TIP3    H269713   3.374   3.416   5.039 -1.1198 -1.0820 -0.8022
16100TIP3   OH269714   6.065   2.740   2.526 -0.4288 -0.0043 -0.0694
16100TIP3    H169715   6.097   2.668   2.472 -0.2994  1.1118 -1.5090
16100TIP3    H269716   6.022   2.697   2.599 -0.4772 -1.5470 -0.9705
16101TIP3   OH269717   5.130   4.046  14.077  0.5067 -0.0867  0.2158
16101TIP3    H169718   5.123   4.063  14.171 -1.7108  0.6482 -0.0518
16101TIP3    H269719   5.093   4.124  14.035  0.4800 -0.8596 -1.2386
16102TIP3   OH269720   5.484   1.879   4.583 -0.7113 -0.0668  0.0820
16102TIP3    H169721   5.543   1.853   4.654 -0.1221  0.6198 -0.1533
16102TIP3    H269722   5.408   1.917   4.628 -1.3367 -1.6550  0.4119
16103TIP3   OH269723   0.608   0.568   1.878  0.4188  0.1543 -0.0097
16103TIP3    H169724   0.559   0.639   1.920  0.1690  0.8134 -1.3763
16103TIP3    H269725   0.636   0.605   1.794  0.5414 -1.2686 -0.6116
16104TIP3   OH269726   6.099   3.012   1.174  0.3257  1.1469  0.6315
16104TIP3    H169727   6.108   3.050   1.261 -1.3746  2.5075  0.2316
16104TIP3    H269728   6.008   3.028   1.149  0.8490  1.0187 -1.4993
16105TIP3   OH269729   1.518   5.810  12.947 -0.0944  0.0695 -0.5908
16105TIP3    H169730   1.553   5.854  13.025  1.0001 -1.7721 -0.0293
16105TIP3    H269731   1.474   5.880  12.899  1.4433  1.7585  0.3798
16106TIP3   OH269732   4.633   5.581   0.715  0.2605 -0.5073 -0.4601
16106TIP3    H169733   4.547   5.565   0.676  1.7675 -3.6431 -2.6919
16106TIP3    H269734   4.694   5.578   0.641  2.1303  3.9862  0.7177
16107TIP3   OH269735   2.414   4.101   1.181  0.3638 -0.0401 -0.7388
16107TIP3    H169736   2.443   4.150   1.258  2.5198 -1.8454 -0.3596
16107TIP3    H269737   2.415   4.165   1.110 -1.3778  1.5732  0.6579
16108TIP3   OH269738   5.955   6.630   4.119 -0.2759 -0.2017  0.0266
16108TIP3    H169739   5.969   6.557   4.180 -0.6876 -2.1586 -2.1379
16108TIP3    H269740   6.033   6.632   4.065 -0.7902  0.1778 -0.7184
16109TIP3   OH269741   0.366   0.208  11.326 -0.4607  0.1110  0.5541
16109TIP3    H169742   0.310   0.218  11.249 -1.3281 -1.1215  1.0065
16109TIP3    H269743   0.370   0.296  11.364  0.3425  0.8285 -1.1243
16110TIP3   OH269744   4.595   2.766   5.757 -0.6113 -0.5543 -0.0131
16110TIP3    H169745   4.565   2.845   5.802  0.5677  0.5435 -1.1295
16110TIP3    H269746   4.600   2.700   5.826 -4.3096 -0.4361  0.4469
16111TIP3   OH269747   3.814   5.896  13.542  0.1563  0.3134  0.3122
16111TIP3    H169748   3.871   5.970  13.559 -0.4766  0.6585  0.9462
16111TIP3    H269749   3.859   5.821  13.580  1.1361  0.2378 -0.9464
16112TIP3   OH269750   1.318   1.506   3.669 -0.6552  0.0770  0.1974
16112TIP3    H169751   1.346   1.431   3.617 -0.9138  0.1439 -0.0358
16112TIP3    H269752   1.331   1.478   3.760 -0.8351 -0.2799  0.1138
16113TIP3   OH269753   0.769   1.496   3.480  0.5928 -0.0306  0.5315
16113TIP3    H169754   0.806   1.584   3.478  1.3728 -0.2468  3.4737
16113TIP3    H269755   0.811   1.453   3.555 -0.9312 -2.3828  0.1094
16114TIP3   OH269756   2.339   1.175  14.229  0.2805 -0.1144  0.5825
16114TIP3    H169757   2.393   1.160  14.306  0.9605 -1.2321 -0.0901
16114TIP3    H269758   2.399   1.216  14.166 -0.4157  1.3131  0.8407
16115TIP3   OH269759   0.025   2.931  16.030 -1.0196  0.0666 -0.2778
16115TIP3    H169760  -0.017   3.017  16.032 -2.9892 -0.9065  0.6796
16115TIP3    H269761  -0.034   2.873  16.079  1.6348 -1.2375  1.5394
16116TIP3   OH269762   2.291   6.511   3.443  0.0047 -0.2942 -0.3287
16116TIP3    H169763   2.285   6.523   3.538  2.2617  0.0885 -0.2156
16116TIP3    H269764   2.337   6.428   3.433  2.6915  1.2272 -1.0495
16117TIP3   OH269765   0.597   4.082  13.465 -0.1851 -0.3255  0.2759
16117TIP3    H169766   0.630   4.134  13.539 -0.4747  0.6421 -0.2616
16117TIP3    H269767   0.627   4.129  13.387  0.7386 -1.7391 -0.2347
16118TIP3   OH269768   6.758   2.676   0.330 -0.2828 -0.1892 -0.1417
16118TIP3    H169769   6.811   2.657   0.253  0.2574  0.3698  0.0901
16118TIP3    H269770   6.679   2.622   0.319 -0.3685  0.1477 -1.2450
16119TIP3   OH269771   1.694   5.822   4.866 -0.1856 -0.1837 -0.2365
16119TIP3    H169772   1.631   5.750   4.878 -1.8946  1.1641 -0.8491
16119TIP3    H269773   1.646   5.900   4.893  2.0510  0.6072  1.5671
16120TIP3   OH269774   1.981   3.586   0.346 -0.0345 -0.1265  0.3447
16120TIP3    H169775   2.056   3.547   0.391 -0.4167 -1.3235 -0.0503
16120TIP3    H269776   1.924   3.512   0.325 -0.2930  0.5190 -1.2935
16121TIP3   OH269777   1.111   3.743  13.656  0.5474  0.4046  0.4419
16121TIP3    H169778   1.194   3.775  13.692 -0.1585 -0.9893  3.3838
16121TIP3    H269779   1.066   3.704  13.730 -1.7592 -0.9349 -1.6125
16122TIP3   OH269780   3.299   5.857   4.024 -0.2653 -0.5674  0.2959
16122TIP3    H169781   3.368   5.880   4.087  0.1524  0.9554 -0.6703
16122TIP3    H269782   3.339   5.791   3.968  2.2820  3.6735 -3.3023
16123TIP3   OH269783   3.027   6.030   0.749 -1.0671  0.4638  0.6157
16123TIP3    H169784   2.939   6.014   0.716 -1.1140  0.6603  0.6453
16123TIP3    H269785   3.041   5.963   0.816 -1.0014  0.1101  0.2491
16124TIP3   OH269786   3.379   0.914  16.795  0.0861  0.3876 -0.6524
16124TIP3    H169787   3.351   0.893  16.706  0.4055  2.0094 -1.1515
16124TIP3    H269788   3.386   1.010  16.796  1.1508  0.3084  0.7944
16125TIP3   OH269789   3.047   4.169   4.340 -0.3342  0.3296  0.0424
16125TIP3    H169790   3.101   4.222   4.399  0.8415 -0.0995 -0.6345
16125TIP3    H269791   3.094   4.086   4.333 -0.2295  0.5338 -1.8661
16126TIP3   OH269792   2.859   3.716  15.966  0.4517 -0.2550 -0.3068
16126TIP3    H169793   2.779   3.739  15.918  0.3130  1.1978  0.6000
16126TIP3    H269794   2.930   3.730  15.903  0.1427  0.1952 -0.5565
16127TIP3   OH269795   4.122   2.430   2.740  0.4970  0.1231  0.1025
16127TIP3    H169796   4.132   2.348   2.692 -1.3758  0.0846 -0.2553
16127TIP3    H269797   4.211   2.456   2.761  1.1378 -1.8647 -0.0140
16128TIP3   OH269798   5.498   2.743  15.378  0.2775 -0.0829  0.3722
16128TIP3    H169799   5.487   2.718  15.286  0.2947  1.1582  0.0206
16128TIP3    H269800   5.485   2.662  15.426  0.6384 -0.8278 -0.7506
16129TIP3   OH269801   3.169   6.253   0.809  0.2847  0.2409 -0.2741
16129TIP3    H169802   3.111   6.181   0.786  0.4491  0.3899 -1.1883
16129TIP3    H269803   3.112   6.330   0.814  0.1950  0.1462  0.1604
16130TIP3   OH269804   1.376   1.313   3.340 -0.0588 -0.4699 -1.0806
16130TIP3    H169805   1.284   1.294   3.361 -0.1808  2.9797  1.9407
16130TIP3    H269806   1.425   1.281   3.415  0.7320  1.6263 -0.6759
16131TIP3   OH269807   1.298   3.649   3.380  0.2790  0.7315  0.2047
16131TIP3    H169808   1.224   3.594   3.407  2.2022 -1.9266  0.2367
16131TIP3    H269809   1.266   3.695   3.302 -0.8936 -1.5525 -0.7054
16132TIP3   OH269810   3.625   1.593  11.819 -0.0497 -0.1114 -0.1999
16132TIP3    H169811   3.689   1.649  11.774 -0.3865  0.6433  0.2666
16132TIP3    H269812   3.564   1.567  11.750 -1.5664  2.4493  0.1329
16133TIP3   OH269813   2.584   3.681   6.926  0.0498  0.1039 -0.1890
16133TIP3    H169814   2.563   3.717   7.012  1.5395 -0.2646  0.3528
16133TIP3    H269815   2.521   3.610   6.914 -1.4958  1.4726 -0.3204
16134TIP3   OH269816   0.358   4.303  16.026 -0.2126  0.2423  0.3594
16134TIP3    H169817   0.328   4.391  16.049  0.7352  0.1560  1.9740
16134TIP3    H269818   0.324   4.289  15.937 -1.1777  1.8545  0.4493
16135TIP3   OH269819   1.792   2.148   2.592  0.4839 -0.0968  0.0631
16135TIP3    H169820   1.807   2.058   2.562  0.1450 -0.2151  0.2386
16135TIP3    H269821   1.802   2.201   2.513 -0.1807 -0.3854 -0.2251
16136TIP3   OH269822   5.024   4.423  15.346 -0.3158  0.4076 -0.5541
16136TIP3    H169823   5.096   4.479  15.375 -0.4415 -0.1355  0.8397
16136TIP3    H269824   4.954   4.484  15.324 -0.5458  0.8103  1.2180
16137TIP3   OH269825   3.558   5.794   0.403 -0.5742  0.7471  0.2639
16137TIP3    H169826   3.580   5.717   0.352  0.3033 -0.6205  2.6523
16137TIP3    H269827   3.621   5.860   0.376  0.0603 -0.0455 -0.2012
16138TIP3   OH269828   6.300   6.729  15.855  0.7029  0.3517  0.4004
16138TIP3    H169829   6.254   6.794  15.908  0.3899  0.9243 -0.5536
16138TIP3    H269830   6.258   6.646  15.876  0.6160  0.5664  1.0808
16139TIP3   OH269831   4.608   3.935   2.641  0.6529 -0.3440 -0.2103
16139TIP3    H169832   4.583   3.941   2.733  1.0932 -0.3995 -0.0875
16139TIP3    H269833   4.552   3.998   2.597  2.1177  1.4428  0.4226
16140TIP3   OH269834   5.214   2.000   1.042 -0.0837  0.0666  0.1433
16140TIP3    H169835   5.285   2.020   0.981  0.5718 -1.3970  0.4112
16140TIP3    H269836   5.258   1.996   1.128 -0.4742 -0.9372  0.2944
16141TIP3   OH269837   5.132   3.554  16.218 -0.5565 -0.1943 -0.7936
16141TIP3    H169838   5.218   3.562  16.258 -0.9047 -0.1563 -0.0441
16141TIP3    H269839   5.134   3.469  16.173 -0.5861 -0.7967  0.3318
16142TIP3   OH269840   1.630   3.050   3.894 -0.3312 -0.1964  0.5004
16142TIP3    H169841   1.635   2.985   3.824 -0.4158 -0.9933  1.2299
16142TIP3    H269842   1.698   3.114   3.872 -0.3581 -0.4432 -0.3104
16143TIP3   OH269843   3.037   4.561   2.965  0.7028  0.3176  0.0321
16143TIP3    H169844   3.102   4.533   2.900  0.9216  0.5030  0.1699
16143TIP3    H269845   3.016   4.482   3.014 -0.7833 -0.2130 -1.4109
16144TIP3   OH269846   6.120   3.852   3.069  0.1791 -0.5121 -0.0524
16144TIP3    H169847   6.060   3.867   2.996  1.4185  0.6892 -0.8546
16144TIP3    H269848   6.196   3.810   3.029  0.8551  0.1287  0.5347
16145TIP3   OH269849   0.502   0.444  13.443 -0.6591 -0.1315 -0.1156
16145TIP3    H169850   0.457   0.474  13.364  0.1494 -0.9568 -0.9001
16145TIP3    H269851   0.489   0.349  13.444  0.4592 -0.2876  0.0332
16146TIP3   OH269852   4.355   1.272  13.773  0.0091 -0.6510 -0.9375
16146TIP3    H169853   4.419   1.343  13.766 -0.9372  0.3116 -0.1632
16146TIP3    H269854   4.280   1.304  13.723 -1.8898  0.6275  2.5157
16147TIP3   OH269855   1.232   0.631   5.363 -0.3088  0.1791  0.8921
16147TIP3    H169856   1.325   0.642   5.344 -0.5100  0.5524  0.0968
16147TIP3    H269857   1.210   0.545   5.328 -0.3825  0.3227  0.5790
16148TIP3   OH269858   1.682   4.225  13.175 -0.1659  0.1562 -0.1726
16148TIP3    H169859   1.732   4.145  13.163  0.0314  0.4804 -1.6402
16148TIP3    H269860   1.592   4.196  13.186 -0.0401 -0.2931 -0.3177
16149TIP3   OH269861   0.260   6.301  16.565  0.0386 -0.4420 -0.3159
16149TIP3    H169862   0.235   6.303  16.473 -0.0843  2.3592 -0.2649
16149TIP3    H269863   0.221   6.380  16.602 -0.1185 -1.6428  2.2193
16150TIP3   OH269864   0.175   0.108  13.503  0.4904  0.1294  0.4422
16150TIP3    H169865   0.260   0.073  13.475 -0.4324 -1.0544 -0.9036
16150TIP3    H269866   0.188   0.203  13.503  1.7880 -0.0310  0.2014
16151TIP3   OH269867   4.654   1.500  12.852 -0.4083 -0.5947  0.0291
16151TIP3    H169868   4.628   1.412  12.878 -1.2764 -1.0459 -2.1931
16151TIP3    H269869   4.599   1.559  12.905 -1.1884 -1.4262  0.1505
16152TIP3   OH269870   3.436   4.604  11.434  0.2070 -0.2690 -0.0594
16152TIP3    H169871   3.461   4.542  11.366 -0.7269 -1.3835  0.6015
16152TIP3    H269872   3.374   4.556  11.489 -1.1314  1.4819  0.0086
16153TIP3   OH269873   2.336   0.064  13.899  0.2818 -0.1397  0.1713
16153TIP3    H169874   2.368   0.059  13.989 -0.6257  0.0058  0.5052
16153TIP3    H269875   2.333  -0.027  13.870  1.3479 -0.1286  0.0094
16154TIP3   OH269876   5.233   5.404  15.647  0.2845 -0.3292 -0.0434
16154TIP3    H169877   5.230   5.380  15.554 -1.8379 -1.1611  0.1918
16154TIP3    H269878   5.153   5.366  15.684  1.1616 -0.1280  2.1642
16155TIP3   OH269879   4.378   0.923  15.038 -0.4267  0.2259 -0.4753
16155TIP3    H169880   4.286   0.920  15.015 -1.2729  1.9915  2.4402
16155TIP3    H269881   4.379   0.936  15.133  2.8019  0.5308 -0.4884
16156TIP3   OH269882   2.577   3.527  11.684  0.1473 -0.3858 -0.0663
16156TIP3    H169883   2.606   3.531  11.774  1.3263 -1.6203 -0.3798
16156TIP3    H269884   2.636   3.586  11.636 -0.5611  0.3737 -0.0175
16157TIP3   OH269885   6.466   0.437   2.281 -0.1925 -0.2463  0.1542
16157TIP3    H169886   6.470   0.433   2.376 -0.3327  0.5679  0.1959
16157TIP3    H269887   6.423   0.520   2.262 -0.5978 -0.6224 -0.6137
16158TIP3   OH269888   4.328   0.155   2.721 -0.2306 -0.1988  0.2577
16158TIP3    H169889   4.383   0.188   2.650 -0.9861  0.8341  0.1330
16158TIP3    H269890   4.254   0.216   2.723 -1.1890 -1.3746  0.6426
16159TIP3   OH269891   3.541   0.333   2.058  0.3609  0.1781 -0.3475
16159TIP3    H169892   3.526   0.271   1.987  0.0110 -0.0777 -0.0569
16159TIP3    H269893   3.624   0.375   2.037  0.9169 -0.8390 -0.2254
16160TIP3   OH269894   5.637   6.179   0.645 -0.3514  0.2404 -0.1581
16160TIP3    H169895   5.605   6.099   0.686  1.4534 -0.7095 -0.5358
16160TIP3    H269896   5.609   6.249   0.705 -0.5443 -0.8261  1.0249
16161TIP3   OH269897   4.432   1.460   5.126 -0.3546 -0.5256  0.0807
16161TIP3    H169898   4.466   1.542   5.092 -0.3738  0.3128  1.9987
16161TIP3    H269899   4.341   1.479   5.147 -0.5858 -1.2788 -0.2214
16162TIP3   OH269900   2.946   4.341  12.806 -0.8615 -0.1680 -0.1648
16162TIP3    H169901   2.999   4.420  12.818 -1.2475 -0.0233  0.6321
16162TIP3    H269902   2.887   4.340  12.882  0.2266 -2.0897  0.6935
16163TIP3   OH269903   2.866   1.292   4.640  0.7128  0.6933 -0.4188
16163TIP3    H169904   2.879   1.383   4.612 -1.5149  2.0428  2.5867
16163TIP3    H269905   2.936   1.277   4.704  0.1181  0.8860  0.2900
16164TIP3   OH269906   1.258   5.808   6.843 -0.1341  0.3052 -0.1019
16164TIP3    H169907   1.313   5.733   6.819 -0.8320 -0.4719  0.7335
16164TIP3    H269908   1.304   5.883   6.806  1.2713 -0.3897  0.1975
16165TIP3   OH269909   5.229   4.934   0.648  0.1792 -0.2047  0.0404
16165TIP3    H169910   5.273   4.853   0.672  0.4197 -0.5071 -1.3967
16165TIP3    H269911   5.282   4.971   0.578  0.7835  1.8488  1.5192
16166TIP3   OH269912   4.917   0.878  16.008  0.2637  0.1785 -0.2069
16166TIP3    H169913   4.997   0.929  16.018  0.9764 -0.8303 -0.6973
16166TIP3    H269914   4.846   0.942  16.015  1.1339  1.1624 -0.3517
16167TIP3   OH269915   6.278   5.223  12.543 -0.3487 -0.5252 -0.2285
16167TIP3    H169916   6.227   5.290  12.497 -2.1023 -0.1254  2.2040
16167TIP3    H269917   6.350   5.272  12.582 -1.5391 -0.0200  1.4128
16168TIP3   OH269918   6.437   5.369  11.457  0.2476 -0.7030 -0.3781
16168TIP3    H169919   6.421   5.295  11.516 -1.4036  0.6865  0.9945
16168TIP3    H269920   6.414   5.336  11.370 -0.2302 -1.8797  0.1851
16169TIP3   OH269921   0.305   5.942  15.692  0.3690  0.3010 -0.9624
16169TIP3    H169922   0.280   5.936  15.784 -0.9881  0.9431 -1.2703
16169TIP3    H269923   0.360   5.865  15.677 -0.3047 -0.4032  0.1146
16170TIP3   OH269924   5.229   5.878  14.423 -0.0091  0.0349 -0.4127
16170TIP3    H169925   5.155   5.842  14.374 -0.0677  1.5037 -1.4213
16170TIP3    H269926   5.297   5.894  14.357  0.7124 -0.0173  0.3053
16171TIP3   OH269927   6.091   5.623  14.684 -0.6517 -0.2740 -0.0607
16171TIP3    H169928   5.998   5.601  14.677 -1.2588  2.0907  0.2195
16171TIP3    H269929   6.096   5.685  14.757  1.0700  0.0335 -0.4190
16172TIP3   OH269930   5.440   4.879  11.496  0.5018  0.1925 -0.2093
16172TIP3    H169931   5.448   4.852  11.588  1.2584 -0.8594 -0.5753
16172TIP3    H269932   5.362   4.935  11.495  0.2129 -0.1595  0.9847
16173TIP3   OH269933   2.938   3.117  12.201  0.3169  0.1357  0.1288
16173TIP3    H169934   2.864   3.158  12.156 -0.2312 -1.8945 -0.9025
16173TIP3    H269935   2.916   3.024  12.202  2.0562 -0.2801  1.3788
16174TIP3   OH269936   3.730   2.010   0.918  0.3354 -0.3333 -0.0820
16174TIP3    H169937   3.717   2.098   0.952 -1.1070 -0.5990  0.1167
16174TIP3    H269938   3.825   1.999   0.913  0.5289  1.3129 -0.3551
16175TIP3   OH269939   3.557   1.109  15.715  0.5934 -0.4992  0.1787
16175TIP3    H169940   3.502   1.166  15.768 -0.4661 -1.6531  0.3471
16175TIP3    H269941   3.620   1.168  15.673  0.1566  0.6545  1.1271
16176TIP3   OH269942   0.868   0.970   5.819  0.6146  0.1238 -0.0095
16176TIP3    H169943   0.822   1.054   5.824  3.6886  2.0239 -1.7487
16176TIP3    H269944   0.893   0.962   5.727  1.1603 -2.2730  0.3229
16177TIP3   OH269945   0.366   1.650  10.382 -0.0940 -0.1129 -0.3063
16177TIP3    H169946   0.328   1.605  10.457 -1.0651 -0.2073 -0.8436
16177TIP3    H269947   0.423   1.717  10.420 -0.4111 -0.3036  0.5103
16178TIP3   OH269948   0.523   6.782  14.114  0.2580 -0.1701  0.3392
16178TIP3    H169949   0.552   6.699  14.076  1.3137  1.3939 -2.4462
16178TIP3    H269950   0.596   6.810  14.169  1.3181  0.4343 -1.2999
16179TIP3   OH269951   6.189   0.500  16.423 -0.4675  0.0554 -0.1370
16179TIP3    H169952   6.281   0.486  16.398 -0.5038 -2.0415  0.8062
16179TIP3    H269953   6.159   0.570  16.365  0.7989 -1.4194 -2.6730
16180TIP3   OH269954   2.349   0.992  16.553 -0.7862  0.8492  0.2635
16180TIP3    H169955   2.315   1.081  16.543 -0.2090  1.0271 -0.1006
16180TIP3    H269956   2.354   0.979  16.647 -1.4109  0.9952  0.3201
16181TIP3   OH269957   1.362   0.476   3.641 -0.4241  0.7660  0.8187
16181TIP3    H169958   1.453   0.473   3.610 -1.3613  0.6980 -2.0780
16181TIP3    H269959   1.349   0.566   3.670  0.0279  1.2854 -0.5474
16182TIP3   OH269960   2.793   2.910  12.927 -0.9095  0.6659 -0.1462
16182TIP3    H169961   2.761   2.820  12.930  1.7743 -0.3263  0.4661
16182TIP3    H269962   2.853   2.911  12.852 -1.0045  1.9819 -0.2113
16183TIP3   OH269963   0.780   0.107   3.244  0.0338  0.5667  0.2109
16183TIP3    H169964   0.739   0.022   3.260 -0.7986  0.7442 -0.9338
16183TIP3    H269965   0.716   0.155   3.191  0.1946  2.1610  1.4005
16184TIP3   OH269966   5.385   2.225  15.571  0.0268 -0.1061  0.1682
16184TIP3    H169967   5.446   2.253  15.502  2.1117 -0.3622  1.8434
16184TIP3    H269968   5.441   2.211  15.648 -1.8223 -2.7635  1.0912
16185TIP3   OH269969   5.009   5.314  12.633 -0.1427 -0.5536 -0.4811
16185TIP3    H169970   5.050   5.228  12.632  1.5274  0.2255 -0.3027
16185TIP3    H269971   5.029   5.351  12.547  2.9364  1.3783  0.9902
16186TIP3   OH269972   5.824   4.750  16.448 -0.5731 -0.1363 -0.2045
16186TIP3    H169973   5.849   4.839  16.420 -1.8988 -0.1455 -1.5043
16186TIP3    H269974   5.898   4.720  16.501  0.5264  1.2079 -0.9293
16187TIP3   OH269975   6.358   6.505   0.201  0.2302  0.8268 -0.1497
16187TIP3    H169976   6.303   6.471   0.271 -2.3574 -0.7266 -2.7967
16187TIP3    H269977   6.440   6.456   0.209 -0.5987 -0.4422  0.8638
16188TIP3   OH269978   0.405   2.872  11.685 -0.3425 -0.0123  0.0740
16188TIP3    H169979   0.451   2.943  11.640  0.5374  0.8904  2.3311
16188TIP3    H269980   0.325   2.913  11.719 -0.9556 -0.6697 -0.5457
16189TIP3   OH269981   6.533   4.542  16.196 -0.2292 -0.1715  0.3196
16189TIP3    H169982   6.556   4.454  16.166 -1.3536 -0.3750  0.0431
16189TIP3    H269983   6.594   4.600  16.150 -0.1373 -0.7160 -0.2488
16190TIP3   OH269984   3.082   3.378   2.131  0.3373  0.6333  0.4414
16190TIP3    H169985   3.120   3.452   2.082 -0.5074  0.6770 -0.1610
16190TIP3    H269986   3.052   3.416   2.213  2.3717  0.4375  1.3175
16191TIP3   OH269987   5.877   2.240   5.987  0.0990  0.4817 -0.0568
16191TIP3    H169988   5.841   2.177   5.925 -0.2219  2.5918 -2.1031
16191TIP3    H269989   5.805   2.258   6.047  0.7563 -2.4179  1.6509
16192TIP3   OH269990   0.678   5.649   2.689 -0.1035  0.5198 -0.0794
16192TIP3    H169991   0.718   5.562   2.695 -0.8252  0.2761  1.5657
16192TIP3    H269992   0.727   5.693   2.620  0.9702 -0.8352 -0.2171
16193TIP3   OH269993   4.775   6.269  14.809  0.1219 -0.2294 -0.5323
16193TIP3    H169994   4.808   6.212  14.878  0.4603  2.2554  1.4571
16193TIP3    H269995   4.841   6.265  14.740  1.5648 -0.0154  0.8269
16194TIP3   OH269996   1.826   3.419   0.952 -0.3600 -0.3129  0.0042
16194TIP3    H169997   1.749   3.471   0.930  1.2521  1.5146 -1.4225
16194TIP3    H269998   1.831   3.422   1.047 -0.4451  1.9182 -0.0449
16195TIP3   OH269999   3.792   6.464   0.201  0.3938  0.0959  0.3420
16195TIP3    H170000   3.802   6.545   0.251  1.2609  0.3544 -0.2388
16195TIP3    H270001   3.868   6.411   0.225 -0.3553 -0.7079  0.9967
16196TIP3   OH270002   3.359   6.401   0.550 -0.1711  0.4200  0.0902
16196TIP3    H170003   3.302   6.358   0.486  0.2503  0.1407 -0.1000
16196TIP3    H270004   3.405   6.468   0.499  0.6404 -0.2268 -0.0481
16197TIP3   OH270005   4.377   0.723  14.807  0.3043 -0.0893 -0.2627
16197TIP3    H170006   4.334   0.719  14.722 -2.2341  1.0015  0.8888
16197TIP3    H270007   4.408   0.814  14.813  2.0174 -0.6286 -0.7088
16198TIP3   OH270008   2.110   6.203  13.864 -0.2265 -0.5290  0.0683
16198TIP3    H170009   2.135   6.145  13.935  0.5420 -2.6416 -1.8572
16198TIP3    H270010   2.016   6.217  13.875 -0.6510 -3.0901 -0.0861
16199TIP3   OH270011   4.939   5.450  11.810 -0.0940 -0.4397 -0.3921
16199TIP3    H170012   4.989   5.392  11.752  0.7012  0.7341 -0.8929
16199TIP3    H270013   4.859   5.470  11.762 -0.4736 -1.2774 -0.1275
16200TIP3   OH270014   0.293   0.581  12.557  0.3567  0.0145 -0.2056
16200TIP3    H170015   0.222   0.583  12.620  0.0360  0.1566 -0.5703
16200TIP3    H270016   0.348   0.508  12.586  0.5732  0.4981  0.6215
16201TIP3   OH270017   4.458   1.487  14.251  0.1405 -0.3248 -0.3295
16201TIP3    H170018   4.414   1.453  14.173 -1.0744  1.6256 -0.5324
16201TIP3    H270019   4.503   1.566  14.220  0.3124  0.0152  0.7787
16202TIP3   OH270020   6.148   0.133  11.118 -0.2395  0.2337 -0.7739
16202TIP3    H170021   6.227   0.113  11.068 -0.9744  0.8596 -2.2288
16202TIP3    H270022   6.100   0.195  11.063 -0.8846  1.2717  0.9171
16203TIP3   OH270023   6.611   1.344  14.516  0.1332  0.4244  0.4887
16203TIP3    H170024   6.679   1.289  14.478 -1.4593  0.2182 -2.1759
16203TIP3    H270025   6.592   1.303  14.601  1.4857 -1.0331  0.1040
16204TIP3   OH270026   1.580   3.772  14.610  0.1726  0.5182 -0.0750
16204TIP3    H170027   1.635   3.796  14.535 -2.0690  1.7746 -1.3613
16204TIP3    H270028   1.519   3.707  14.575 -0.3187  0.4593  0.8860
16205TIP3   OH270029   0.925   0.157   5.701 -0.3282  0.0739  0.1569
16205TIP3    H170030   0.984   0.125   5.770 -1.8215  0.5516  1.6948
16205TIP3    H270031   0.912   0.249   5.721  0.6273  0.6649 -1.8311
16206TIP3   OH270032   4.527   2.813  14.192  0.4925  0.1254  0.2707
16206TIP3    H170033   4.601   2.753  14.191 -0.1245 -0.6432  0.4191
16206TIP3    H270034   4.504   2.822  14.285  0.4790  0.4559  0.2367
16207TIP3   OH270035   0.410   2.763   2.765 -0.1078  0.4194 -0.0332
16207TIP3    H170036   0.490   2.717   2.791 -1.3034 -1.9518 -0.3993
16207TIP3    H270037   0.430   2.856   2.777  2.5850 -0.1555  0.1659
16208TIP3   OH270038   0.895   1.248   0.266  0.3321  0.4679 -0.1146
16208TIP3    H170039   0.973   1.264   0.320 -1.3043  2.4865  1.7441
16208TIP3    H270040   0.915   1.291   0.183  0.7939  1.9093  0.7171
16209TIP3   OH270041   2.288   5.143   5.059  0.1615  0.0446  0.0086
16209TIP3    H170042   2.209   5.133   5.112  1.3065 -2.3163  1.3002
16209TIP3    H270043   2.346   5.199   5.112 -0.1970  0.8732 -0.4620
16210TIP3   OH270044   6.440   5.324  15.939  0.3144 -0.2144  0.1269
16210TIP3    H170045   6.486   5.364  15.865  1.1921 -0.8365  0.3327
16210TIP3    H270046   6.444   5.230  15.922  2.0889 -0.4887  1.8453
16211TIP3   OH270047   2.358   1.894   4.609 -0.2970 -0.3635 -0.2286
16211TIP3    H170048   2.399   1.955   4.670 -0.3190 -1.4490  0.8971
16211TIP3    H270049   2.358   1.810   4.655 -2.3269 -0.7317 -0.8579
16212TIP3   OH270050   5.432   3.027  13.192  0.2213 -0.1815  0.3709
16212TIP3    H170051   5.376   3.054  13.119 -1.3251 -1.3387  1.0950
16212TIP3    H270052   5.392   2.946  13.224  0.9551  0.2422  2.4207
16213TIP3   OH270053   5.823   0.797  15.386  0.4628  0.2187 -0.0193
16213TIP3    H170054   5.875   0.722  15.355 -0.1062  0.4038 -1.4360
16213TIP3    H270055   5.854   0.812  15.475  1.0983 -1.2474  0.0199
16214TIP3   OH270056   0.661   1.921  15.802 -0.3800 -0.8794  0.5911
16214TIP3    H170057   0.738   1.968  15.832 -0.5353 -0.3453  0.1537
16214TIP3    H270058   0.682   1.828  15.817  0.3943 -0.7455  0.3438
16215TIP3   OH270059   0.604   4.298   0.106  0.3960  0.3268  0.5016
16215TIP3    H170060   0.595   4.344   0.022  2.3115  0.0497  0.1360
16215TIP3    H270061   0.692   4.263   0.105 -0.4467 -1.9064  1.5355
16216TIP3   OH270062   5.106   1.899   2.148  0.1806  0.0764  0.5715
16216TIP3    H170063   5.088   1.973   2.206  0.3727 -0.8577  1.8327
16216TIP3    H270064   5.021   1.877   2.110  0.4204  2.1255 -1.2761
16217TIP3   OH270065   3.595   2.184   5.156  0.7726 -0.4851 -0.2521
16217TIP3    H170066   3.635   2.218   5.236 -0.3875  0.7273 -0.1612
16217TIP3    H270067   3.502   2.205   5.166  0.7848  0.7604 -2.4372
16218TIP3   OH270068   1.857   1.185  14.055 -0.5058 -0.4622 -0.4394
16218TIP3    H170069   1.944   1.156  14.081 -0.3715  0.9176  0.7013
16218TIP3    H270070   1.862   1.280  14.056 -2.0756 -0.3632 -0.1790
16219TIP3   OH270071   4.319   3.836  17.224 -0.6065  0.3302  0.7325
16219TIP3    H170072   4.406   3.846  17.186 -1.3504 -0.2845 -1.1957
16219TIP3    H270073   4.334   3.789  17.306  0.7580 -1.0790 -0.2981
16220TIP3   OH270074   5.462   4.937  16.409  0.3816 -0.4289  0.1583
16220TIP3    H170075   5.525   4.910  16.476  0.3033 -2.8010 -0.6705
16220TIP3    H270076   5.456   4.861  16.350 -1.2190  0.7834 -1.2830
16221TIP3   OH270077   0.670   6.349  16.226 -0.0752  0.1898  0.8990
16221TIP3    H170078   0.624   6.431  16.214  0.4911  0.5391  1.1086
16221TIP3    H270079   0.607   6.293  16.273 -1.6373 -0.6001 -2.0344
16222TIP3   OH270080   3.458   1.411   1.697 -0.0026  0.0240 -0.3005
16222TIP3    H170081   3.546   1.382   1.722  0.1248 -0.6806 -1.5509
16222TIP3    H270082   3.407   1.330   1.690 -0.9148  0.4614  0.9525
16223TIP3   OH270083   6.664   5.473   0.860 -0.2094  0.7902 -0.2953
16223TIP3    H170084   6.718   5.408   0.905  1.4567  0.5080 -2.6038
16223TIP3    H270085   6.700   5.557   0.886  1.4688  0.5988 -1.9106
16224TIP3   OH270086   5.578   2.656   6.277 -0.1977 -0.4722  0.0859
16224TIP3    H170087   5.637   2.666   6.202 -1.5898 -1.2421 -1.1508
16224TIP3    H270088   5.589   2.736   6.327  0.8989 -0.0221 -0.8491
16225TIP3   OH270089   2.734   4.798  10.846  0.5479 -0.3025 -0.0456
16225TIP3    H170090   2.656   4.745  10.827 -1.8051  1.3635  4.3348
16225TIP3    H270091   2.729   4.871  10.783  0.4189 -1.8923 -1.9490
16226TIP3   OH270092   3.980   5.824   0.884  0.4818 -0.5081 -0.5415
16226TIP3    H170093   3.902   5.832   0.938  1.5175  1.7098  0.6959
16226TIP3    H270094   3.951   5.774   0.807 -1.9257 -0.4226  0.2713
16227TIP3   OH270095   1.284   6.697  17.183 -0.4679  0.8291 -0.1461
16227TIP3    H170096   1.277   6.654  17.268 -0.7418  0.6784 -0.2436
16227TIP3    H270097   1.252   6.632  17.120  0.6214  0.5976 -0.4683
16228TIP3   OH270098   3.985   0.802   0.882 -0.1772  0.3575  0.2804
16228TIP3    H170099   3.948   0.714   0.869  2.1459 -0.6213 -0.0603
16228TIP3    H270100   3.981   0.842   0.795 -0.0298  0.0872  0.1469
16229TIP3   OH270101   5.713   3.545   5.423  0.1455 -0.6540 -0.9286
16229TIP3    H170102   5.700   3.491   5.345 -0.9308 -2.1138  0.2485
16229TIP3    H270103   5.769   3.493   5.480 -1.8747 -1.0910  0.7203
16230TIP3   OH270104   2.211   2.983  17.059 -0.5491 -0.3655 -0.5131
16230TIP3    H170105   2.147   3.043  17.098  1.0845 -1.0495  3.4735
16230TIP3    H270106   2.295   3.022  17.080  0.4930 -3.0691  0.4497
16231TIP3   OH270107   0.768   1.667   3.797  0.2759 -0.1351  0.1489
16231TIP3    H170108   0.814   1.738   3.753  0.6617 -0.0778  0.6432
16231TIP3    H270109   0.694   1.647   3.739  1.4810 -0.9042 -1.1459
16232TIP3   OH270110   2.618   5.424   1.412  0.0421 -0.5686 -0.2781
16232TIP3    H170111   2.617   5.408   1.318  1.3332 -0.6860 -0.2763
16232TIP3    H270112   2.710   5.421   1.436 -0.0899  1.8111  0.6089
16233TIP3   OH270113   6.328   5.296   2.492  0.1333  0.0443  0.1976
16233TIP3    H170114   6.314   5.361   2.423  0.0215  1.0483  1.1546
16233TIP3    H270115   6.413   5.257   2.472 -0.1153 -0.0048 -0.7698
16234TIP3   OH270116   6.727   0.071   4.693 -0.2761 -0.7591  0.3259
16234TIP3    H170117   6.793   0.008   4.663  1.1398  2.1081 -2.9592
16234TIP3    H270118   6.650   0.052   4.640  0.3213  0.4945 -1.0535
16235TIP3   OH270119   0.073   3.448  16.664 -0.4918 -0.5436 -0.1890
16235TIP3    H170120   0.033   3.369  16.629 -1.1460  0.2997 -1.3650
16235TIP3    H270121   0.004   3.514  16.662 -0.7076 -0.5584  3.1542
16236TIP3   OH270122   6.315   4.890   3.937  0.1849  0.0127  0.3307
16236TIP3    H170123   6.322   4.950   3.862  2.0177 -0.9363 -0.2872
16236TIP3    H270124   6.244   4.830   3.912  0.0423  0.3844 -0.1730
16237TIP3   OH270125   4.419   6.425   2.843 -0.1921 -0.1498  0.4750
16237TIP3    H170126   4.432   6.518   2.859  0.4814  0.0716 -1.1941
16237TIP3    H270127   4.382   6.421   2.755  1.4752 -1.5373 -0.1945
16238TIP3   OH270128   4.525   0.531   3.351 -0.3297  0.4374 -0.2286
16238TIP3    H170129   4.455   0.481   3.310  0.1059 -0.9972  0.7152
16238TIP3    H270130   4.605   0.486   3.323  0.1527  1.4415 -0.4684
16239TIP3   OH270131   2.125   2.803   5.874 -0.6302  0.5506  0.1207
16239TIP3    H170132   2.034   2.802   5.844 -0.0577 -1.4559 -1.6707
16239TIP3    H270133   2.129   2.735   5.941 -0.4950  0.8512  0.4233
16240TIP3   OH270134   4.100   5.845  13.031 -0.5241 -0.2430  0.6566
16240TIP3    H170135   4.168   5.845  12.964 -0.2010  0.7481  0.9805
16240TIP3    H270136   4.036   5.780  13.000 -0.7744  0.7661 -1.0307
16241TIP3   OH270137   2.002   2.481  12.712 -0.7119 -0.0708 -0.4230
16241TIP3    H170138   2.015   2.571  12.682 -0.2974 -0.1482 -0.4690
16241TIP3    H270139   1.907   2.475  12.727 -0.6642  0.5509  0.1538
16242TIP3   OH270140   1.156   4.444   2.523 -0.4229  0.1899  0.2565
16242TIP3    H170141   1.223   4.425   2.588 -1.1479  0.2197  1.0243
16242TIP3    H270142   1.191   4.409   2.441 -0.9978 -2.9666  1.2893
16243TIP3   OH270143   0.862   0.002   2.155 -0.4510 -0.2204  0.2458
16243TIP3    H170144   0.897  -0.081   2.189  0.5786 -1.1999 -2.9699
16243TIP3    H270145   0.935   0.063   2.159 -0.4390 -0.2314  0.2014
16244TIP3   OH270146   1.520   1.577   1.298  0.2147 -0.0687  0.7551
16244TIP3    H170147   1.539   1.670   1.313  0.1084 -0.3155  2.6133
16244TIP3    H270148   1.535   1.536   1.384  0.5308 -1.8138 -0.1235
16245TIP3   OH270149   1.979   1.120  12.079 -0.1292  0.0409  0.0610
16245TIP3    H170150   1.928   1.057  12.028 -0.6259 -0.2568  0.9137
16245TIP3    H270151   1.957   1.101  12.170  1.6586 -0.2277  0.4670
16246TIP3   OH270152   4.939   2.205  11.108 -0.2388  0.2470  0.4781
16246TIP3    H170153   4.986   2.182  11.188 -0.4578  0.6386  0.7177
16246TIP3    H270154   4.985   2.156  11.039 -1.9255 -2.4553  1.2286
16247TIP3   OH270155   6.168   6.009  13.825  0.0556  0.1948  0.0433
16247TIP3    H170156   6.172   6.092  13.873 -0.0100  0.8764 -1.1289
16247TIP3    H270157   6.075   5.985  13.827  0.1529 -0.1278  0.8428
16248TIP3   OH270158   6.156   5.271   2.915 -0.0472  0.6437  0.0031
16248TIP3    H170159   6.222   5.326   2.957 -0.6859  1.9456 -0.6608
16248TIP3    H270160   6.124   5.214   2.985  2.0228 -0.2569  0.2523
16249TIP3   OH270161   5.060   0.436  10.883  0.2538 -0.6923 -0.3003
16249TIP3    H170162   5.113   0.490  10.941 -2.5738  0.8903  0.9022
16249TIP3    H270163   5.062   0.482  10.799  1.3379 -1.0397 -0.4792
16250TIP3   OH270164   3.725   4.322   5.994 -0.2646 -0.8378  0.0988
16250TIP3    H170165   3.765   4.263   5.930 -1.9027 -1.1867 -0.6474
16250TIP3    H270166   3.679   4.264   6.055 -1.4827 -0.3751 -0.3631
16251TIP3   OH270167   1.968   1.143   3.631  0.3976 -0.2526  0.0440
16251TIP3    H170168   1.961   1.122   3.724  0.3073  0.1159  0.1214
16251TIP3    H270169   1.969   1.058   3.587 -2.6731 -0.3832  0.1309
16252TIP3   OH270170   6.676   1.068   4.551  0.0460 -0.0550 -0.6316
16252TIP3    H170171   6.656   0.976   4.534 -0.3670  0.3999 -2.7704
16252TIP3    H270172   6.620   1.091   4.625  0.1175 -1.4987 -0.1092
16253TIP3   OH270173   4.890   3.534  16.332  0.2000  0.0405  0.0289
16253TIP3    H170174   4.977   3.570  16.311 -0.6616  1.1791 -1.7060
16253TIP3    H270175   4.900   3.440  16.317  2.1004 -0.3728  3.3085
16254TIP3   OH270176   1.807   2.935   0.795 -0.3569 -0.2323  0.0067
16254TIP3    H170177   1.795   3.029   0.780  2.2274  0.6089  2.7735
16254TIP3    H270178   1.849   2.903   0.715 -1.7752  0.8252 -1.1911
16255TIP3   OH270179   1.078   4.885   4.917  0.3889 -0.3929  0.0262
16255TIP3    H170180   1.147   4.901   4.852 -2.3071  2.7548 -2.2515
16255TIP3    H270181   1.119   4.901   5.001  2.3915  1.6188 -1.2996
16256TIP3   OH270182   6.538   4.275   5.580 -0.6560  0.0051 -0.0072
16256TIP3    H170183   6.459   4.327   5.566  0.2439  1.4467  0.0710
16256TIP3    H270184   6.584   4.277   5.496  0.8798  1.9763  0.8179
16257TIP3   OH270185   1.191   1.978  13.239  0.5097 -0.0421 -0.3628
16257TIP3    H170186   1.179   1.884  13.246 -1.1934  0.2791  1.1421
16257TIP3    H270187   1.162   2.013  13.323 -1.2451  2.0581 -1.8020
16258TIP3   OH270188   1.124   0.570   4.227  0.3637 -0.2170 -0.0352
16258TIP3    H170189   1.183   0.495   4.213  0.4926 -0.3146  0.9609
16258TIP3    H270190   1.114   0.574   4.322 -0.9623  0.0252 -0.1878
16259TIP3   OH270191   0.244   2.586  13.830 -0.0530 -0.0811 -0.5786
16259TIP3    H170192   0.157   2.625  13.842  0.2503  0.2392  0.6853
16259TIP3    H270193   0.242   2.548  13.742 -1.6898 -0.6030 -0.3342
16260TIP3   OH270194   5.874   0.516  10.967 -0.2996 -0.2066 -0.1239
16260TIP3    H170195   5.957   0.479  10.995 -0.3632  0.5326  1.0706
16260TIP3    H270196   5.818   0.440  10.951 -0.4029 -0.6739  2.2260
16261TIP3   OH270197   5.987   1.247   5.215 -0.7185  0.1109  0.4038
16261TIP3    H170198   5.912   1.301   5.242 -1.0745 -0.8618  1.3859
16261TIP3    H270199   5.980   1.243   5.120 -2.0327 -0.1329  0.5015
16262TIP3   OH270200   5.079   2.406   4.131 -0.0619  0.3898  0.2069
16262TIP3    H170201   5.093   2.351   4.208 -0.4162  1.9426  1.4050
16262TIP3    H270202   5.066   2.494   4.166  1.7617  1.4805 -1.7482
16263TIP3   OH270203   1.551   6.113   0.159 -0.0699  0.0191 -0.6138
16263TIP3    H170204   1.515   6.191   0.201  0.2182 -0.3058  0.2394
16263TIP3    H270205   1.532   6.042   0.220 -1.8632 -0.8823 -2.1764
16264TIP3   OH270206   5.610   6.584   4.653 -0.0259  0.5365 -0.0942
16264TIP3    H170207   5.563   6.575   4.736 -1.8603  2.4567 -0.8819
16264TIP3    H270208   5.667   6.659   4.666  0.5684  0.1112 -0.2019
16265TIP3   OH270209   1.868   5.574   4.823  0.3244 -0.3238  0.5984
16265TIP3    H170210   1.944   5.565   4.764 -0.3441 -2.1038 -0.0172
16265TIP3    H270211   1.855   5.668   4.830  1.6034 -0.0331 -0.5990
16266TIP3   OH270212   6.666   2.893  12.833  0.2922  0.5951 -0.0962
16266TIP3    H170213   6.660   2.989  12.833 -0.7310  0.5566  2.1806
16266TIP3    H270214   6.740   2.874  12.890 -0.0466  0.0009  0.1387
16267TIP3   OH270215   1.439   3.660   2.962  0.2910  0.6243  0.5628
16267TIP3    H170216   1.380   3.585   2.953  1.2203 -0.3537  2.3598
16267TIP3    H270217   1.495   3.656   2.885 -1.6979  1.3099 -0.9410
16268TIP3   OH270218   3.220   2.866   4.607  0.3516 -0.6821  0.1561
16268TIP3    H170219   3.219   2.957   4.637 -1.2207 -0.7339  0.2964
16268TIP3    H270220   3.251   2.871   4.517 -0.8078  0.1238 -0.2056
16269TIP3   OH270221   2.774   1.813  14.922 -0.8244 -0.6477 -0.1035
16269TIP3    H170222   2.857   1.805  14.969 -0.3859 -1.9474 -1.0773
16269TIP3    H270223   2.777   1.744  14.856 -2.2834 -0.1080 -0.7544
16270TIP3   OH270224   2.065   1.980   0.303 -0.0300  0.3336 -0.3660
16270TIP3    H170225   2.058   1.884   0.307 -1.2850  0.2659 -3.1024
16270TIP3    H270226   2.139   1.996   0.245 -0.1672  1.0462 -0.3464
16271TIP3   OH270227   6.471   2.620  13.496 -0.2957  0.5185 -0.0363
16271TIP3    H170228   6.414   2.571  13.555 -0.7224  0.4517 -0.5009
16271TIP3    H270229   6.516   2.683  13.553  1.8040 -1.7345  0.9276
16272TIP3   OH270230   5.493   6.307   4.777  0.3996  0.0371 -0.4504
16272TIP3    H170231   5.484   6.241   4.846 -0.9431 -0.5187 -1.1417
16272TIP3    H270232   5.495   6.390   4.824 -0.3604 -0.3462  0.2768
16273TIP3   OH270233   0.668   1.404  15.738 -0.2387 -0.0800  0.2995
16273TIP3    H170234   0.720   1.416  15.658  1.3007 -2.7202  0.8424
16273TIP3    H270235   0.614   1.328  15.720  0.1015 -0.6756  1.7664
16274TIP3   OH270236   6.438   5.766  11.704 -0.8407 -0.2083 -0.5872
16274TIP3    H170237   6.404   5.699  11.645  0.6389  0.1044 -1.8332
16274TIP3    H270238   6.532   5.770  11.684 -1.0073  2.6753 -0.9786
16275TIP3   OH270239   5.989   5.920  11.502  0.0408 -0.0230  0.2556
16275TIP3    H170240   5.909   5.950  11.461  0.3673  0.2227 -0.2056
16275TIP3    H270241   6.052   5.990  11.487  0.6633 -0.7081 -0.3995
16276TIP3   OH270242   2.167   2.064  11.397 -0.9019  0.1847 -0.7488
16276TIP3    H170243   2.081   2.042  11.361 -0.7881 -0.0344 -0.8857
16276TIP3    H270244   2.215   2.104  11.325 -1.1437  0.9883 -0.4701
16277TIP3   OH270245   2.412   4.681   3.326  0.1188 -0.1654  0.2205
16277TIP3    H170246   2.448   4.620   3.390  1.0034  0.1840  0.0598
16277TIP3    H270247   2.461   4.664   3.246 -0.3231  0.0636 -0.1032
16278TIP3   OH270248   4.957   4.461   4.345  0.6209 -0.1355 -0.6134
16278TIP3    H170249   4.975   4.502   4.261  2.6964  0.9538  0.3297
16278TIP3    H270250   5.042   4.427   4.374  0.1116  0.2792  1.4431
16279TIP3   OH270251   6.674   2.490   2.500  0.0980 -0.0349  0.2424
16279TIP3    H170252   6.746   2.440   2.461  0.4170 -0.6069  1.5412
16279TIP3    H270253   6.625   2.523   2.425  1.3440 -0.1764 -0.6569
16280TIP3   OH270254   6.457   2.292  11.788  0.7521 -0.5434 -0.2288
16280TIP3    H170255   6.377   2.274  11.837 -0.1794 -1.9105 -2.1859
16280TIP3    H270256   6.527   2.257  11.842 -0.1157 -0.7698  0.7662
16281TIP3   OH270257   1.292   6.712  12.127 -0.1535  0.1620 -0.6478
16281TIP3    H170258   1.260   6.755  12.048 -2.3929  0.2167  0.2537
16281TIP3    H270259   1.302   6.783  12.191  1.2830  0.0648 -0.7416
16282TIP3   OH270260   1.336   4.691  13.633 -0.1068  0.5078  0.6415
16282TIP3    H170261   1.293   4.682  13.549  1.6567  0.8761 -0.3283
16282TIP3    H270262   1.360   4.602  13.658 -0.0767  0.4642  0.4539
16283TIP3   OH270263   1.025   4.319  13.452 -0.1033 -0.0083 -0.1624
16283TIP3    H170264   1.101   4.294  13.504 -0.4550 -0.2486  0.2276
16283TIP3    H270265   0.950   4.285  13.499 -0.3141 -1.9389 -1.8147
16284TIP3   OH270266   2.751   6.633   1.375 -0.0498  0.7379 -0.6390
16284TIP3    H170267   2.800   6.562   1.417  1.2743  2.6690  1.2241
16284TIP3    H270268   2.771   6.625   1.282  0.4641 -1.0362 -0.3903
16285TIP3   OH270269   4.603   5.757   3.361 -0.4345 -0.1449  0.5080
16285TIP3    H170270   4.577   5.816   3.431  1.4788 -1.3032  2.2589
16285TIP3    H270271   4.559   5.674   3.381 -1.3385  0.0276 -0.6968
16286TIP3   OH270272   6.051   0.363  16.011 -0.2520  0.0360 -0.1335
16286TIP3    H170273   6.043   0.339  16.104  0.4780  1.1415  0.2117
16286TIP3    H270274   5.961   0.364  15.980 -0.6697  1.6126  1.0600
16287TIP3   OH270275   1.091   2.481  13.574 -0.0588 -0.6655 -0.3652
16287TIP3    H170276   1.011   2.533  13.581  0.9557  1.0125 -0.7769
16287TIP3    H270277   1.126   2.503  13.487  1.5278 -0.3450  0.3363
16288TIP3   OH270278   2.743   4.116   2.188 -0.1473  0.4497 -0.1475
16288TIP3    H170279   2.690   4.048   2.228 -2.3791  0.3936 -2.9670
16288TIP3    H270280   2.708   4.198   2.224  1.0964  0.2008  1.6291
16289TIP3   OH270281   0.306   5.631  16.501 -0.5887 -0.1345 -0.7090
16289TIP3    H170282   0.260   5.672  16.574  0.2365  0.3842 -0.4687
16289TIP3    H270283   0.386   5.596  16.539 -1.3284 -2.0594 -0.9131
16290TIP3   OH270284   0.820   3.823  13.547 -0.3131 -0.7482 -0.3594
16290TIP3    H170285   0.911   3.820  13.576 -0.6046 -2.2473  0.4379
16290TIP3    H270286   0.773   3.862  13.621 -0.4076 -0.4853 -0.5558
16291TIP3   OH270287   3.725   3.455  16.492 -0.1727  0.3344 -0.6250
16291TIP3    H170288   3.722   3.482  16.584 -0.7942 -1.6017 -0.0401
16291TIP3    H270289   3.818   3.453  16.470 -0.1032  2.4896 -0.5685
16292TIP3   OH270290   5.168   2.987   3.823 -0.5784  0.1430  0.6440
16292TIP3    H170291   5.222   2.921   3.778  2.0590  0.4722  3.1753
16292TIP3    H270292   5.190   3.069   3.780  0.2708  0.1377  1.0508
16293TIP3   OH270293   2.640   1.171   0.642 -0.1894  0.1563 -0.0402
16293TIP3    H170294   2.615   1.232   0.712  0.9113  0.2550  0.2687
16293TIP3    H270295   2.733   1.186   0.629  0.2100 -1.8638  0.4108
16294TIP3   OH270296   5.763   1.897   0.960 -0.1420 -0.2758  0.0564
16294TIP3    H170297   5.713   1.832   1.009 -0.2591 -0.0479  0.2372
16294TIP3    H270298   5.710   1.916   0.883 -0.4968  0.2159  0.4156
16295TIP3   OH270299   3.250   5.989  12.478 -0.2397  0.1468 -0.0050
16295TIP3    H170300   3.198   5.952  12.549  1.8409 -1.7888  0.5682
16295TIP3    H270301   3.242   5.926  12.407  0.4170  0.3885 -0.3006
16296TIP3   OH270302   4.495   2.879  14.440  0.1315 -0.3978 -0.1292
16296TIP3    H170303   4.498   2.973  14.457 -1.3000 -0.1916 -0.9428
16296TIP3    H270304   4.496   2.839  14.527  0.6033  0.3662  0.2275
16297TIP3   OH270305   1.206   1.528   0.855 -0.1133  0.4687  0.2088
16297TIP3    H170306   1.233   1.620   0.844  2.8624 -0.1354  1.9115
16297TIP3    H270307   1.203   1.493   0.766  2.4150  1.2729 -0.2380
16298TIP3   OH270308   3.926   4.564   4.070 -0.1505  0.4369  0.3483
16298TIP3    H170309   3.893   4.561   4.160  1.3815 -1.1457  0.8700
16298TIP3    H270310   3.872   4.631   4.028 -1.0489  1.0362  2.3692
16299TIP3   OH270311   3.447   3.065   1.819 -0.1787  0.5731  0.3800
16299TIP3    H170312   3.395   3.135   1.860  0.6763  0.3151  1.9629
16299TIP3    H270313   3.439   3.081   1.725 -0.9372  2.1159  0.6822
16300TIP3   OH270314   2.075   4.489  17.171  0.4662  0.4005 -0.1330
16300TIP3    H170315   2.026   4.424  17.222  1.0037  0.4349  0.4345
16300TIP3    H270316   2.057   4.465  17.080 -1.7183  1.2447  0.0331
16301TIP3   OH270317   1.829   2.678   1.308  0.5683 -0.4429 -0.0772
16301TIP3    H170318   1.914   2.685   1.265  0.1805 -2.1639 -1.1799
16301TIP3    H270319   1.773   2.637   1.242 -0.7475 -0.5940  1.1304
16302TIP3   OH270320   5.219   1.652  11.942  0.2690 -0.0086 -0.5323
16302TIP3    H170321   5.145   1.704  11.974 -0.7077 -0.6081 -1.7669
16302TIP3    H270322   5.185   1.562  11.938  1.8020 -0.7080  1.1885
16303TIP3   OH270323   0.170   2.563  14.388 -0.2111  0.3342 -0.1615
16303TIP3    H170324   0.227   2.496  14.425 -0.9428 -0.5325 -0.5880
16303TIP3    H270325   0.212   2.588  14.306  0.3745  0.8395  0.2851
16304TIP3   OH270326   5.482   4.726   0.029  0.1634 -0.3494  0.7200
16304TIP3    H170327   5.409   4.684   0.074  0.4390 -1.1215  0.4484
16304TIP3    H270328   5.446   4.749  -0.057  0.2148 -0.6385  0.6211
16305TIP3   OH270329   5.983   2.439  13.683 -0.3155 -0.0584  0.6302
16305TIP3    H170330   5.965   2.375  13.614  1.0182 -0.3839  0.5699
16305TIP3    H270331   5.916   2.506  13.671 -0.7762 -0.6662 -0.2862
16306TIP3   OH270332   4.055   3.430   0.290  0.1293 -0.4173  0.1370
16306TIP3    H170333   4.032   3.523   0.283  0.9099 -0.2269 -0.0377
16306TIP3    H270334   4.103   3.423   0.373 -0.4838 -0.7849  0.4590
16307TIP3   OH270335   2.504   1.482  15.778 -0.1590  0.0491  0.6005
16307TIP3    H170336   2.439   1.425  15.819 -1.7762 -0.6167 -2.7297
16307TIP3    H270337   2.459   1.566  15.766  0.6918  0.6096  1.2151
16308TIP3   OH270338   5.941   3.172   5.934  0.1401 -0.0082  0.1636
16308TIP3    H170339   5.989   3.254   5.945 -0.8839  0.5926  0.2691
16308TIP3    H270340   5.941   3.155   5.840 -0.1653  0.4332  0.0843
16309TIP3   OH270341   0.603   0.728  15.850 -0.7453  0.4172  0.1272
16309TIP3    H170342   0.643   0.660  15.904  0.0296 -0.7037 -1.8003
16309TIP3    H270343   0.627   0.810  15.893  0.6622 -0.4056  0.9415
16310TIP3   OH270344   4.135   0.651   3.251  0.4495 -0.4305 -0.2171
16310TIP3    H170345   4.141   0.622   3.159  0.8192  0.5735 -0.5131
16310TIP3    H270346   4.041   0.645   3.271  0.3032 -0.2171 -0.8104
16311TIP3   OH270347   5.649   0.238   1.396 -0.0113  0.1484  0.3202
16311TIP3    H170348   5.741   0.265   1.399  0.3384 -0.2209 -3.8124
16311TIP3    H270349   5.651   0.149   1.362 -1.9099  0.2001  0.0111
16312TIP3   OH270350   4.821   3.955   4.329 -0.3245  0.2073 -0.1533
16312TIP3    H170351   4.786   4.015   4.263 -1.7238  0.4874  0.8463
16312TIP3    H270352   4.763   3.879   4.325  0.3869 -0.3371 -0.1713
16313TIP3   OH270353   1.523   5.691   3.398 -0.3365  0.2436 -0.1074
16313TIP3    H170354   1.529   5.763   3.461  1.4193 -0.1326  0.1827
16313TIP3    H270355   1.614   5.666   3.381 -0.7762  0.0929 -2.5092
16314TIP3   OH270356   0.935   1.535  13.851  0.0021  0.3745 -0.5613
16314TIP3    H170357   0.987   1.606  13.888  0.6430  0.1542 -1.0314
16314TIP3    H270358   0.983   1.455  13.875 -0.8899  0.0769  0.2593
16315TIP3   OH270359   0.014   3.799  13.509 -0.5652 -0.3773  0.0043
16315TIP3    H170360   0.006   3.884  13.466 -1.3306 -0.9004 -0.9060
16315TIP3    H270361  -0.044   3.741  13.459 -0.4461 -1.3124  0.9289
16316TIP3   OH270362   1.840   2.077  12.863  0.0492  0.0862  0.0797
16316TIP3    H170363   1.875   2.000  12.818  2.6081  2.0155 -1.3441
16316TIP3    H270364   1.793   2.125  12.794  2.3222  2.0662 -0.1412
16317TIP3   OH270365   3.674   6.126  14.579  0.0111 -0.3829 -0.1828
16317TIP3    H170366   3.733   6.200  14.595 -0.5393  0.4156 -1.7278
16317TIP3    H270367   3.661   6.086  14.665  1.9935  0.0418  0.3368
16318TIP3   OH270368   1.129   3.708   5.425 -0.3188 -0.2416 -0.2264
16318TIP3    H170369   1.073   3.769   5.377 -0.1330  0.7445  0.8003
16318TIP3    H270370   1.085   3.695   5.508  0.3315 -0.4499  0.0883
16319TIP3   OH270371   1.342   0.153  16.514  0.2122 -0.2230  0.1350
16319TIP3    H170372   1.334   0.235  16.562  0.8567 -0.1484  0.1178
16319TIP3    H270373   1.362   0.088  16.581  0.3301 -0.2551  0.0680
16320TIP3   OH270374   2.836   6.639  14.782 -0.1763  0.2770 -0.1052
16320TIP3    H170375   2.753   6.684  14.797 -0.5628  0.4861 -2.7012
16320TIP3    H270376   2.812   6.554  14.746  0.6946 -0.4451  0.9580
16321TIP3   OH270377   1.242   6.304  16.174 -0.3864 -0.0568 -0.0069
16321TIP3    H170378   1.198   6.223  16.146  0.2199  0.2413 -1.9481
16321TIP3    H270379   1.206   6.323  16.260 -1.1069 -1.9804  0.1419
16322TIP3   OH270380   6.444   0.917   5.280 -0.4324 -0.1441  0.2522
16322TIP3    H170381   6.367   0.970   5.257 -1.1030 -1.4967 -0.6946
16322TIP3    H270382   6.428   0.892   5.371 -0.0932  1.2771  0.7234
16323TIP3   OH270383   5.306   2.417  16.475  0.3474  0.2570 -0.0050
16323TIP3    H170384   5.322   2.421  16.381  1.1461 -1.0380  0.0656
16323TIP3    H270385   5.391   2.394  16.513  0.2742  1.7583  1.1326
16324TIP3   OH270386   5.039   2.257   5.010 -0.7008 -0.3355  0.2825
16324TIP3    H170387   5.089   2.269   5.090  2.0300 -0.0997 -1.4085
16324TIP3    H270388   4.984   2.336   5.004  0.1363  0.3258  1.1838
16325TIP3   OH270389   2.230   5.842   5.738  0.0226  0.1871  0.1733
16325TIP3    H170390   2.201   5.858   5.827 -1.7007  1.3432 -0.5675
16325TIP3    H270391   2.230   5.746   5.729  0.4703  0.0640  1.4810
16326TIP3   OH270392   3.664   6.656   6.292  0.1674  0.6149 -0.4361
16326TIP3    H170393   3.663   6.638   6.386  0.5844  0.1169 -0.5220
16326TIP3    H270394   3.756   6.670   6.272 -0.0418  1.8282 -0.5699
16327TIP3   OH270395   4.987   3.102   0.060  0.0448 -0.4027  0.2058
16327TIP3    H170396   4.904   3.142   0.087 -1.5201 -3.7307  0.5004
16327TIP3    H270397   5.053   3.150   0.110 -1.9494  0.3907  2.2018
16328TIP3   OH270398   0.875   6.722  13.963 -0.0726  0.1119  0.7028
16328TIP3    H170399   0.958   6.690  13.998  0.4671  0.7708  0.0416
16328TIP3    H270400   0.822   6.742  14.041  0.0354 -1.1598  1.1315
16329TIP3   OH270401   0.167   3.649  15.762  0.2728 -0.7291  0.1095
16329TIP3    H170402   0.198   3.720  15.706 -0.5347 -0.2118  0.3138
16329TIP3    H270403   0.135   3.582  15.701 -0.9351 -0.0152 -0.0330
16330TIP3   OH270404   3.210   6.207  16.573  0.1515  0.0034 -0.1224
16330TIP3    H170405   3.145   6.167  16.630 -0.5658  2.7811  1.1103
16330TIP3    H270406   3.290   6.156  16.587 -0.6327 -0.7557  1.6396
16331TIP3   OH270407   0.189   0.548   5.337  0.4701  0.1577  0.2611
16331TIP3    H170408   0.277   0.549   5.374  0.7010  1.0550 -0.2829
16331TIP3    H270409   0.194   0.486   5.264  1.0983  1.3938 -0.7816
16332TIP3   OH270410   3.844   3.036  16.624 -0.1933 -0.1020  0.1750
16332TIP3    H170411   3.888   3.028  16.709 -1.3512  2.3115  1.0384
16332TIP3    H270412   3.867   3.124  16.593 -0.3781 -0.6875 -1.6819
16333TIP3   OH270413   5.484   0.362   2.134 -0.0193 -0.1350 -0.1303
16333TIP3    H170414   5.573   0.327   2.122 -0.1145 -0.2612 -0.4661
16333TIP3    H270415   5.494   0.457   2.124 -0.3039 -0.3200 -2.5012
16334TIP3   OH270416   0.532   4.074  15.656  0.4384 -0.0929 -0.1542
16334TIP3    H170417   0.576   4.158  15.671  0.2020  0.0528 -0.2624
16334TIP3    H270418   0.470   4.067  15.728  0.7457 -0.3674  0.0828
16335TIP3   OH270419   0.104   1.503   3.832  0.8804 -0.1809 -0.0036
16335TIP3    H170420   0.160   1.543   3.765  2.1222 -0.9967  0.5308
16335TIP3    H270421   0.164   1.451   3.885  0.2006  1.7671  2.7824
16336TIP3   OH270422   4.747   5.418  12.449  0.0208  0.2546  0.2506
16336TIP3    H170423   4.796   5.437  12.529 -0.2277 -0.3214  0.5438
16336TIP3    H270424   4.804   5.359  12.400  0.2896  0.8231 -0.1234
16337TIP3   OH270425   0.780   2.192   1.846 -0.1320 -0.3633 -0.0194
16337TIP3    H170426   0.765   2.100   1.867  2.0146 -0.7359 -0.0683
16337TIP3    H270427   0.832   2.190   1.765  2.2890  0.8205  1.4817
16338TIP3   OH270428   2.955   1.297   2.758 -0.0094  0.0118 -0.0474
16338TIP3    H170429   2.905   1.378   2.768  1.5912  0.8787  1.0686
16338TIP3    H270430   3.001   1.286   2.841  0.6570 -1.4530 -0.5933
16339TIP3   OH270431   3.887   2.364  12.850 -0.3984 -0.2778 -0.0346
16339TIP3    H170432   3.896   2.347  12.944 -2.1684 -0.2838  0.1596
16339TIP3    H270433   3.943   2.440  12.835  1.2498 -1.3271  0.6728
16340TIP3   OH270434   1.305   1.201  16.778  0.0786 -0.0854  0.2782
16340TIP3    H170435   1.369   1.170  16.843 -0.8025 -3.3651 -0.3153
16340TIP3    H270436   1.330   1.158  16.697 -1.3146  0.6687 -0.5790
16341TIP3   OH270437   6.153   4.994   1.261 -0.4312 -0.4448 -0.1551
16341TIP3    H170438   6.175   5.002   1.354  1.6998 -3.6853 -0.2883
16341TIP3    H270439   6.171   5.080   1.224 -1.4659  0.9205  2.4669
16342TIP3   OH270440   6.249   2.866  13.438  0.0739  0.0501  0.3103
16342TIP3    H170441   6.263   2.812  13.516 -1.2381  0.3972  0.7985
16342TIP3    H270442   6.154   2.860  13.421  0.1706  0.9055 -0.5811
16343TIP3   OH270443   3.006   3.102   0.517  0.2549 -0.1771 -0.6956
16343TIP3    H170444   2.936   3.038   0.504  0.2228 -0.2610 -0.1507
16343TIP3    H270445   2.970   3.184   0.485 -0.3393 -0.0874  0.1659
16344TIP3   OH270446   4.968   6.309   1.164 -0.2442 -0.1759 -0.4046
16344TIP3    H170447   4.977   6.404   1.173 -1.6816 -0.0586 -0.2171
16344TIP3    H270448   4.967   6.276   1.253 -2.2420 -0.1256 -0.3903
16345TIP3   OH270449   6.716   3.482  12.205  0.1107 -0.0030  0.2903
16345TIP3    H170450   6.668   3.413  12.251 -0.5012  1.5569  2.0576
16345TIP3    H270451   6.800   3.487  12.251  1.6890 -2.1358 -2.2486
16346TIP3   OH270452   1.171   1.743   2.185 -0.4996  0.4121  0.1481
16346TIP3    H170453   1.145   1.724   2.275  1.8616 -2.5019  0.3137
16346TIP3    H270454   1.253   1.792   2.193  1.4140 -2.5837 -0.3420
16347TIP3   OH270455   0.891   4.815   2.770  0.4776  0.0565  0.1397
16347TIP3    H170456   0.872   4.781   2.857 -0.3012 -3.1091 -1.2240
16347TIP3    H270457   0.970   4.768   2.743  1.4983  1.9994 -0.3772
16348TIP3   OH270458   4.155   2.578  11.583 -0.4118 -0.3100  0.6652
16348TIP3    H170459   4.146   2.642  11.653 -1.1841 -1.3783  1.5760
16348TIP3    H270460   4.070   2.580  11.537 -0.1722 -0.1468  0.2256
16349TIP3   OH270461   2.256   0.197  11.639  0.2472  0.0996  0.0285
16349TIP3    H170462   2.264   0.289  11.614 -0.2671  0.7750  2.2350
16349TIP3    H270463   2.262   0.197  11.735  0.8407 -2.2310  0.0313
16350TIP3   OH270464   4.392   3.054   2.889  0.4171 -0.2442  0.2668
16350TIP3    H170465   4.410   3.054   2.794 -1.9878 -1.2382 -0.2113
16350TIP3    H270466   4.479   3.053   2.929  1.4664 -1.5550 -1.9446
16351TIP3   OH270467   6.760   0.361  16.483 -0.3525 -0.0785  0.6699
16351TIP3    H170468   6.754   0.391  16.393  0.6832 -0.5774  0.4225
16351TIP3    H270469   6.686   0.403  16.528 -0.3828  0.8280 -0.2144
16352TIP3   OH270470   0.372   0.657  11.813  0.5369  1.0714  0.2324
16352TIP3    H170471   0.340   0.697  11.732  1.5347 -0.4761 -0.9585
16352TIP3    H270472   0.440   0.716  11.844 -0.0182  1.7990  0.0663
16353TIP3   OH270473   2.162   6.383   4.140  0.1446  0.3095  0.0566
16353TIP3    H170474   2.167   6.464   4.090  0.1444 -0.4185 -1.1346
16353TIP3    H270475   2.228   6.327   4.101 -0.8288 -0.7731 -0.0549
16354TIP3   OH270476   1.466   4.954  15.185 -0.2196 -0.3202  0.1068
16354TIP3    H170477   1.559   4.975  15.184 -0.0282 -1.1855 -0.8256
16354TIP3    H270478   1.425   5.030  15.226  0.7983  0.4592 -0.2977
16355TIP3   OH270479   3.176   5.972  17.234  0.3247 -0.1345  0.4735
16355TIP3    H170480   3.108   6.039  17.240  1.8376  1.3888  0.8244
16355TIP3    H270481   3.154   5.910  17.303 -0.2598  0.7510  1.0896
16356TIP3   OH270482   5.765   3.012  14.314 -0.3316 -0.3435 -0.5787
16356TIP3    H170483   5.672   3.026  14.298 -0.1343 -0.0416 -1.5270
16356TIP3    H270484   5.807   3.093  14.285  0.0797  0.1711  1.3814
16357TIP3   OH270485   1.223   2.979   3.819 -0.0550 -0.2972  0.2171
16357TIP3    H170486   1.132   2.968   3.846  0.2966 -1.3245  1.0219
16357TIP3    H270487   1.218   3.023   3.734 -1.3020 -0.4585  0.2020
16358TIP3   OH270488   1.517   2.877   5.512 -0.1698 -0.1706  0.0670
16358TIP3    H170489   1.434   2.866   5.558  1.0071 -1.9912  1.8214
16358TIP3    H270490   1.492   2.880   5.419 -2.3490  1.1839  0.6636
16359TIP3   OH270491   6.701   4.272   0.467 -0.3625  0.0839 -0.4787
16359TIP3    H170492   6.682   4.336   0.399 -0.4899 -0.5503 -1.0394
16359TIP3    H270493   6.786   4.236   0.442 -1.2944 -1.5415 -1.3676
16360TIP3   OH270494   6.421   3.454  16.581  0.0327  0.5403 -0.1113
16360TIP3    H170495   6.431   3.545  16.605 -2.9149  0.4001  1.8354
16360TIP3    H270496   6.339   3.450  16.532 -0.4725 -1.2223  0.8087
16361TIP3   OH270497   6.213   2.555   4.337  0.9697 -0.1353  0.2099
16361TIP3    H170498   6.138   2.504   4.367  0.1146  1.5240  0.9597
16361TIP3    H270499   6.245   2.507   4.260 -1.0263 -0.6981 -0.3074
16362TIP3   OH270500   6.231   1.111  12.002  0.1340 -0.0212 -0.1161
16362TIP3    H170501   6.181   1.168  12.061 -0.0411  0.7854 -1.0283
16362TIP3    H270502   6.167   1.081  11.938  0.3051 -0.9673  0.1507
16363TIP3   OH270503   0.334   3.565   5.683 -0.5970  0.3140 -0.1801
16363TIP3    H170504   0.428   3.545   5.685 -0.9091 -1.2486 -0.2445
16363TIP3    H270505   0.329   3.660   5.691  1.0501  0.5208 -1.3040
16364TIP3   OH270506   5.531   0.687   2.481 -0.3378 -0.8015  0.1155
16364TIP3    H170507   5.547   0.727   2.567 -1.8449 -1.3434  0.6698
16364TIP3    H270508   5.584   0.607   2.483  0.2349 -0.4284  0.2298
16365TIP3   OH270509   3.245   4.480  12.829  0.4124  0.4795  0.2734
16365TIP3    H170510   3.215   4.551  12.772  0.1054 -0.0107 -0.1864
16365TIP3    H270511   3.272   4.411  12.768  0.9901  0.3198  0.7118
16366TIP3   OH270512   5.786   5.502   1.572  0.0917  0.2723  0.2027
16366TIP3    H170513   5.746   5.588   1.557  2.8866  1.1421 -2.7975
16366TIP3    H270514   5.841   5.514   1.649 -1.3975  0.4631  1.2589
16367TIP3   OH270515   4.216   1.407  15.248 -0.9029 -0.1163 -0.3641
16367TIP3    H170516   4.207   1.503  15.243  0.8063 -0.0041 -1.6493
16367TIP3    H270517   4.155   1.374  15.182 -0.6215  0.1282 -0.7443
16368TIP3   OH270518   3.984   3.586  14.823 -0.2626  0.0784 -0.6783
16368TIP3    H170519   3.933   3.616  14.747 -1.1927  0.6253  0.1481
16368TIP3    H270520   3.952   3.496  14.838  0.9124 -0.5349 -1.7702
16369TIP3   OH270521   2.333   5.758  14.944 -0.2693 -0.0750 -0.3892
16369TIP3    H170522   2.302   5.669  14.962  1.7628 -1.1394 -1.9552
16369TIP3    H270523   2.423   5.759  14.974  0.5592  0.6322 -2.7784
16370TIP3   OH270524   3.425   2.209   1.863  0.2688 -0.4164  0.1628
16370TIP3    H170525   3.416   2.258   1.945  2.0601  0.6191 -0.2245
16370TIP3    H270526   3.519   2.194   1.855 -0.0222 -1.6383 -1.0611
16371TIP3   OH270527   1.220   0.521   0.924 -0.2663 -0.3627  0.8683
16371TIP3    H170528   1.206   0.467   0.847  0.0038  1.4596 -0.4832
16371TIP3    H270529   1.132   0.545   0.954 -0.3601 -0.7471  0.9031
16372TIP3   OH270530   2.694   3.236   3.708 -0.4092  0.3317 -0.0106
16372TIP3    H170531   2.604   3.267   3.707 -0.2114  0.8910 -1.5269
16372TIP3    H270532   2.693   3.154   3.660 -0.0169  0.6048 -0.4901
16373TIP3   OH270533   3.928   4.523   0.575 -0.4272  0.7683  0.5003
16373TIP3    H170534   3.977   4.478   0.644 -0.1808  0.6182  0.2287
16373TIP3    H270535   3.841   4.481   0.576  0.0670 -0.3278 -0.3294
16374TIP3   OH270536   0.650   1.177  11.654  1.2249  0.4083 -0.3705
16374TIP3    H170537   0.578   1.218  11.605 -0.7797  1.3493  3.1993
16374TIP3    H270538   0.636   1.083  11.641  1.1670  0.6400 -2.1663
16375TIP3   OH270539   6.489   3.037  13.590 -0.5621 -0.1734 -0.3656
16375TIP3    H170540   6.410   3.051  13.643 -0.6117 -1.9347  0.0688
16375TIP3    H270541   6.480   3.098  13.517 -1.7060  0.5502  0.3660
16376TIP3   OH270542   5.375   6.555   5.388 -0.5960 -0.0939 -0.0420
16376TIP3    H170543   5.396   6.481   5.332 -2.4501 -0.8604  0.2502
16376TIP3    H270544   5.290   6.534   5.426 -0.0285  1.0413  1.9836
16377TIP3   OH270545   3.716   0.796   0.291  0.0145 -0.0479 -0.2776
16377TIP3    H170546   3.758   0.859   0.350 -1.3544 -0.4814  1.1830
16377TIP3    H270547   3.624   0.800   0.313 -0.4800 -0.4997 -2.1565
16378TIP3   OH270548   3.358   5.630  16.003  0.0391  0.9436  0.3449
16378TIP3    H170549   3.448   5.598  15.997  0.3895  1.8896  0.4278
16378TIP3    H270550   3.313   5.566  16.058  0.8208  0.7945  0.8254
16379TIP3   OH270551   4.733   2.272   5.162 -0.1463 -0.5230 -0.2722
16379TIP3    H170552   4.747   2.367   5.164  1.1601 -0.6952 -0.9302
16379TIP3    H270553   4.800   2.236   5.220  0.6594 -1.1787 -1.5840
16380TIP3   OH270554   0.020   3.210   2.228 -0.5579 -0.0442 -0.0691
16380TIP3    H170555   0.024   3.198   2.323 -0.5297 -0.6713 -0.1528
16380TIP3    H270556  -0.072   3.231   2.211 -0.3677  1.0730  0.2132
16381TIP3   OH270557   1.083   0.295   2.125 -0.0279  0.3369  0.3453
16381TIP3    H170558   1.033   0.316   2.203 -0.7784  1.3512 -0.3950
16381TIP3    H270559   1.100   0.380   2.084 -2.5006 -0.3920 -2.3564
16382TIP3   OH270560   3.932   6.032  14.433 -0.1600 -0.2938  0.3094
16382TIP3    H170561   3.848   5.990  14.453  1.3049 -2.6040  1.7990
16382TIP3    H270562   3.998   5.971  14.465  2.1195  1.5478 -0.7195
16383TIP3   OH270563   3.652   3.888   0.135  0.1055  0.4782 -0.1157
16383TIP3    H170564   3.595   3.960   0.108 -0.0846  0.3458 -0.0716
16383TIP3    H270565   3.595   3.811   0.135  0.4243  0.2451 -0.6189
16384TIP3   OH270566   6.264   6.786  12.328  0.2743  0.0767 -0.3603
16384TIP3    H170567   6.329   6.832  12.274  0.2591  0.9753  0.3798
16384TIP3    H270568   6.295   6.797  12.418 -1.6165  1.7483  0.1396
16385TIP3   OH270569   6.128   0.368   5.484 -0.0173 -0.6234 -0.0299
16385TIP3    H170570   6.113   0.438   5.420 -0.2600 -1.2028 -0.6187
16385TIP3    H270571   6.198   0.400   5.541 -0.6430  0.4055  0.1635
16386TIP3   OH270572   4.600   3.177   3.148  0.4892  0.1329  0.0674
16386TIP3    H170573   4.631   3.127   3.073  1.2866 -1.2823  1.3159
16386TIP3    H270574   4.642   3.262   3.140  1.0446 -0.2195 -0.7619
16387TIP3   OH270575   0.310   3.349   3.314  0.7104 -0.1165  0.0258
16387TIP3    H170576   0.335   3.399   3.391  0.4074 -0.3410  0.2693
16387TIP3    H270577   0.346   3.261   3.329  2.5892  0.4207 -1.0955
16388TIP3   OH270578   0.987   0.849   3.081 -0.2775  0.8263  0.7169
16388TIP3    H170579   0.933   0.869   3.004  1.4250 -0.0417 -0.7347
16388TIP3    H270580   0.932   0.790   3.134 -0.3295 -0.9839 -1.3052
16389TIP3   OH270581   5.945   2.063   4.521 -0.0376 -0.7032 -0.5896
16389TIP3    H170582   6.016   2.066   4.585  0.4700  0.7831 -1.2076
16389TIP3    H270583   5.897   1.983   4.542 -0.1733  0.0090  1.9711
16390TIP3   OH270584   1.212   6.452   4.331 -0.2057  0.2439  0.0809
16390TIP3    H170585   1.251   6.428   4.247 -1.8056  0.3752 -0.7028
16390TIP3    H270586   1.274   6.514   4.369  0.7750 -0.2002 -0.7746
16391TIP3   OH270587   1.978   4.383   0.463 -0.0569  0.0870  0.0701
16391TIP3    H170588   1.930   4.435   0.399 -2.0128  1.2780  2.4229
16391TIP3    H270589   2.042   4.444   0.500 -1.0473  0.3105  1.4511
16392TIP3   OH270590   1.649   0.263  13.064  0.2374  0.1934 -0.2879
16392TIP3    H170591   1.555   0.265  13.046  0.3180  0.1896 -0.7260
16392TIP3    H270592   1.687   0.229  12.983  0.7466  1.5691 -0.6277
16393TIP3   OH270593   0.510   0.572  10.554 -0.5372 -0.4180 -0.3802
16393TIP3    H170594   0.415   0.563  10.548 -0.5943  1.1320 -1.9420
16393TIP3    H270595   0.544   0.490  10.519 -1.2727 -0.6578 -0.5474
16394TIP3   OH270596   2.813   1.428  13.199 -0.5970 -0.0086 -0.0325
16394TIP3    H170597   2.866   1.367  13.148 -0.9112 -0.6262  0.3783
16394TIP3    H270598   2.734   1.441  13.147  1.0353  2.9300 -1.9105
16395TIP3   OH270599   6.456   5.191   2.971 -0.1897  0.3260  0.7660
16395TIP3    H170600   6.410   5.148   2.899 -3.1028  1.0871  2.1316
16395TIP3    H270601   6.524   5.127   2.996 -1.9942 -1.8536  0.2816
16396TIP3   OH270602   4.304   6.440   4.930  0.4158  0.4919  0.0768
16396TIP3    H170603   4.244   6.501   4.888 -3.0910 -1.1390  2.4389
16396TIP3    H270604   4.355   6.403   4.858 -0.6351  2.7591 -1.8894
16397TIP3   OH270605   2.233   2.396  11.981 -0.0084  0.2549 -0.7469
16397TIP3    H170606   2.194   2.470  11.934  0.6356  0.0863 -1.5489
16397TIP3    H270607   2.166   2.372  12.045 -0.6510  0.8689 -1.1660
16398TIP3   OH270608   0.746   6.417  16.991  0.0268  0.3321  0.2433
16398TIP3    H170609   0.720   6.337  16.946 -1.6922  0.2147  1.3918
16398TIP3    H270610   0.710   6.407  17.080  2.2904  1.0866  1.2878
16399TIP3   OH270611   4.398   1.532  12.303 -0.6514  0.4922  0.0175
16399TIP3    H170612   4.370   1.578  12.224 -0.2991  2.7947  1.1945
16399TIP3    H270613   4.347   1.573  12.374  0.7726  0.1202  1.2867
16400TIP3   OH270614   6.443   2.888  14.258 -0.1750  0.2128  0.2460
16400TIP3    H170615   6.363   2.912  14.305 -0.3076 -0.9634  0.6355
16400TIP3    H270616   6.469   2.968  14.213 -0.7869  0.9923  1.2506
16401TIP3   OH270617   0.671   1.852  15.443 -0.6097 -0.3652  0.9869
16401TIP3    H170618   0.598   1.790  15.432  0.0047 -1.4341  2.7095
16401TIP3    H270619   0.744   1.810  15.398 -0.9004  0.4324 -0.2368
16402TIP3   OH270620   2.365   1.118   0.920 -0.3150 -0.3058  0.2018
16402TIP3    H170621   2.336   1.162   0.841 -0.6082 -0.2763  0.3250
16402TIP3    H270622   2.452   1.085   0.899  0.1315  0.8064  0.2907
16403TIP3   OH270623   0.748   3.433  14.371  0.1627  0.0953  0.5472
16403TIP3    H170624   0.781   3.520  14.349 -0.4219  0.0542 -0.5118
16403TIP3    H270625   0.693   3.409  14.297  2.1862 -2.1717 -0.2854
16404TIP3   OH270626   0.061   2.136  16.173  0.3642 -0.0670  0.5241
16404TIP3    H170627   0.058   2.063  16.233 -1.3654 -0.5448 -0.1175
16404TIP3    H270628   0.030   2.211  16.223  2.2633  0.2960  1.2200
16405TIP3   OH270629   3.868   5.686   0.677  0.3766 -0.0123  0.5302
16405TIP3    H170630   3.799   5.752   0.685 -0.0063 -0.6483  3.2880
16405TIP3    H270631   3.822   5.605   0.654  0.4985  0.0879 -0.0618
16406TIP3   OH270632   3.429   5.542   1.068  0.1225  0.2125 -0.3832
16406TIP3    H170633   3.355   5.481   1.065 -0.1838  0.6202 -2.3110
16406TIP3    H270634   3.421   5.592   0.986  1.8503  1.0705 -0.0445
16407TIP3   OH270635   3.793   1.918   5.337  0.0465  0.2174  0.5765
16407TIP3    H170636   3.766   1.897   5.247  1.0080  2.7117 -0.3485
16407TIP3    H270637   3.879   1.876   5.346  1.5679  2.8289 -0.9609
16408TIP3   OH270638   5.745   1.785  11.907 -0.6166 -0.0509 -0.2019
16408TIP3    H170639   5.656   1.795  11.942 -0.8139 -1.1850 -0.3678
16408TIP3    H270640   5.778   1.875  11.898 -1.4700  0.3420  0.5709
16409TIP3   OH270641   4.912   3.431  17.214 -0.0511 -0.0755 -0.3817
16409TIP3    H170642   4.932   3.463  17.302 -0.1897  0.7990 -0.6558
16409TIP3    H270643   4.913   3.510  17.159  1.5705 -0.8094 -1.4436
16410TIP3   OH270644   3.370   1.688  11.653  0.3987  0.1658 -0.2081
16410TIP3    H170645   3.402   1.773  11.684 -3.9826  1.5297  0.9707
16410TIP3    H270646   3.338   1.644  11.731 -2.5964 -0.1084 -1.5005
16411TIP3   OH270647   2.910   1.456   6.100 -0.1036  0.0742  0.5603
16411TIP3    H170648   2.975   1.490   6.161  2.5588  0.1427 -2.1716
16411TIP3    H270649   2.899   1.364   6.126  0.1269  0.4074  1.8653
16412TIP3   OH270650   0.205   5.513   4.610  0.1388 -0.5756  0.3736
16412TIP3    H170651   0.118   5.533   4.575  0.1965 -0.3927  0.3313
16412TIP3    H270652   0.218   5.420   4.589 -1.0801 -1.2864  2.6150
16413TIP3   OH270653   6.594   5.676  16.149  0.0776 -0.3761 -0.3707
16413TIP3    H170654   6.622   5.768  16.148 -1.4207  0.1254  0.4352
16413TIP3    H270655   6.499   5.681  16.165 -0.0084 -2.0704 -0.2764
16414TIP3   OH270656   2.029   5.378  12.923  0.0816  0.3877  0.4520
16414TIP3    H170657   1.963   5.440  12.955 -0.7382 -0.6133  0.7405
16414TIP3    H270658   2.095   5.376  12.992  0.1543  1.0127  0.3968
16415TIP3   OH270659   3.745   2.330   1.385 -0.0841 -0.9122  0.3168
16415TIP3    H170660   3.683   2.281   1.439  1.4107 -3.0668  0.1683
16415TIP3    H270661   3.796   2.262   1.341 -0.8403  0.7658 -3.3465
16416TIP3   OH270662   2.690   3.153  11.713 -0.1839 -0.0781  0.0782
16416TIP3    H170663   2.624   3.100  11.668  0.0694  1.4883 -2.2156
16416TIP3    H270664   2.773   3.128  11.672  0.1276  0.9417  0.0618
16417TIP3   OH270665   5.338   6.426  16.587 -0.6974  0.1018 -0.2627
16417TIP3    H170666   5.257   6.379  16.604 -1.2602  0.5063 -1.7596
16417TIP3    H270667   5.349   6.483  16.663 -2.2750  0.6662 -0.4361
16418TIP3   OH270668   3.028   4.625  15.094  0.0867  0.3001 -0.3770
16418TIP3    H170669   3.115   4.661  15.077 -0.8199  2.2193 -1.1311
16418TIP3    H270670   3.000   4.589  15.011 -0.1028  0.2785 -0.3046
16419TIP3   OH270671   5.973   3.439   3.512  0.3106 -0.0819 -0.3745
16419TIP3    H170672   6.034   3.480   3.452 -0.2442  1.2328 -0.0567
16419TIP3    H270673   6.028   3.405   3.583  0.9122 -1.1913 -1.3493
16420TIP3   OH270674   5.861   1.908  15.560  0.6023 -0.0338  0.5602
16420TIP3    H170675   5.852   1.942  15.471  0.5241 -0.0424  0.5657
16420TIP3    H270676   5.799   1.836  15.565 -0.5126  0.9493  1.1215
16421TIP3   OH270677   4.583   5.838  10.487 -1.0321  0.2522 -0.3139
16421TIP3    H170678   4.599   5.927  10.456 -0.9701 -0.3379 -1.9962
16421TIP3    H270679   4.505   5.809  10.439  1.0963 -1.9185 -2.5795
16422TIP3   OH270680   6.522   2.632   2.297 -0.1014 -0.6069  0.1883
16422TIP3    H170681   6.534   2.722   2.328 -0.4835 -0.2216 -0.7715
16422TIP3    H270682   6.435   2.632   2.257  1.3030 -0.4571 -3.0095
16423TIP3   OH270683   0.135   0.230  12.728 -0.0450 -0.1570  0.1327
16423TIP3    H170684   0.198   0.194  12.665  1.4812 -0.2475  1.6738
16423TIP3    H270685   0.123   0.320  12.700  0.0201 -0.4066 -0.7452
16424TIP3   OH270686   6.310   6.266  14.133  0.3004 -0.0588 -0.4874
16424TIP3    H170687   6.349   6.179  14.141 -1.7716 -0.9877 -0.1886
16424TIP3    H270688   6.382   6.322  14.104  1.7329 -1.8054 -0.3901
16425TIP3   OH270689   4.908   3.403   1.468  0.1641  0.2395 -0.6500
16425TIP3    H170690   4.851   3.436   1.537 -0.9357  0.9231 -1.8697
16425TIP3    H270691   4.996   3.411   1.504 -0.4269  0.0500  0.8875
16426TIP3   OH270692   5.815   2.230   5.385  0.0163  0.3945  0.2075
16426TIP3    H170693   5.719   2.228   5.384  0.0300 -0.1123 -1.3866
16426TIP3    H270694   5.838   2.295   5.318  0.8188 -1.0949 -0.9926
16427TIP3   OH270695   1.520   1.444   0.125 -0.3387  0.0285 -0.0523
16427TIP3    H170696   1.538   1.354   0.099  0.7089 -0.0395  0.8864
16427TIP3    H270697   1.506   1.440   0.220  2.4494  1.2191  0.4753
16428TIP3   OH270698   5.603   3.666   4.314  0.3748 -0.6213 -0.3170
16428TIP3    H170699   5.587   3.760   4.299  0.7496 -0.4919  0.0920
16428TIP3    H270700   5.661   3.664   4.391 -1.1301 -1.2588  0.8189
16429TIP3   OH270701   1.729   4.289   4.973 -0.2109 -0.4089  0.0791
16429TIP3    H170702   1.794   4.345   5.015 -0.5973 -1.3555  1.9928
16429TIP3    H270703   1.653   4.346   4.961  0.4761  0.3272 -0.9265
16430TIP3   OH270704   3.384   6.489   5.834  0.1183 -0.2437 -0.0245
16430TIP3    H170705   3.397   6.418   5.771  0.2769  0.3454 -0.6535
16430TIP3    H270706   3.390   6.446   5.919 -2.5339 -1.4811 -0.3935
16431TIP3   OH270707   6.665   4.703  13.891 -0.4966 -0.2720  0.0958
16431TIP3    H170708   6.672   4.738  13.802  2.4023  0.4849  0.5976
16431TIP3    H270709   6.690   4.611  13.883 -1.4981 -0.5384 -0.0673
16432TIP3   OH270710   2.178   5.962  11.760  0.5305 -0.2952  0.5590
16432TIP3    H170711   2.193   5.869  11.776  2.5118 -0.0819  0.0505
16432TIP3    H270712   2.109   5.986  11.822  1.5964 -1.5710  2.2922
16433TIP3   OH270713   2.973   5.811   4.896 -0.0219 -0.0334  0.1054
16433TIP3    H170714   2.928   5.814   4.980  2.3263  0.7646  1.3824
16433TIP3    H270715   2.996   5.902   4.878 -0.0640 -0.2642 -1.1656
16434TIP3   OH270716   4.072   2.824  11.193  0.5845  0.0924 -0.2164
16434TIP3    H170717   4.084   2.765  11.119  2.5614 -1.0668  1.0069
16434TIP3    H270718   3.990   2.869  11.174  0.0434 -1.6298 -2.1224
16435TIP3   OH270719   3.881   4.919  15.635 -0.0176  0.0013 -0.0475
16435TIP3    H170720   3.804   4.899  15.582  0.0139 -0.6166  0.1391
16435TIP3    H270721   3.862   4.881  15.720  1.2258 -1.6983 -0.4968
16436TIP3   OH270722   0.127   5.833   5.861  0.0288  0.1192 -0.1735
16436TIP3    H170723   0.194   5.831   5.930  0.0468 -0.0381 -0.1936
16436TIP3    H270724   0.080   5.915   5.875 -0.2557 -0.1149  0.3057
16437TIP3   OH270725   5.430   3.921  12.126 -0.3587 -0.1866 -0.3060
16437TIP3    H170726   5.450   3.978  12.052  1.2753 -0.2997  0.0278
16437TIP3    H270727   5.408   3.981  12.197  0.2956 -0.0008 -0.2572
16438TIP3   OH270728   5.993   0.304   0.826  0.3043  0.1183  0.0028
16438TIP3    H170729   5.904   0.311   0.791  0.0125  0.4454  0.7741
16438TIP3    H270730   6.035   0.386   0.803  0.0978  0.3525  0.4467
16439TIP3   OH270731   6.389   4.309   5.911  0.6818  0.2992  0.2622
16439TIP3    H170732   6.401   4.216   5.894 -0.9513  0.1430 -0.0536
16439TIP3    H270733   6.362   4.313   6.003  3.3769  0.6827  1.0867
16440TIP3   OH270734   3.602   6.707  12.407 -0.1850 -0.3521  0.0439
16440TIP3    H170735   3.564   6.716  12.319 -0.9368  0.8913  0.4820
16440TIP3    H270736   3.688   6.667  12.392  0.1740  0.8955 -1.3563
16441TIP3   OH270737   1.836   1.885  16.614 -0.3107  0.1024  0.2521
16441TIP3    H170738   1.913   1.935  16.641  0.5079 -0.8085 -0.3627
16441TIP3    H270739   1.832   1.898  16.519 -0.8814  0.0883  0.2751
16442TIP3   OH270740   2.759   4.073  14.127 -0.2792  0.1190 -0.3034
16442TIP3    H170741   2.838   4.031  14.093 -0.4090 -0.5756  0.2503
16442TIP3    H270742   2.701   4.000  14.150 -0.7570  0.6123  0.0627
16443TIP3   OH270743   4.602   3.092   3.992  0.0432 -0.6507 -0.1401
16443TIP3    H170744   4.607   3.126   4.081 -1.7094 -0.3071 -0.1658
16443TIP3    H270745   4.509   3.073   3.978  0.4207 -1.5461 -1.5825
16444TIP3   OH270746   1.163   2.473  16.298 -0.3586  0.5887  0.1634
16444TIP3    H170747   1.165   2.553  16.351 -0.0205 -0.5123  1.8343
16444TIP3    H270748   1.250   2.435  16.308 -0.8165 -0.4772  0.1041
16445TIP3   OH270749   6.740   1.379  13.526  0.1419 -0.4978 -0.3623
16445TIP3    H170750   6.755   1.468  13.558 -0.1298 -1.3619  2.3102
16445TIP3    H270751   6.678   1.390  13.454  1.3335  1.5988 -1.1156
16446TIP3   OH270752   3.944   1.363   2.643 -0.2434  0.7643  0.6939
16446TIP3    H170753   3.887   1.435   2.616  0.2118  0.7906 -0.2183
16446TIP3    H270754   3.987   1.335   2.562 -0.3702 -0.4937  1.0546
16447TIP3   OH270755   6.267   4.462  13.059  0.0714  0.1406  0.3190
16447TIP3    H170756   6.299   4.511  13.136  0.6161 -1.0022  0.8307
16447TIP3    H270757   6.332   4.392  13.047 -0.2224  0.0765 -0.9538
16448TIP3   OH270758   6.778   2.056  12.614  0.1157 -0.2660  0.0319
16448TIP3    H170759   6.846   1.994  12.589  1.2684  0.8159  0.4603
16448TIP3    H270760   6.780   2.056  12.710 -0.3030 -0.0225  0.0424
16449TIP3   OH270761   5.367   1.419  11.280  0.4899 -0.2627 -0.0406
16449TIP3    H170762   5.316   1.479  11.224 -0.9441 -0.2077  1.2805
16449TIP3    H270763   5.435   1.474  11.319  0.0808  0.1935  0.0334
16450TIP3   OH270764   6.232   1.399  12.602 -0.2565 -0.3762 -0.8062
16450TIP3    H170765   6.256   1.354  12.683  0.1511 -0.6221 -1.0612
16450TIP3    H270766   6.186   1.333  12.550 -1.3017  0.0287 -0.4175
16451TIP3   OH270767   5.144   5.443   0.817  0.0650  0.2618 -0.0972
16451TIP3    H170768   5.125   5.453   0.724  1.1615 -1.9342 -0.5711
16451TIP3    H270769   5.100   5.363   0.843  0.2095  0.5752  1.1623
16452TIP3   OH270770   3.380   3.468   0.497 -0.1303  0.2820  0.1864
16452TIP3    H170771   3.372   3.397   0.433 -0.7343  0.4918  0.0268
16452TIP3    H270772   3.372   3.424   0.582  3.0035 -0.3295  0.2232
16453TIP3   OH270773   2.158   2.379  16.332  0.3339  0.2477 -0.2220
16453TIP3    H170774   2.147   2.474  16.328 -0.7715  0.2204  1.4074
16453TIP3    H270775   2.093   2.351  16.396  0.3386 -1.6722 -1.0386
16454TIP3   OH270776   0.036   4.479   1.055  0.3641  0.0723  0.1165
16454TIP3    H170777   0.059   4.451   0.966  0.3122  1.2159 -0.2589
16454TIP3    H270778   0.090   4.555   1.071 -1.4235  1.3737  0.1210
16455TIP3   OH270779   6.422   3.304  16.985 -0.3300 -0.3438 -0.8093
16455TIP3    H170780   6.355   3.343  17.042  0.1947  0.9035 -1.0431
16455TIP3    H270781   6.431   3.214  17.018 -1.6995 -0.3414 -0.4018
16456TIP3   OH270782   6.513   3.223   2.471 -0.2574  0.7220 -0.1409
16456TIP3    H170783   6.602   3.256   2.484  0.1790 -0.2449 -0.6352
16456TIP3    H270784   6.498   3.164   2.545 -0.7541  1.4393  0.3317
16457TIP3   OH270785   6.518   2.940  16.759 -0.2099  0.0478 -0.1147
16457TIP3    H170786   6.456   2.906  16.695  0.4553  1.6538 -1.6454
16457TIP3    H270787   6.503   3.035  16.759 -0.9961 -0.0237  2.9706
16458TIP3   OH270788   5.259   3.008  16.526  0.0333  0.0117  0.0360
16458TIP3    H170789   5.261   2.990  16.432 -2.0856 -0.2893  0.0305
16458TIP3    H270790   5.266   3.103  16.533 -0.4397  0.0821 -0.4523
16459TIP3   OH270791   2.769   2.169   6.169 -0.1790 -0.1501  0.0569
16459TIP3    H170792   2.827   2.156   6.094 -0.6506  0.8142 -0.4871
16459TIP3    H270793   2.701   2.102   6.159 -0.7299  0.5406 -0.8705
16460TIP3   OH270794   0.288   1.920  13.192  0.4218  0.0319  0.1352
16460TIP3    H170795   0.240   1.894  13.113  1.3934 -0.1215 -0.4002
16460TIP3    H270796   0.227   1.902  13.263 -0.1529 -0.5937 -0.5104
16461TIP3   OH270797   3.720   3.146   4.838 -1.0117 -0.1777  0.0930
16461TIP3    H170798   3.711   3.080   4.907  1.3670 -0.0324  0.5942
16461TIP3    H270799   3.809   3.133   4.805 -1.7141  0.5480 -2.1363
16462TIP3   OH270800   3.295   4.878   4.140 -0.5000 -0.5543 -0.0203
16462TIP3    H170801   3.319   4.970   4.131  1.4662 -0.9558  0.7378
16462TIP3    H270802   3.225   4.877   4.206 -1.9430  0.5678 -1.5167
16463TIP3   OH270803   3.865   5.578  12.386 -0.1664 -0.0918  0.8353
16463TIP3    H170804   3.796   5.528  12.430 -0.9442  0.9437  0.8168
16463TIP3    H270805   3.861   5.547  12.295 -0.6944  0.0458  0.8053
16464TIP3   OH270806   2.333   2.865   0.497 -0.3095  0.3014  0.3722
16464TIP3    H170807   2.319   2.922   0.573 -2.5741  1.2233 -0.6952
16464TIP3    H270808   2.355   2.924   0.426  0.2897 -0.4361 -0.0637
16465TIP3   OH270809   0.892   3.017  14.066  0.2072  0.2472  0.1842
16465TIP3    H170810   0.818   2.986  14.119  0.7936 -0.1813  0.7693
16465TIP3    H270811   0.940   3.075  14.124  0.8764 -0.2529  0.1331
16466TIP3   OH270812   1.775   0.690  12.891 -0.3378  0.2247  0.7759
16466TIP3    H170813   1.726   0.630  12.836 -2.3162  1.7021  0.8700
16466TIP3    H270814   1.772   0.774  12.845 -1.9477  1.4599  3.0016
16467TIP3   OH270815   2.367   2.831  14.428  0.5033 -0.1879  0.0217
16467TIP3    H170816   2.337   2.740  14.426 -1.5393  0.4642 -0.4341
16467TIP3    H270817   2.332   2.869  14.347  1.9217  0.8324 -0.1294
16468TIP3   OH270818   6.655   0.915  16.982  0.3475  0.4275  0.0521
16468TIP3    H170819   6.699   0.841  16.939 -0.5600 -0.4170  0.5451
16468TIP3    H270820   6.622   0.878  17.064  0.8612  1.6684  0.8318
16469TIP3   OH270821   2.742   0.546  15.695  0.0978  0.6081  0.0551
16469TIP3    H170822   2.706   0.563  15.607 -1.3369 -2.0615  0.0737
16469TIP3    H270823   2.833   0.574  15.689  0.1421  0.0866 -2.4459
16470TIP3   OH270824   3.167   2.979  15.951  0.7282 -0.6449 -0.6171
16470TIP3    H170825   3.254   2.956  15.983 -0.0885 -0.3256  1.9113
16470TIP3    H270826   3.159   3.073  15.967 -0.3804 -0.8157 -0.1179
16471TIP3   OH270827   4.254   5.295  16.408  0.2948  0.4554 -0.0282
16471TIP3    H170828   4.338   5.248  16.406 -0.4935 -0.9458 -0.5357
16471TIP3    H270829   4.256   5.342  16.492  1.8510  0.9450 -0.3102
16472TIP3   OH270830   0.500   0.851   4.040 -0.2585 -0.0293  0.0356
16472TIP3    H170831   0.560   0.825   3.970 -0.4463  1.1054 -0.5572
16472TIP3    H270832   0.525   0.797   4.115  0.7171 -0.4107 -0.5634
16473TIP3   OH270833   1.948   0.783   3.949  0.1241  0.7409  0.3890
16473TIP3    H170834   2.025   0.726   3.955 -0.9473 -0.5087  2.9783
16473TIP3    H270835   1.881   0.729   3.908  0.0384  1.1747 -0.0429
16474TIP3   OH270836   4.485   5.929   3.534  0.5092  0.1312 -0.5640
16474TIP3    H170837   4.501   5.978   3.453 -0.4715  0.1939 -0.7222
16474TIP3    H270838   4.396   5.954   3.559  0.7277 -0.0691  0.4085
16475TIP3   OH270839   2.580   2.242   5.761  0.3922  0.1707 -0.1730
16475TIP3    H170840   2.556   2.259   5.852 -2.4459  0.3161 -0.9210
16475TIP3    H270841   2.613   2.152   5.762  1.4523  0.5414  1.1559
16476TIP3   OH270842   5.452   0.792  16.356 -0.4214  0.5300 -0.5823
16476TIP3    H170843   5.545   0.804  16.337 -0.4849  1.2439 -0.4918
16476TIP3    H270844   5.411   0.779  16.271 -0.3605  1.1412 -0.7085
16477TIP3   OH270845   5.662   0.019  11.630  0.3966 -1.0366 -0.3383
16477TIP3    H170846   5.669   0.005  11.536  0.9238  0.8265 -0.5949
16477TIP3    H270847   5.598   0.090  11.639  0.7412 -0.8450  0.6677
16478TIP3   OH270848   6.163   1.596  16.263  0.4860  0.1079  0.5235
16478TIP3    H170849   6.071   1.580  16.283  0.3530  0.2765  0.0398
16478TIP3    H270850   6.208   1.579  16.346  0.2658 -1.9849  0.2601
16479TIP3   OH270851   5.481   6.164   0.411  0.3165 -0.0875 -0.7420
16479TIP3    H170852   5.525   6.172   0.496 -0.6328  1.6026 -0.3975
16479TIP3    H270853   5.391   6.188   0.428  0.0202 -0.1205 -2.1707
16480TIP3   OH270854   1.772   4.093   2.781 -0.2624  0.4123 -0.6056
16480TIP3    H170855   1.684   4.089   2.744 -0.6525  0.3440  0.3168
16480TIP3    H270856   1.788   4.186   2.794 -0.3832  0.3956 -0.3376
16481TIP3   OH270857   0.888   3.210  12.760 -0.3745 -0.1731  0.2474
16481TIP3    H170858   0.980   3.187  12.773 -0.4186  0.4278  1.7001
16481TIP3    H270859   0.889   3.275  12.690  0.1926 -1.0227 -0.5440
16482TIP3   OH270860   3.992   3.034   4.797  0.6152 -0.4513  0.3023
16482TIP3    H170861   4.009   3.126   4.813  2.5088 -0.7004 -0.1805
16482TIP3    H270862   3.996   2.992   4.883  0.1233 -0.1478  0.4737
16483TIP3   OH270863   0.775   4.600  16.311 -0.2070  0.3821  0.4393
16483TIP3    H170864   0.842   4.575  16.375 -1.5930  1.3763  2.3549
16483TIP3    H270865   0.818   4.664  16.255  0.4777  0.9798  1.6191
16484TIP3   OH270866   6.079   3.612  16.440  0.2130 -0.0997  0.1213
16484TIP3    H170867   6.027   3.543  16.400  1.1433  0.5662 -2.3164
16484TIP3    H270868   6.147   3.632  16.376  1.7237  1.0780  2.0012
16485TIP3   OH270869   4.219   2.649   3.294  0.9153 -0.2356 -0.3069
16485TIP3    H170870   4.180   2.632   3.379  1.0118 -1.1741 -0.4450
16485TIP3    H270871   4.251   2.564   3.265  0.2915 -0.0430 -1.5783
16486TIP3   OH270872   5.712   3.769  14.856 -0.0466 -0.0338 -0.0580
16486TIP3    H170873   5.721   3.801  14.766 -1.1919 -3.1707 -1.3216
16486TIP3    H270874   5.623   3.736  14.861  0.4523 -1.1160  1.8355
16487TIP3   OH270875   2.827   2.483  15.790  0.1576 -0.4386  0.0428
16487TIP3    H170876   2.785   2.417  15.847  0.4365 -0.8732 -0.2507
16487TIP3    H270877   2.918   2.455  15.785  0.6177  0.8013  1.0994
16488TIP3   OH270878   0.040   0.283   1.306 -0.0760 -0.0115 -0.1065
16488TIP3    H170879  -0.054   0.294   1.321 -0.3447 -3.1294  0.7462
16488TIP3    H270880   0.049   0.197   1.267  2.4431  0.2882 -0.2843
16489TIP3   OH270881   5.155   2.643  15.546 -0.1428 -0.7663 -0.4559
16489TIP3    H170882   5.100   2.718  15.525 -0.8339 -0.7729  1.3289
16489TIP3    H270883   5.134   2.578  15.479 -1.3083 -0.2680 -0.5698
16490TIP3   OH270884   5.043   0.210  11.129  0.1944 -0.2361  0.1760
16490TIP3    H170885   5.078   0.293  11.162  1.3293 -0.6854  0.1128
16490TIP3    H270886   5.076   0.204  11.040 -0.7343 -0.2726 -0.1681
16491TIP3   OH270887   2.480   3.456  14.448  0.0980  0.0006 -0.4464
16491TIP3    H170888   2.428   3.484  14.523  0.4139 -1.0489  0.1853
16491TIP3    H270889   2.520   3.374  14.477 -0.0178 -0.5682 -1.8690
16492TIP3   OH270890   0.946   3.184   2.401 -1.1533  0.4995 -0.6530
16492TIP3    H170891   0.961   3.164   2.309 -2.4619  1.3351 -1.0560
16492TIP3    H270892   0.875   3.248   2.401 -0.0457  1.7804  0.8548
16493TIP3   OH270893   2.279   1.087  10.717 -0.5785  0.3983  0.4090
16493TIP3    H170894   2.254   1.090  10.809  1.2515  0.9147  0.9116
16493TIP3    H270895   2.242   1.005  10.685  0.3942 -0.7251  2.0917
16494TIP3   OH270896   2.667   3.413  15.915  0.0014 -0.5438 -0.2459
16494TIP3    H170897   2.743   3.390  15.862  0.4077  2.5775 -1.1237
16494TIP3    H270898   2.689   3.383  16.003  2.3215  0.4285 -0.4676
16495TIP3   OH270899   3.740   0.698   0.558  0.2842 -0.3227  0.2796
16495TIP3    H170900   3.651   0.731   0.543  0.2765 -1.3901 -2.1909
16495TIP3    H270901   3.781   0.763   0.614 -1.5001  1.0579  0.0117
16496TIP3   OH270902   4.226   6.060  11.937  0.3657 -0.0708 -0.1320
16496TIP3    H170903   4.267   6.135  11.894  0.8578  0.4949  1.3104
16496TIP3    H270904   4.185   6.096  12.015 -1.5972 -0.8928 -0.7651
16497TIP3   OH270905   0.818   3.977   0.814 -0.1301 -0.0017 -0.6770
16497TIP3    H170906   0.829   3.981   0.909 -1.4645  1.6840 -0.5632
16497TIP3    H270907   0.822   3.884   0.793  0.1045 -0.3979  1.0372
16498TIP3   OH270908   0.435   3.859  13.361  0.3605  0.2270  0.6347
16498TIP3    H170909   0.371   3.881  13.293  0.4528 -0.1208  0.4334
16498TIP3    H270910   0.481   3.942  13.378 -2.9655  1.5557  3.8169
16499TIP3   OH270911   1.941   5.475  13.878  0.6191  0.4739 -0.8024
16499TIP3    H170912   1.946   5.408  13.810  0.8032 -0.7659  0.4261
16499TIP3    H270913   1.870   5.447  13.935  0.0326  1.8501 -0.8186
16500TIP3   OH270914   4.184   3.407  16.219 -0.4433 -0.3002  0.1172
16500TIP3    H170915   4.255   3.468  16.239 -1.6213  1.7855 -1.8851
16500TIP3    H270916   4.228   3.328  16.188  1.0503  0.0568  1.2532
16501TIP3   OH270917   3.069   3.569   0.454  0.6605 -0.5005 -0.2564
16501TIP3    H170918   3.128   3.582   0.380  0.8482 -0.8676 -0.1729
16501TIP3    H270919   3.000   3.634   0.441  1.1989  0.0836 -0.2308
16502TIP3   OH270920   3.972   4.899   1.261  0.4496 -0.1719  0.0694
16502TIP3    H170921   3.910   4.858   1.321 -1.1516  0.2704 -1.2537
16502TIP3    H270922   4.046   4.924   1.317 -0.5764 -0.6491  1.6826
16503TIP3   OH270923   6.650   3.701   0.814 -0.4807 -0.4289 -0.2779
16503TIP3    H170924   6.665   3.613   0.848  0.4052 -1.1293 -2.4139
16503TIP3    H270925   6.672   3.695   0.721  1.0307  2.3969 -0.1637
16504TIP3   OH270926   1.164   2.836  12.192 -0.1156  0.0471 -0.1287
16504TIP3    H170927   1.093   2.775  12.172 -0.5571  0.3054  0.6141
16504TIP3    H270928   1.180   2.883  12.110 -1.6643  0.8685  0.0243
16505TIP3   OH270929   6.728   6.261   0.929 -0.0376  0.2101 -0.0328
16505TIP3    H170930   6.758   6.235   1.016 -0.0842 -1.1630 -0.4248
16505TIP3    H270931   6.806   6.295   0.885 -0.0968  1.2935  0.6734
16506TIP3   OH270932   6.491   2.861  13.959  0.1159 -0.5571  0.0670
16506TIP3    H170933   6.477   2.788  14.021 -1.8833  0.5650  1.0092
16506TIP3    H270934   6.441   2.933  13.996 -0.0739  0.5335 -2.2255
16507TIP3   OH270935   5.617   4.794  15.888 -0.2098 -0.4551 -0.0996
16507TIP3    H170936   5.579   4.876  15.857 -0.0087 -0.3201  0.0200
16507TIP3    H270937   5.710   4.802  15.870 -0.2593 -0.8622 -0.5540
16508TIP3   OH270938   3.237   4.449   1.399  0.7603  0.5560  0.1423
16508TIP3    H170939   3.174   4.380   1.421  0.9289  0.8562  1.6594
16508TIP3    H270940   3.250   4.496   1.482  1.4010  1.7862 -0.6405
16509TIP3   OH270941   3.172   1.322   4.562  0.0614 -0.2581  0.1420
16509TIP3    H170942   3.137   1.233   4.563 -0.0098 -0.2281  0.6127
16509TIP3    H270943   3.228   1.326   4.639  0.6719 -0.1336 -0.3084
16510TIP3   OH270944   4.932   4.005  12.987 -0.0850  0.0171  0.7721
16510TIP3    H170945   4.912   4.047  12.903  1.0826 -1.2510 -0.1776
16510TIP3    H270946   4.855   3.952  13.006 -0.9014  1.3301  1.1736
16511TIP3   OH270947   0.812   0.540  12.541  0.0577  0.1978 -0.5959
16511TIP3    H170948   0.773   0.475  12.482  0.4145 -0.9992  0.4664
16511TIP3    H270949   0.747   0.609  12.547 -0.6267 -0.3805 -1.2067
16512TIP3   OH270950   2.587   5.566   4.934  0.5562 -0.2038 -0.2636
16512TIP3    H170951   2.633   5.591   5.014 -1.3527  0.1775  0.7404
16512TIP3    H270952   2.545   5.483   4.956 -1.2718  0.6813 -0.3408
16513TIP3   OH270953   6.240   6.506  12.587 -0.1605  0.2484 -0.3015
16513TIP3    H170954   6.209   6.476  12.502 -1.1141 -0.5569  0.3183
16513TIP3    H270955   6.216   6.436  12.647  1.0527  0.5386  0.5330
16514TIP3   OH270956   2.247   2.420  11.451 -0.3083 -0.0648  0.3428
16514TIP3    H170957   2.294   2.399  11.532 -1.9883  0.7693  1.5586
16514TIP3    H270958   2.311   2.403  11.381  1.2160 -0.6385  1.8427
16515TIP3   OH270959   2.842   2.476   0.295 -0.4871  0.5532 -0.0118
16515TIP3    H170960   2.922   2.469   0.244 -1.5021 -0.8389 -1.4741
16515TIP3    H270961   2.810   2.386   0.303 -1.7049  1.0421  0.8711
16516TIP3   OH270962   3.949   4.369  14.883  0.0252  0.1972 -0.1797
16516TIP3    H170963   3.913   4.371  14.971  1.2343  0.4034  0.3154
16516TIP3    H270964   4.006   4.292  14.882 -2.0395 -1.3461 -1.6018
16517TIP3   OH270965   2.618   3.088  12.268 -0.3375  0.3050 -0.4302
16517TIP3    H170966   2.641   3.061  12.179 -0.0641 -1.7370  0.2423
16517TIP3    H270967   2.647   3.016  12.323  0.4453  2.0122  1.4430
16518TIP3   OH270968   3.489   1.104  17.187  0.1599 -0.6831  0.2329
16518TIP3    H170969   3.529   1.022  17.157  0.8807  0.5760 -2.3470
16518TIP3    H270970   3.562   1.165  17.196 -0.4430 -0.1346  1.6541
16519TIP3   OH270971   2.134   5.487   1.031  0.0131  0.4446 -0.7817
16519TIP3    H170972   2.130   5.392   1.042  1.4432  0.2844 -1.5824
16519TIP3    H270973   2.081   5.503   0.952 -0.4172  0.3376 -0.5161
16520TIP3   OH270974   0.501   5.380  15.156 -0.0914 -0.4271 -0.2297
16520TIP3    H170975   0.555   5.305  15.130 -0.8361 -1.0873  0.1120
16520TIP3    H270976   0.491   5.370  15.250 -1.5536 -0.8243 -0.4083
16521TIP3   OH270977   2.824   4.919   5.953  0.1209 -0.4631  0.1063
16521TIP3    H170978   2.742   4.870   5.946  0.4835 -0.8538 -1.5878
16521TIP3    H270979   2.848   4.939   5.863  2.3327 -1.0560  0.5360
16522TIP3   OH270980   6.021   2.129  11.268  0.1241  0.5310 -0.1713
16522TIP3    H170981   6.082   2.199  11.292 -1.1578  1.1577  1.3620
16522TIP3    H270982   6.013   2.076  11.347 -0.1163 -0.4696 -0.8548
16523TIP3   OH270983   2.030   5.558   0.778 -1.0456  0.4357  0.1092
16523TIP3    H170984   2.035   5.614   0.700 -0.6785 -0.1503 -0.2852
16523TIP3    H270985   2.054   5.471   0.747 -0.4633  0.2862  0.9680
16524TIP3   OH270986   3.152   3.258  15.979  0.0556 -0.3201  0.7658
16524TIP3    H170987   3.223   3.294  16.031 -1.2358  3.5167  0.0178
16524TIP3    H270988   3.075   3.262  16.036 -0.0939 -2.2322  0.7571
16525TIP3   OH270989   0.777   6.120  15.216 -0.0513 -0.6409 -0.2881
16525TIP3    H170990   0.812   6.166  15.140  0.0455  0.5134  0.4559
16525TIP3    H270991   0.773   6.186  15.285 -0.7493 -1.5232  0.5274
16526TIP3   OH270992   3.148   4.100  12.097  0.1063  0.3811 -0.9482
16526TIP3    H170993   3.164   4.091  12.003  0.7810 -0.2353 -0.7862
16526TIP3    H270994   3.181   4.018  12.134  0.3946  0.8713 -0.1100
16527TIP3   OH270995   2.093   6.611  13.706  0.8839 -0.8128 -0.3286
16527TIP3    H170996   2.011   6.593  13.751  0.1424 -2.5416 -2.2456
16527TIP3    H270997   2.092   6.705  13.687  1.3465  0.0030  3.3859
16528TIP3   OH270998   0.797   3.385   1.934  0.4031  0.5894  0.1328
16528TIP3    H170999   0.787   3.478   1.955  1.0610  0.8719 -0.7800
16528TIP3    H271000   0.720   3.344   1.973 -0.9208  1.7968 -1.1207
16529TIP3   OH271001   2.780   6.220  13.576 -0.1693  0.3491  0.1302
16529TIP3    H171002   2.835   6.162  13.628  0.1356  0.0633 -0.4971
16529TIP3    H271003   2.834   6.242  13.500 -0.1566  1.7171  0.5114
16530TIP3   OH271004   3.928   0.299  16.000  0.7758  0.1020 -0.3053
16530TIP3    H171005   3.848   0.320  16.049  1.9452  0.0429  1.6683
16530TIP3    H271006   3.903   0.224  15.946  0.1242 -1.4685  2.1007
16531TIP3   OH271007   3.990   1.619  10.373 -0.1995 -0.0229 -0.0784
16531TIP3    H171008   3.914   1.668  10.342 -1.1789 -0.5643  1.3608
16531TIP3    H271009   4.052   1.686  10.402 -0.1881  0.4178 -1.0921
16532TIP3   OH271010   5.147   0.548  15.935  0.1928 -0.0754  0.3017
16532TIP3    H171011   5.230   0.531  15.979  1.4377  1.6320 -1.3116
16532TIP3    H271012   5.166   0.533  15.842 -1.0059  1.3840 -0.1984
16533TIP3   OH271013   2.612   4.820   4.157 -0.3196 -0.1061 -0.3198
16533TIP3    H171014   2.566   4.787   4.081  0.6068  0.9467 -1.3539
16533TIP3    H271015   2.616   4.746   4.217 -1.2999 -0.8586 -1.1740
16534TIP3   OH271016   3.250   5.730  12.808  0.1219 -0.0113  0.0840
16534TIP3    H171017   3.213   5.740  12.896 -0.2651 -0.5611 -0.0107
16534TIP3    H271018   3.326   5.788  12.807  0.6531 -0.6736  1.0864
16535TIP3   OH271019   6.383   0.232   5.823 -0.1378 -0.3512 -0.2531
16535TIP3    H171020   6.335   0.171   5.768  0.7082 -1.4381  0.1996
16535TIP3    H271021   6.405   0.181   5.901  2.6845 -0.1963 -0.9088
16536TIP3   OH271022   2.313   2.509  16.566 -0.5609  0.4342  0.0422
16536TIP3    H171023   2.235   2.564  16.561  0.0910  1.1987 -1.8840
16536TIP3    H271024   2.340   2.495  16.475  1.2625 -0.2456  0.6474
16537TIP3   OH271025   4.353   0.466   2.812 -0.2106  0.0040  0.6909
16537TIP3    H171026   4.373   0.558   2.793 -1.0505  0.0452 -0.0514
16537TIP3    H271027   4.420   0.439   2.874  2.6229 -0.1244 -2.3252
16538TIP3   OH271028   6.459   5.329   1.624 -0.7774  0.2482 -0.4848
16538TIP3    H171029   6.439   5.402   1.683 -0.2204 -0.4600  0.5852
16538TIP3    H271030   6.444   5.251   1.677 -0.6693 -0.4010 -1.4155
16539TIP3   OH271031   6.001   1.299  15.785 -0.1905 -0.2939  0.0205
16539TIP3    H171032   5.909   1.324  15.780 -0.1828 -0.3379 -0.3246
16539TIP3    H271033   6.036   1.351  15.857 -0.8342 -1.3642  1.1392
16540TIP3   OH271034   2.487   2.783  12.238 -0.5038 -0.5221 -0.3532
16540TIP3    H171035   2.425   2.747  12.174 -1.1520  2.5566 -1.5463
16540TIP3    H271036   2.443   2.861  12.272  1.4141 -0.0545  1.1292
16541TIP3   OH271037   1.664   0.834   2.172  0.2321 -0.0096  0.7221
16541TIP3    H171038   1.583   0.783   2.173  0.5753 -0.6409 -1.0961
16541TIP3    H271039   1.636   0.922   2.148 -0.0658  0.0872  1.4088
16542TIP3   OH271040   3.931   3.449   1.285 -0.3166 -0.0755 -0.1489
16542TIP3    H171041   3.876   3.375   1.259 -1.2607  0.2675  0.8424
16542TIP3    H271042   3.925   3.452   1.381  2.3251 -0.7116  0.0786
16543TIP3   OH271043   1.213   3.567  15.943 -0.1467  0.1416  0.5430
16543TIP3    H171044   1.143   3.631  15.932  0.2034  0.2245 -1.4091
16543TIP3    H271045   1.192   3.523  16.025 -1.8993  0.8890  0.5238
16544TIP3   OH271046   6.191   3.911   0.899  0.0309 -0.5797  0.2016
16544TIP3    H171047   6.272   3.863   0.879 -0.0725 -0.4268 -0.5847
16544TIP3    H271048   6.209   3.953   0.983  0.1768 -1.8708  0.8352
16545TIP3   OH271049   1.465   1.976  16.997 -0.0384  0.1001 -0.3575
16545TIP3    H171050   1.384   2.027  17.005 -0.4848 -0.2134 -2.6002
16545TIP3    H271051   1.513   2.018  16.925  1.3510 -0.3153  0.3057
16546TIP3   OH271052   1.020   5.469  11.771  0.5205 -0.0169 -0.1862
16546TIP3    H171053   1.098   5.441  11.820 -0.2899  0.5187  1.4576
16546TIP3    H271054   1.016   5.409  11.697  0.6089 -2.2420  1.5552
16547TIP3   OH271055   5.168   1.312   2.648 -0.0969  0.0529 -0.1301
16547TIP3    H171056   5.180   1.370   2.573 -1.4040  1.0947  0.4465
16547TIP3    H271057   5.103   1.356   2.703 -2.5281 -2.7787 -0.5708
16548TIP3   OH271058   4.636   1.747   4.610 -0.6150  0.2723 -0.4147
16548TIP3    H171059   4.695   1.672   4.617  0.8097  1.3018 -1.2938
16548TIP3    H271060   4.629   1.781   4.699  0.1068  0.1392 -0.3055
16549TIP3   OH271061   6.627   3.702  15.623  0.0543  0.2353  0.5549
16549TIP3    H171062   6.624   3.612  15.657 -0.6086 -0.8005 -2.0815
16549TIP3    H271063   6.675   3.751  15.690  0.8960 -2.1893  1.8222
16550TIP3   OH271064   4.340   2.943  13.728 -0.0015  0.1573 -0.0966
16550TIP3    H171065   4.320   2.850  13.724 -2.2649  0.5189  1.7063
16550TIP3    H271066   4.259   2.984  13.757  1.7943  2.3518  2.1027
16551TIP3   OH271067   0.744   3.692  15.597  0.2810  0.4359  0.3173
16551TIP3    H171068   0.720   3.648  15.515  1.3502  0.3243  0.0527
16551TIP3    H271069   0.753   3.784  15.572  2.1745  0.1727 -0.0571
16552TIP3   OH271070   0.710   5.944  13.475  0.3421  0.2336 -0.1339
16552TIP3    H171071   0.709   5.849  13.487  0.1157 -0.1176 -2.5646
16552TIP3    H271072   0.801   5.969  13.492  0.6206 -0.5629 -0.4243
16553TIP3   OH271073   1.397   6.702  12.897 -0.3621  0.3790  0.4425
16553TIP3    H171074   1.305   6.704  12.873 -1.0399 -3.0277  2.4380
16553TIP3    H271075   1.398   6.714  12.992  1.2987  0.8156  0.3949
16554TIP3   OH271076   0.680   4.380   2.481  0.2464  0.3682  0.0678
16554TIP3    H171077   0.756   4.329   2.452  0.6968  1.4916 -0.7626
16554TIP3    H271078   0.718   4.458   2.521 -0.4568  0.4221  0.6328
16555TIP3   OH271079   1.097   0.349   3.590 -0.2630 -0.1691 -0.5474
16555TIP3    H171080   1.082   0.405   3.514 -1.8142 -1.7172 -1.4252
16555TIP3    H271081   1.184   0.375   3.622  0.3549  0.6178 -2.7539
16556TIP3   OH271082   6.337   1.831   2.798 -0.3877  0.0647  0.1796
16556TIP3    H171083   6.291   1.837   2.882 -2.1821  0.4092 -0.7991
16556TIP3    H271084   6.426   1.805   2.821 -0.8696  0.1136  2.1853
16557TIP3   OH271085   1.800   1.379   1.490  0.4531  0.3956  0.0405
16557TIP3    H171086   1.706   1.397   1.498  0.6715  1.7945 -0.2657
16557TIP3    H271087   1.842   1.461   1.518  1.5824 -0.2673  0.3005
16558TIP3   OH271088   6.560   5.142  16.525  0.2459 -0.0190  0.1137
16558TIP3    H171089   6.577   5.114  16.615  1.1792  0.6753  0.1682
16558TIP3    H271090   6.647   5.167  16.492 -0.1046 -0.1967 -0.9485
16559TIP3   OH271091   2.190   5.730  13.217  0.0524  0.5074 -0.0529
16559TIP3    H171092   2.215   5.749  13.308 -1.2987 -0.3450  0.5185
16559TIP3    H271093   2.263   5.680  13.182  0.2445  0.1571  0.8263
16560TIP3   OH271094   0.697   2.157  10.620 -0.5292 -0.6863 -0.4876
16560TIP3    H171095   0.700   2.076  10.671 -0.8356 -0.9528 -0.8837
16560TIP3    H271096   0.605   2.183  10.620 -0.3135  0.0988  0.3083
16561TIP3   OH271097   5.910   6.245  13.081  0.0703  0.2200  0.0889
16561TIP3    H171098   6.001   6.232  13.053 -0.1719 -1.3001 -0.0713
16561TIP3    H271099   5.916   6.285  13.168  0.9703 -2.5773  1.3762
16562TIP3   OH271100   6.049   3.221  11.512 -0.6436  0.2237 -0.0997
16562TIP3    H171101   5.965   3.176  11.515 -1.2539  1.3313 -0.1010
16562TIP3    H271102   6.059   3.258  11.600  0.3169 -0.7289  0.2001
16563TIP3   OH271103   0.731   5.010  11.588  0.5011  0.0801 -0.4908
16563TIP3    H171104   0.647   5.048  11.615  0.6046  0.7660 -1.1261
16563TIP3    H271105   0.715   4.916  11.583  0.2120  0.0357  1.0065
16564TIP3   OH271106   1.334   2.369   3.348 -0.2020  0.1432  0.1237
16564TIP3    H171107   1.350   2.276   3.330 -1.5858 -0.3160  1.1787
16564TIP3    H271108   1.420   2.410   3.339  0.0498 -0.8528 -2.5187
16565TIP3   OH271109   4.001   2.052  13.307 -0.0300  0.2454 -0.9615
16565TIP3    H171110   3.945   2.103  13.247  1.2719  0.6321 -1.8698
16565TIP3    H271111   4.090   2.075  13.281  0.5557 -1.0452 -0.1009
16566TIP3   OH271112   0.389   1.691   1.679 -0.6227  0.1245 -0.2565
16566TIP3    H171113   0.345   1.609   1.658  0.0082  0.0054 -1.1296
16566TIP3    H271114   0.349   1.719   1.761 -2.6206  0.2300 -1.2273
16567TIP3   OH271115   3.282   6.116   4.660 -0.0129  0.8946 -0.0347
16567TIP3    H171116   3.345   6.181   4.628  1.0341  0.2663  0.7376
16567TIP3    H271117   3.234   6.162   4.729 -1.2120  1.7467 -1.3972
16568TIP3   OH271118   3.005   0.084   6.672 -0.1389  0.0865 -0.1306
16568TIP3    H171119   2.910   0.083   6.669 -0.1496  0.4116  0.0869
16568TIP3    H271120   3.029   0.008   6.726 -0.3070  0.6080  0.6769
16569TIP3   OH271121   1.889   5.293  16.851 -0.4310  1.0278  0.2528
16569TIP3    H171122   1.952   5.329  16.913 -1.3871  1.0601  1.2170
16569TIP3    H271123   1.874   5.204  16.882  1.3450 -0.0035 -1.6781
16570TIP3   OH271124   3.481   1.462  14.704 -0.0423 -0.4288 -0.1059
16570TIP3    H171125   3.541   1.427  14.770 -1.1385  1.3591  1.9220
16570TIP3    H271126   3.537   1.505  14.640  1.0114 -1.7221 -0.0734
16571TIP3   OH271127   0.914   4.240  11.551  0.2851 -0.7703 -0.2256
16571TIP3    H171128   1.008   4.233  11.570  0.0033 -1.5556  0.8728
16571TIP3    H271129   0.885   4.150  11.540 -0.2933 -0.5141 -0.8500
16572TIP3   OH271130   6.004   3.097  17.190 -0.0932  0.3891  0.4193
16572TIP3    H171131   6.028   3.132  17.276 -0.2747  0.6303  0.3765
16572TIP3    H271132   5.921   3.142  17.169 -1.4592 -1.6491  1.3018
16573TIP3   OH271133   5.289   1.990  13.444 -0.0560  0.4197  0.0356
16573TIP3    H171134   5.370   2.040  13.448  0.1160  0.1810 -0.4987
16573TIP3    H271135   5.297   1.925  13.514 -0.2836  1.1344  0.7370
16574TIP3   OH271136   3.958   6.183   2.035  0.2958  0.0101 -0.1642
16574TIP3    H171137   3.909   6.261   2.010  1.6686  0.9067 -0.0973
16574TIP3    H271138   4.025   6.174   1.967  0.0148 -1.2381 -0.2894
16575TIP3   OH271139   4.667   3.652  16.185 -0.0608  1.0085  0.0495
16575TIP3    H171140   4.738   3.619  16.239 -0.8327 -0.0110  0.4482
16575TIP3    H271141   4.637   3.731  16.230  1.3584  1.9191 -0.5641
16576TIP3   OH271142   0.966   1.839   4.186 -0.3053 -0.1505 -0.9360
16576TIP3    H171143   0.969   1.752   4.147  0.8372  0.4098 -2.1105
16576TIP3    H271144   0.935   1.824   4.276  1.3476 -1.9309 -0.6470
16577TIP3   OH271145   4.673   3.112   4.706 -0.0458 -0.4592  0.5760
16577TIP3    H171146   4.607   3.159   4.656  0.3504 -0.4924  0.0200
16577TIP3    H271147   4.687   3.167   4.784  0.8300  0.6532 -0.3496
16578TIP3   OH271148   5.977   2.141  16.231  0.9098 -0.2132  0.1283
16578TIP3    H171149   5.915   2.069  16.227 -0.1099  0.6596  0.0592
16578TIP3    H271150   5.962   2.190  16.150  2.0474 -0.2721 -0.1358
16579TIP3   OH271151   4.204   0.180   0.164 -0.3389 -0.2879  0.1226
16579TIP3    H171152   4.286   0.163   0.117 -1.0526 -0.9365 -0.8999
16579TIP3    H271153   4.187   0.099   0.212 -1.2640 -0.7787 -1.0148
16580TIP3   OH271154   2.053   1.913  13.208 -0.0741  0.2601  0.0230
16580TIP3    H171155   1.990   1.844  13.186  0.4864 -1.2195  2.8067
16580TIP3    H271156   2.030   1.938  13.298  2.2122  0.9347  0.4373
16581TIP3   OH271157   4.696   4.587  15.789 -0.1778 -0.3923 -0.9044
16581TIP3    H171158   4.753   4.638  15.732  0.0076  1.2960  0.7255
16581TIP3    H271159   4.641   4.536  15.730  1.1147  0.0623 -2.5334
16582TIP3   OH271160   0.589   1.962  14.332 -0.0844 -0.0334  0.2168
16582TIP3    H171161   0.648   1.897  14.294 -1.1695 -1.8819  1.6193
16582TIP3    H271162   0.522   1.911  14.375 -0.6417  2.0331  1.8702
16583TIP3   OH271163   1.182   0.698   2.528 -0.0882 -0.2976  0.1450
16583TIP3    H171164   1.265   0.674   2.486  0.2750  1.1173  0.0122
16583TIP3    H271165   1.208   0.754   2.601 -0.8966 -0.1866  0.3512
16584TIP3   OH271166   5.553   6.712  14.859 -0.4918 -0.3666 -0.2686
16584TIP3    H171167   5.509   6.639  14.905 -1.6362 -0.4261 -1.4274
16584TIP3    H271168   5.483   6.753  14.808  0.5980  0.2365 -1.2837
16585TIP3   OH271169   3.530   1.468   1.392  0.5136 -0.1851 -0.4452
16585TIP3    H171170   3.528   1.388   1.339  2.5523 -2.0222  2.1441
16585TIP3    H271171   3.493   1.442   1.476 -1.4047  2.3537 -0.4344
16586TIP3   OH271172   3.647   0.763  15.941 -0.4924  0.0310  0.5548
16586TIP3    H171173   3.693   0.722  16.014 -3.2250 -0.0975  2.2658
16586TIP3    H271174   3.636   0.854  15.967  1.1109  0.6878 -1.0141
16587TIP3   OH271175   5.919   0.637  13.756 -0.1274  0.0860  0.1531
16587TIP3    H171176   5.928   0.613  13.664  0.2755 -0.5534  0.3611
16587TIP3    H271177   5.940   0.731  13.758 -0.2782  0.1363 -0.4207
16588TIP3   OH271178   4.145   4.205   5.315  0.2123 -0.0472  0.3582
16588TIP3    H171179   4.071   4.144   5.311  0.1618 -0.1598  2.3502
16588TIP3    H271180   4.136   4.246   5.401 -0.1030  3.2233 -1.1568
16589TIP3   OH271181   3.088   1.866   3.236  0.2592 -0.4387  0.2661
16589TIP3    H171182   3.155   1.930   3.212 -0.8252  0.5896 -0.0473
16589TIP3    H271183   3.015   1.919   3.268 -0.3862 -1.5535  0.6398
16590TIP3   OH271184   0.413   1.462   1.058 -0.2909 -0.1003 -0.0846
16590TIP3    H171185   0.508   1.445   1.062 -0.2570 -0.1038 -0.8132
16590TIP3    H271186   0.374   1.375   1.046 -0.3884 -0.1079  0.3067
16591TIP3   OH271187   1.495   3.215   0.226 -0.4393 -0.9397 -0.2025
16591TIP3    H171188   1.414   3.189   0.269  0.5384 -1.8715  1.1299
16591TIP3    H271189   1.547   3.135   0.221 -0.4131 -0.8119 -2.9464
16592TIP3   OH271190   1.632   5.595   5.210 -0.1768  0.1047 -0.2748
16592TIP3    H171191   1.665   5.528   5.269  1.5584  1.9734  0.9598
16592TIP3    H271192   1.623   5.551   5.126  2.0278 -1.4047  0.2296
16593TIP3   OH271193   2.775   3.811   3.525  0.1000  0.5982 -0.0355
16593TIP3    H171194   2.698   3.831   3.579 -2.1100 -3.5163 -1.4499
16593TIP3    H271195   2.753   3.845   3.439  0.8724  1.3799  0.0637
16594TIP3   OH271196   4.073   2.513  13.520  0.1149 -0.4016 -0.3163
16594TIP3    H171197   4.018   2.486  13.446  1.1949 -0.6369 -1.0524
16594TIP3    H271198   4.078   2.435  13.575  1.2387 -0.9845 -1.2098
16595TIP3   OH271199   1.542   6.685   4.968  0.1565 -0.5244  0.2722
16595TIP3    H171200   1.585   6.723   4.892  0.2105 -0.3377  0.3960
16595TIP3    H271201   1.460   6.649   4.934 -1.2752  2.2586  0.6505
16596TIP3   OH271202   4.754   4.764  11.599 -0.7025 -0.2456  0.2072
16596TIP3    H171203   4.738   4.705  11.525  0.5104 -1.7280  1.0850
16596TIP3    H271204   4.691   4.738  11.666 -1.2278  0.5242  0.0206
16597TIP3   OH271205   4.022   5.208  16.256 -0.6695 -0.4927  0.4367
16597TIP3    H171206   4.112   5.215  16.290 -0.9608 -0.1694  1.1603
16597TIP3    H271207   4.020   5.124  16.211 -0.1036 -0.6682  0.7310
16598TIP3   OH271208   3.064   5.249   3.509 -0.2132  0.3948  0.7786
16598TIP3    H171209   3.057   5.245   3.604 -2.5552 -0.5413  0.6162
16598TIP3    H271210   2.976   5.272   3.479 -0.2187 -2.0230 -1.2642
16599TIP3   OH271211   3.864   3.382   3.270  0.6193  0.0581  0.7376
16599TIP3    H171212   3.819   3.374   3.186  1.1630  0.2579  0.4299
16599TIP3    H271213   3.871   3.292   3.302  2.2822 -0.2317 -0.4120
16600TIP3   OH271214   6.295   4.618   0.699 -0.2388  0.4401 -0.4006
16600TIP3    H171215   6.234   4.668   0.646 -0.4804 -1.2394 -1.7585
16600TIP3    H271216   6.355   4.577   0.636  1.6372  1.2137  0.8466
16601TIP3   OH271217   1.594   3.353   4.368  0.0364  0.2500  0.2999
16601TIP3    H171218   1.568   3.261   4.378 -1.3015  0.4269 -1.2505
16601TIP3    H271219   1.581   3.371   4.275  3.9112  0.9668 -0.1918
16602TIP3   OH271220   6.080   0.598   0.803  0.3971  0.2970 -0.2065
16602TIP3    H171221   6.115   0.682   0.833  1.9759 -1.3324  2.7078
16602TIP3    H271222   6.003   0.583   0.857 -0.0389 -0.0174 -0.9094
16603TIP3   OH271223   0.902   6.550  14.425 -0.3288  0.0740  0.1068
16603TIP3    H171224   0.920   6.467  14.470 -0.4850 -0.3630 -0.6286
16603TIP3    H271225   0.868   6.608  14.493  1.0938 -0.0215  0.9130
16604TIP3   OH271226   2.625   5.003  12.029 -0.1478 -0.9069 -0.4734
16604TIP3    H171227   2.535   4.975  12.011 -0.5958 -0.3192  0.8258
16604TIP3    H271228   2.663   4.931  12.080 -0.9238  0.2705  1.8226
16605TIP3   OH271229   5.357   1.150  13.944  1.2232  0.0970  0.1496
16605TIP3    H171230   5.444   1.190  13.947  0.3733  2.1009 -1.4463
16605TIP3    H271231   5.296   1.223  13.946 -0.4270 -1.2403  0.0463
16606TIP3   OH271232   5.409   5.355  12.231 -0.1434 -0.4244  0.0350
16606TIP3    H171233   5.415   5.268  12.191  1.0532 -0.1345 -0.4351
16606TIP3    H271234   5.419   5.416  12.158  0.5744  0.1088  0.5750
16607TIP3   OH271235   2.796   1.231  14.070 -0.0612  0.1138  0.3667
16607TIP3    H171236   2.822   1.286  14.143  3.6132  0.0419 -0.7871
16607TIP3    H271237   2.751   1.157  14.110 -0.2189  1.2598  2.3432
16608TIP3   OH271238   3.052   3.777   2.946 -0.4230  0.8624 -0.0911
16608TIP3    H171239   2.971   3.754   2.991 -0.9180  1.0331 -0.8922
16608TIP3    H271240   3.121   3.746   3.005 -1.0636  0.3676  0.4147
16609TIP3   OH271241   1.087   5.785   4.050  0.2392  0.1557 -0.2626
16609TIP3    H171242   1.036   5.711   4.017 -0.2851 -0.4640  1.8278
16609TIP3    H271243   1.026   5.858   4.053 -0.0064 -0.0646  0.3036
16610TIP3   OH271244   2.307   0.591   4.052  0.4620  0.0986  0.2407
16610TIP3    H171245   2.305   0.685   4.035  0.2846 -0.0155 -0.3733
16610TIP3    H271246   2.372   0.581   4.121  0.2208  0.7105  0.5577
16611TIP3   OH271247   4.297   6.479  15.730 -0.4501  0.1414  0.4763
16611TIP3    H171248   4.237   6.484  15.805 -1.5016 -2.0820 -0.1615
16611TIP3    H271249   4.350   6.401  15.748 -1.4106 -1.0214 -1.5621
16612TIP3   OH271250   3.150   4.109   1.200 -0.0702 -0.2810  0.0415
16612TIP3    H171251   3.120   4.132   1.112  0.7352  0.7035  0.0194
16612TIP3    H271252   3.094   4.160   1.258  0.5415  0.3954  0.0437
16613TIP3   OH271253   0.126   2.366   2.437  0.4974 -0.1381 -0.1845
16613TIP3    H171254   0.153   2.443   2.487 -0.2730 -0.0275  0.0726
16613TIP3    H271255   0.206   2.316   2.424  0.7676  0.0085  0.8731
16614TIP3   OH271256   3.422   1.798   3.200 -0.4316 -0.2678  0.2598
16614TIP3    H171257   3.334   1.826   3.175 -0.0778  0.5377 -0.1345
16614TIP3    H271258   3.469   1.880   3.216  1.0235 -0.5831 -2.2112
16615TIP3   OH271259   2.762   3.142   5.669 -0.0020 -0.2110  0.0556
16615TIP3    H171260   2.841   3.101   5.634 -0.5959 -1.8741  0.5911
16615TIP3    H271261   2.738   3.208   5.603  0.5861 -1.2255 -1.2099
16616TIP3   OH271262   3.748   4.708  13.669  0.3348  0.0062  0.1121
16616TIP3    H171263   3.759   4.759  13.749 -1.4987  0.8245 -0.1371
16616TIP3    H271264   3.761   4.770  13.598 -1.2347  0.0105 -0.1950
16617TIP3   OH271265   0.645   0.115  15.745  0.5479  0.1931 -0.2666
16617TIP3    H171266   0.673   0.144  15.658  3.6180 -1.7923 -0.0161
16617TIP3    H271267   0.638   0.020  15.736 -0.8162  0.1503  1.2164
16618TIP3   OH271268   2.503   6.157   3.677  0.1803  0.3296 -0.3094
16618TIP3    H171269   2.552   6.144   3.758 -1.1809 -1.5593  0.2470
16618TIP3    H271270   2.569   6.182   3.612  1.4235  0.8571  1.1312
16619TIP3   OH271271   0.885   4.095  12.528 -0.0577  0.4334  0.0622
16619TIP3    H171272   0.825   4.021  12.533 -2.0610  2.1317  3.1157
16619TIP3    H271273   0.848   4.151  12.460 -0.5735  0.2702  0.2023
16620TIP3   OH271274   6.075   3.657   3.366  0.5417  0.4514 -0.0955
16620TIP3    H171275   6.123   3.602   3.303 -1.4455  0.6594 -1.8464
16620TIP3    H271276   6.065   3.741   3.321 -0.1607  0.8735  0.8510
16621TIP3   OH271277   0.978   2.286  13.077  0.6990 -0.5307 -0.4730
16621TIP3    H171278   1.021   2.257  12.997 -1.2117 -0.1698 -1.6577
16621TIP3    H271279   0.908   2.344  13.048 -0.0422 -0.4108  1.4543
16622TIP3   OH271280   6.163   5.912   0.761 -0.1112 -0.1238 -0.1057
16622TIP3    H171281   6.240   5.965   0.782  0.5049 -1.1975  0.3835
16622TIP3    H271282   6.094   5.948   0.817  0.1060  0.6479 -0.3243
16623TIP3   OH271283   3.906   6.526  11.381 -0.3525 -0.3655  0.2285
16623TIP3    H171284   3.845   6.583  11.427  1.5389  2.4965 -0.7171
16623TIP3    H271285   3.990   6.539  11.426  0.6603 -0.4651 -1.5664
16624TIP3   OH271286   2.714   5.637  15.850 -0.0872 -0.2082 -0.6471
16624TIP3    H171287   2.679   5.643  15.939  0.8081  0.5781 -0.3453
16624TIP3    H271288   2.805   5.665  15.858  0.0931 -0.4582 -1.7561
16625TIP3   OH271289   1.857   4.408  14.423  0.0161 -0.1553  0.0142
16625TIP3    H171290   1.814   4.478  14.472  0.4663 -0.2866  0.6051
16625TIP3    H271291   1.796   4.388  14.352 -0.0633  0.8986 -0.2210
16626TIP3   OH271292   4.622   2.217   3.720  0.0576 -0.4652  0.2887
16626TIP3    H171293   4.570   2.231   3.799 -0.6496 -2.2690  0.1637
16626TIP3    H271294   4.608   2.125   3.697  0.0994  0.0546 -2.0310
16627TIP3   OH271295   2.142   4.562  16.651  0.0034  0.1687  0.2336
16627TIP3    H171296   2.137   4.627  16.582 -1.6011 -0.1351  0.0384
16627TIP3    H271297   2.131   4.478  16.607 -1.4104 -0.0044  0.8701
16628TIP3   OH271298   1.825   3.806  11.511 -0.1502  0.0629 -0.0935
16628TIP3    H171299   1.797   3.723  11.474 -0.2100 -0.2947  0.7470
16628TIP3    H271300   1.883   3.782  11.584  0.5540  0.7632 -0.4083
16629TIP3   OH271301   4.564   2.092  16.866 -0.0135  0.4768  0.2709
16629TIP3    H171302   4.553   2.147  16.788  0.8716  0.2826  0.0000
16629TIP3    H271303   4.600   2.009  16.832  1.6148  0.8556  1.0227
16630TIP3   OH271304   2.947   6.033   4.659 -0.4170 -0.2487  1.1369
16630TIP3    H171305   3.027   5.984   4.639 -0.4167 -0.0001  0.5115
16630TIP3    H271306   2.883   6.001   4.595 -0.1669  1.1896  0.1395
16631TIP3   OH271307   1.007   3.590  10.428 -0.1899  0.0725  0.3487
16631TIP3    H171308   0.984   3.504  10.391 -0.7033  0.0115  0.7965
16631TIP3    H271309   1.103   3.592  10.425 -0.1454 -0.7795  0.9167
16632TIP3   OH271310   3.569   2.620   6.190 -0.3784 -0.1736  0.1765
16632TIP3    H171311   3.617   2.607   6.272  0.5069 -1.0902 -0.4802
16632TIP3    H271312   3.510   2.545   6.185 -0.2753 -0.2324 -0.1407
16633TIP3   OH271313   5.483   4.597   2.939 -0.5274  0.1024  0.2937
16633TIP3    H171314   5.407   4.655   2.943 -0.8187 -0.2301 -0.3875
16633TIP3    H271315   5.486   4.556   3.026 -1.9197 -0.8814 -0.1176
16634TIP3   OH271316   1.747   5.341   2.802  0.5797 -0.6806  0.1114
16634TIP3    H171317   1.749   5.436   2.818  0.4804 -0.8806  1.3721
16634TIP3    H271318   1.689   5.307   2.870  0.0588 -1.5728 -0.7740
16635TIP3   OH271319   0.287   4.618  12.459 -0.0651 -0.0720 -0.3341
16635TIP3    H171320   0.260   4.702  12.497  0.8906 -0.5508  1.4365
16635TIP3    H271321   0.246   4.552  12.514  1.7837 -0.7825  0.2370
16636TIP3   OH271322   6.341   3.975  14.093 -0.6114 -0.6946  0.0477
16636TIP3    H171323   6.303   3.888  14.102 -0.9769 -0.6957 -1.4157
16636TIP3    H271324   6.427   3.960  14.053 -0.7299 -0.3812 -0.3326
16637TIP3   OH271325   1.978   4.699  13.975 -0.2248 -0.6531  0.4447
16637TIP3    H171326   1.996   4.711  13.881 -2.1149 -1.4608 -0.0520
16637TIP3    H271327   1.954   4.786  14.006 -0.6957 -0.5953 -0.0774
16638TIP3   OH271328   5.054   5.530   0.245  0.5007  0.7116 -0.4487
16638TIP3    H171329   5.074   5.491   0.160  0.1027 -0.6406  0.0683
16638TIP3    H271330   4.969   5.572   0.233 -0.1757 -0.6169 -0.3594
16639TIP3   OH271331   0.512   4.984  13.782  0.9278  0.2877 -0.4454
16639TIP3    H171332   0.490   5.050  13.716  0.9279  1.2511  0.4988
16639TIP3    H271333   0.582   5.024  13.834  0.1708 -0.0122  0.8217
16640TIP3   OH271334   5.117   4.911   4.626 -0.2637  0.6476  0.1080
16640TIP3    H171335   5.122   5.006   4.620 -0.2655  0.7165  1.1002
16640TIP3    H271336   5.089   4.882   4.539  1.7673  1.3950 -0.8347
16641TIP3   OH271337   2.616   1.461  11.923  0.5422 -0.6198  0.3055
16641TIP3    H171338   2.635   1.394  11.857  0.0459 -0.0598 -0.4121
16641TIP3    H271339   2.622   1.544  11.875 -1.2003 -0.2926  0.6447
16642TIP3   OH271340   0.801   1.292   0.581  0.4624  0.3726  0.6668
16642TIP3    H171341   0.707   1.278   0.592 -0.2257  2.5633 -1.8738
16642TIP3    H271342   0.823   1.243   0.502  1.4772 -0.0726  1.2138
16643TIP3   OH271343   6.501   3.647  13.388 -0.1229  0.0862  0.3191
16643TIP3    H171344   6.431   3.703  13.423 -2.3786 -1.2504 -1.8886
16643TIP3    H271345   6.514   3.580  13.455 -0.5509  0.7054  1.0243
16644TIP3   OH271346   3.913   2.227  15.885  0.2389 -0.4323 -0.2705
16644TIP3    H171347   3.823   2.224  15.918 -0.0970  0.9999 -1.0275
16644TIP3    H271348   3.947   2.310  15.916  0.6351 -0.0572 -1.6777
16645TIP3   OH271349   1.316   0.906   2.650 -0.0289  0.1110  0.5934
16645TIP3    H171350   1.400   0.902   2.605 -0.3650 -0.8995  0.0564
16645TIP3    H271351   1.269   0.977   2.606 -0.4515 -1.0339 -0.8167
16646TIP3   OH271352   5.065   0.469   1.515 -0.4327  0.3341  0.1278
16646TIP3    H171353   5.051   0.508   1.601  0.5145 -1.3427  1.0736
16646TIP3    H271354   4.989   0.412   1.502 -0.5313  0.5194 -0.1008
16647TIP3   OH271355   4.910   3.231  16.548 -0.1687  0.1902  0.2929
16647TIP3    H171356   4.938   3.142  16.572 -2.3155 -0.6484 -0.1362
16647TIP3    H271357   4.978   3.288  16.583  1.3976 -1.6419  0.3502
16648TIP3   OH271358   0.948   4.556   0.729  0.3320 -0.0999  0.0015
16648TIP3    H171359   0.973   4.616   0.658 -0.4151  1.8432  1.3285
16648TIP3    H271360   1.030   4.523   0.764  0.6984 -1.6405 -2.2055
16649TIP3   OH271361   0.807   0.863   2.098 -0.5726  0.5113  0.0527
16649TIP3    H171362   0.805   0.773   2.132  0.1032 -0.4728 -2.4228
16649TIP3    H271363   0.716   0.885   2.080 -0.6496 -0.0386 -0.2340
16650TIP3   OH271364   5.670   1.552   0.582  0.4737  0.1505 -0.0219
16650TIP3    H171365   5.698   1.621   0.521  0.8758  0.4946  0.5568
16650TIP3    H271366   5.659   1.475   0.526 -1.9488  1.1699 -1.0189
16651TIP3   OH271367   1.441   4.912  12.185  0.1190  0.0857 -0.0784
16651TIP3    H171368   1.361   4.898  12.235 -0.6099 -0.9430 -1.5129
16651TIP3    H271369   1.433   5.001  12.152 -1.0627 -0.4847 -1.3388
16652TIP3   OH271370   5.050   2.589   0.352 -0.1691  0.5745 -0.6824
16652TIP3    H171371   4.975   2.553   0.400  0.1349  1.4250  0.4344
16652TIP3    H271372   5.019   2.597   0.262 -0.3923 -2.0972 -0.8872
16653TIP3   OH271373   6.452   1.422  16.339  0.7488 -0.5115 -0.3364
16653TIP3    H171374   6.407   1.349  16.298  1.6720 -0.4500 -1.4897
16653TIP3    H271375   6.510   1.382  16.404  0.1846 -0.7020  0.0478
16654TIP3   OH271376   0.096   4.450  10.688 -0.4274 -0.4311  0.0580
16654TIP3    H171377   0.082   4.540  10.658 -1.9372 -0.8672 -0.5572
16654TIP3    H271378   0.186   4.450  10.720  0.1817  0.8540 -1.5717
16655TIP3   OH271379   4.552   2.276  16.663 -0.4401 -0.0001 -0.2789
16655TIP3    H171380   4.537   2.282  16.568 -0.5374  1.1548 -0.1973
16655TIP3    H271381   4.582   2.363  16.688  0.0182 -0.4326  0.6861
16656TIP3   OH271382   4.801   2.318   1.215 -0.4346  0.3301  0.8490
16656TIP3    H171383   4.875   2.271   1.177 -0.6654  1.5466 -1.1923
16656TIP3    H271384   4.740   2.249   1.241  0.3082 -0.5958  0.1813
16657TIP3   OH271385   1.907   4.547   3.218  0.2127 -0.0341 -1.0769
16657TIP3    H171386   1.886   4.578   3.306  1.3558 -2.8841  0.2611
16657TIP3    H271387   1.993   4.585   3.199  1.1501 -1.5053  0.1355
16658TIP3   OH271388   1.674   0.070   4.804  0.0889 -0.3694 -0.1781
16658TIP3    H171389   1.667   0.162   4.826  0.1855 -0.5743  0.7286
16658TIP3    H271390   1.720   0.069   4.720  0.4810  0.3868  0.0226
16659TIP3   OH271391   1.852   0.567  13.588 -0.1748  0.0251  0.4180
16659TIP3    H171392   1.824   0.503  13.523 -0.2572 -0.4934  0.9676
16659TIP3    H271393   1.876   0.516  13.665  0.9223  0.5570  0.4542
16660TIP3   OH271394   0.832   1.720   2.885  0.1525  0.0159  0.0297
16660TIP3    H171395   0.853   1.686   2.798  2.1320  1.5354 -0.1121
16660TIP3    H271396   0.737   1.714   2.890  0.1167 -1.3644 -1.7081
16661TIP3   OH271397   6.001   0.374  15.581  0.4101  0.0313 -0.0814
16661TIP3    H171398   6.004   0.364  15.486 -0.1076 -0.6893 -0.0263
16661TIP3    H271399   6.092   0.367  15.609  0.4364 -0.9299 -0.4014
16662TIP3   OH271400   3.330   1.805  12.249  0.2237  0.7866  1.0415
16662TIP3    H171401   3.358   1.753  12.173 -1.3531  0.9504  0.3343
16662TIP3    H271402   3.357   1.894  12.229 -0.9287  0.9740  0.2813
16663TIP3   OH271403   2.938   6.285  16.103 -0.6186 -0.0447  0.0855
16663TIP3    H171404   3.004   6.262  16.169 -1.5233  1.3440  1.4965
16663TIP3    H271405   2.988   6.293  16.021  0.3449 -2.9359  0.3322
16664TIP3   OH271406   4.901   4.233  13.150 -0.2051  0.0508 -0.5382
16664TIP3    H171407   4.957   4.270  13.218 -1.8730 -1.3247  1.6458
16664TIP3    H271408   4.947   4.153  13.121 -0.6357 -0.6540  0.6942
16665TIP3   OH271409   0.378   3.059  14.492  0.1420  0.2487  0.1025
16665TIP3    H171410   0.471   3.035  14.490 -0.7213 -3.6090  1.4235
16665TIP3    H271411   0.371   3.119  14.566  1.7225  1.2429 -0.5287
16666TIP3   OH271412   5.573   6.360   0.875  0.7870 -0.2149  0.1174
16666TIP3    H171413   5.584   6.307   0.954 -1.0976 -1.1565 -0.2131
16666TIP3    H271414   5.635   6.432   0.885  0.5726 -0.3248  2.4581
16667TIP3   OH271415   4.706   4.799  14.817 -0.5461 -0.4718 -0.0973
16667TIP3    H171416   4.723   4.865  14.750 -2.6094  0.7671  0.5374
16667TIP3    H271417   4.615   4.774  14.802 -0.3513 -1.7867  0.8762
16668TIP3   OH271418   0.118   0.629   0.344  0.0026 -0.4578  0.1075
16668TIP3    H171419   0.037   0.664   0.308  0.6831  1.1946  0.1137
16668TIP3    H271420   0.123   0.667   0.432  0.7059 -0.6299  0.1463
16669TIP3   OH271421   1.487   6.451  11.859  0.8647 -0.3089  0.4874
16669TIP3    H171422   1.418   6.441  11.925 -1.3428 -0.8648 -1.8184
16669TIP3    H271423   1.470   6.536  11.818  1.3909 -0.5502 -0.2589
16670TIP3   OH271424   5.643   4.065   0.440  0.3882  0.9625 -0.0747
16670TIP3    H171425   5.612   4.125   0.507  1.6136  1.9868 -0.4158
16670TIP3    H271426   5.689   3.996   0.488 -0.1340  0.8232  0.2352
16671TIP3   OH271427   3.370   2.634   1.870  0.5551  0.9987  0.2764
16671TIP3    H171428   3.380   2.730   1.872 -0.8907  1.1415  1.4733
16671TIP3    H271429   3.279   2.620   1.842  0.4696 -0.0135  1.0441
16672TIP3   OH271430   2.991   0.813  11.476 -0.2226  0.5929 -0.7357
16672TIP3    H171431   3.011   0.882  11.412 -2.8681  1.2582 -0.9274
16672TIP3    H271432   2.915   0.768  11.439 -1.9394  1.1192  2.0288
16673TIP3   OH271433   6.162   5.425  12.408 -0.4255  0.7376  0.1753
16673TIP3    H171434   6.103   5.446  12.480 -0.6368  0.3867  0.1039
16673TIP3    H271435   6.187   5.510  12.372 -0.4108  0.9123  0.5872
16674TIP3   OH271436   3.624   5.955  15.486  0.2935  0.8820 -0.2845
16674TIP3    H171437   3.639   5.907  15.405 -0.2352  1.3592 -0.6713
16674TIP3    H271438   3.684   5.915  15.549 -0.9283 -1.0541 -0.2911
16675TIP3   OH271439   3.706   6.255   4.027  0.2876  0.5896  0.1983
16675TIP3    H171440   3.641   6.319   3.999  1.1323  0.7551 -1.4352
16675TIP3    H271441   3.665   6.170   4.012  0.1299  0.7048 -0.0104
16676TIP3   OH271442   5.910   1.726   4.999 -0.2177  0.3136  0.1901
16676TIP3    H171443   5.876   1.681   4.922  1.7212 -0.1893 -0.3964
16676TIP3    H271444   5.835   1.774   5.034 -1.7556 -1.5581 -0.4737
16677TIP3   OH271445   4.566   6.424  12.072 -0.0301 -0.1580  0.1810
16677TIP3    H171446   4.482   6.438  12.030  0.3115 -0.7049 -0.6797
16677TIP3    H271447   4.622   6.494  12.038 -0.0704  0.0722  0.5813
16678TIP3   OH271448   1.337   3.950   2.202  0.0938 -0.7189  0.5299
16678TIP3    H171449   1.263   3.903   2.241  0.7068 -2.1563  0.0084
16678TIP3    H271450   1.397   3.966   2.275  0.1997 -1.3991  0.6009
16679TIP3   OH271451   5.952   0.136   4.502 -0.0298  0.3423  0.4038
16679TIP3    H171452   5.911   0.167   4.422 -0.6205 -1.6803 -0.1052
16679TIP3    H271453   6.039   0.176   4.502  0.0517  0.1930 -1.3517
16680TIP3   OH271454   4.193   6.776   5.848  0.0284  0.0712  0.1360
16680TIP3    H171455   4.151   6.787   5.763  2.6037  2.6323 -0.8975
16680TIP3    H271456   4.265   6.715   5.832 -1.8137 -2.4979  1.3821
16681TIP3   OH271457   0.864   5.297  16.066  0.0035 -0.0124 -0.0876
16681TIP3    H171458   0.912   5.280  16.147 -1.0236  0.8749  0.7370
16681TIP3    H271459   0.851   5.392  16.066 -0.3198 -0.0485 -1.1131
16682TIP3   OH271460   5.921   0.525   3.312  0.5469 -0.2786 -0.6145
16682TIP3    H171461   5.867   0.578   3.253 -1.2603  0.2128  1.4130
16682TIP3    H271462   5.985   0.587   3.348  0.3171 -0.1188 -0.4793
16683TIP3   OH271463   0.998   1.168  12.581 -0.4558  0.0452  0.0054
16683TIP3    H171464   1.010   1.142  12.489 -1.2469  0.2097 -0.1472
16683TIP3    H271465   0.915   1.128  12.606 -0.5994  0.6111  0.4304
16684TIP3   OH271466   0.642   1.989  12.793  0.1017 -0.4103 -0.3040
16684TIP3    H171467   0.735   1.970  12.810  0.1164  0.2915  0.3906
16684TIP3    H271468   0.643   2.038  12.711  0.1988 -1.8849 -1.2147
16685TIP3   OH271469   4.006   2.482  16.514  0.3151  0.6917  0.1474
16685TIP3    H171470   4.007   2.501  16.608 -1.3891  0.3055  0.2505
16685TIP3    H271471   4.032   2.390  16.508 -1.7422  0.0635  0.4271
16686TIP3   OH271472   5.914   6.161  13.540 -0.5491 -0.1904  0.2040
16686TIP3    H171473   5.969   6.088  13.567  0.1906  0.4795  0.5249
16686TIP3    H271474   5.918   6.223  13.613  0.0013  0.8127 -0.6564
16687TIP3   OH271475   0.838   3.178  14.372  0.5942 -0.7380  0.0989
16687TIP3    H171476   0.911   3.207  14.317 -0.3467  0.7436 -0.4038
16687TIP3    H271477   0.798   3.259  14.403  0.7338 -1.5469  2.5073
16688TIP3   OH271478   2.710   2.873   5.287 -0.2530 -0.3106 -0.3226
16688TIP3    H171479   2.793   2.832   5.312  2.5072  2.9798 -3.4643
16688TIP3    H271480   2.688   2.833   5.203 -0.3375  0.7548 -0.8222
16689TIP3   OH271481   2.836   5.342   2.171 -0.4324 -0.1714  0.0707
16689TIP3    H171482   2.876   5.428   2.162 -1.3986  0.2862  0.0477
16689TIP3    H271483   2.848   5.320   2.264 -0.3101  0.0530  0.1090
16690TIP3   OH271484   3.793   2.058   6.007 -0.4717  0.2376 -0.5990
16690TIP3    H171485   3.838   2.029   5.928 -0.2543 -1.5780  0.1479
16690TIP3    H271486   3.728   1.989   6.024 -1.1114  1.0495  0.3113
16691TIP3   OH271487   5.110   2.747  16.546 -0.3057  0.4418  1.0125
16691TIP3    H171488   5.161   2.824  16.571  0.0070  0.8299 -0.7184
16691TIP3    H271489   5.173   2.688  16.505 -0.8812  0.0437  0.6900
16692TIP3   OH271490   5.477   0.206  17.104 -0.7386 -0.5015 -0.2934
16692TIP3    H171491   5.542   0.136  17.098 -1.0869 -0.9348  1.0271
16692TIP3    H271492   5.393   0.161  17.097 -0.9261 -0.0325 -1.1084
16693TIP3   OH271493   0.695   5.912   2.144  0.0311 -0.5151 -0.1796
16693TIP3    H171494   0.711   5.976   2.075 -0.5982  0.1844  0.3177
16693TIP3    H271495   0.773   5.856   2.143 -0.4172 -1.1506 -2.1344
16694TIP3   OH271496   5.298   0.615   0.227  0.0577 -0.0700 -0.7021
16694TIP3    H171497   5.230   0.579   0.285  1.4154 -1.7923 -0.1511
16694TIP3    H271498   5.321   0.542   0.169  0.1580  1.0477 -2.0925
16695TIP3   OH271499   6.758   5.110  11.568  0.0604 -0.3883 -0.2068
16695TIP3    H171500   6.724   5.067  11.647 -0.3115 -0.5981 -0.4779
16695TIP3    H271501   6.688   5.100  11.504  0.1428  0.2584 -0.4029
16696TIP3   OH271502   6.662   2.515  14.075 -0.1165  0.4605 -0.3630
16696TIP3    H171503   6.596   2.570  14.117  2.2862  3.0425  0.2455
16696TIP3    H271504   6.692   2.456  14.144 -1.0277 -0.0065 -0.3620
16697TIP3   OH271505   1.830   1.807  14.959  0.1984  0.1941  0.0574
16697TIP3    H171506   1.890   1.797  15.033  1.2251  2.2301 -0.4639
16697TIP3    H271507   1.862   1.885  14.913 -1.6066  0.0914 -1.4105
16698TIP3   OH271508   6.444   5.428  12.755 -0.3011  0.0323 -0.2098
16698TIP3    H171509   6.507   5.394  12.691 -0.0161 -2.2008  1.2083
16698TIP3    H271510   6.493   5.494  12.804  1.0397 -1.7921  0.9750
16699TIP3   OH271511   6.354   0.828  15.606  0.2251  0.1456  0.3496
16699TIP3    H171512   6.284   0.784  15.653 -0.7736 -0.4302 -1.6120
16699TIP3    H271513   6.361   0.914  15.648 -2.2235  0.5086  0.0540
16700TIP3   OH271514   6.634   4.932  12.980 -0.4695 -0.0114 -0.0409
16700TIP3    H171515   6.634   5.015  13.027  1.6352 -0.6625  1.1365
16700TIP3    H271516   6.594   4.870  13.040 -1.4086 -0.0300 -0.6616
16701TIP3   OH271517   0.304   2.342   1.247 -0.6452  0.5448 -0.1477
16701TIP3    H171518   0.262   2.333   1.161  0.8839 -0.0536 -0.8444
16701TIP3    H271519   0.301   2.254   1.284  1.9887  0.0028 -1.1562
16702TIP3   OH271520   0.789   1.319   5.531  0.2305  0.2785  1.0232
16702TIP3    H171521   0.772   1.402   5.486  0.0553 -0.0185  0.5479
16702TIP3    H271522   0.881   1.301   5.513 -0.2998 -0.7645 -0.7378
16703TIP3   OH271523   2.215   5.080  12.063  0.1257  0.2237 -0.1867
16703TIP3    H171524   2.246   5.086  11.973  1.4284 -0.3462  0.2047
16703TIP3    H271525   2.251   4.998  12.095 -1.4358 -0.2275  0.4483
16704TIP3   OH271526   5.620   0.367  16.148 -0.2726 -0.1253  0.0289
16704TIP3    H171527   5.688   0.314  16.108 -1.2137 -0.8456 -0.6390
16704TIP3    H271528   5.599   0.321  16.230 -1.1227 -0.8181 -0.5745
16705TIP3   OH271529   3.978   3.885  14.704 -0.1932 -0.5257  0.0502
16705TIP3    H171530   3.961   3.967  14.659  0.5417 -0.2858  0.1920
16705TIP3    H271531   3.912   3.824  14.671 -0.8606  0.1759  0.0952
16706TIP3   OH271532   3.032   1.757   1.833 -0.8791 -0.3862  0.6354
16706TIP3    H171533   3.063   1.709   1.909 -0.4325 -1.5457 -0.2707
16706TIP3    H271534   3.110   1.798   1.796 -1.0219 -0.2103  0.5247
16707TIP3   OH271535   0.193   1.679   3.595  0.0778 -0.1388 -0.0935
16707TIP3    H171536   0.233   1.709   3.513 -0.6159  1.8647  0.2880
16707TIP3    H271537   0.221   1.742   3.661 -0.4081 -1.0130  0.9728
16708TIP3   OH271538   0.922   3.989  15.790 -0.2277  0.1073  0.1656
16708TIP3    H171539   1.005   3.989  15.838 -0.6133 -0.1235  0.8412
16708TIP3    H271540   0.943   3.949  15.705  0.5430  0.8765 -0.0104
16709TIP3   OH271541   0.630   0.290   4.282 -0.3557 -0.7353 -0.2267
16709TIP3    H171542   0.703   0.243   4.322 -0.2051 -0.5788 -0.3217
16709TIP3    H271543   0.590   0.226   4.223  0.0057 -0.6634 -0.5487
16710TIP3   OH271544   5.130   6.158  16.170  0.0450 -0.0760 -0.0939
16710TIP3    H171545   5.068   6.131  16.102 -1.1402 -1.6708  1.5914
16710TIP3    H271546   5.086   6.229  16.216  0.3071  0.1208 -0.1440
16711TIP3   OH271547   5.288   1.579  11.546  0.5660  0.5854  0.1196
16711TIP3    H171548   5.263   1.652  11.603 -0.9394 -0.6642  1.1383
16711TIP3    H271549   5.295   1.617  11.459 -2.3537  1.5789  0.2498
16712TIP3   OH271550   2.184   4.654   5.263 -0.0433  0.4409  0.5816
16712TIP3    H171551   2.135   4.584   5.306 -0.9061  0.3790 -0.4952
16712TIP3    H271552   2.237   4.692   5.333 -1.8917  0.7463  1.8330
16713TIP3   OH271553   0.650   1.862   5.616  0.2533 -0.1453  0.1541
16713TIP3    H171554   0.578   1.802   5.599  0.0724 -0.0752  0.6592
16713TIP3    H271555   0.673   1.896   5.529 -0.7654  0.3369  0.0586
16714TIP3   OH271556   3.384   0.575   1.893  0.2892 -0.2860  0.1831
16714TIP3    H171557   3.462   0.629   1.902 -0.0530 -0.0354  1.7125
16714TIP3    H271558   3.317   0.636   1.859 -0.4930  0.6472  3.2642
16715TIP3   OH271559   2.556   0.661  14.784 -0.1348 -0.2881 -0.6059
16715TIP3    H171560   2.491   0.662  14.714  0.5063  2.5760 -1.1960
16715TIP3    H271561   2.611   0.737  14.767  1.3132 -0.7531  1.8264
16716TIP3   OH271562   0.487   1.652   0.543  0.2774  0.2820  0.3359
16716TIP3    H171563   0.406   1.660   0.593 -1.2112 -4.4931 -1.0368
16716TIP3    H271564   0.466   1.691   0.458  0.3851  1.6472  0.9262
16717TIP3   OH271565   5.287   1.194   2.389  0.4256  0.4240  0.2229
16717TIP3    H171566   5.201   1.193   2.345  0.5353  1.5734 -0.0281
16717TIP3    H271567   5.267   1.205   2.481  0.3122  1.0140  0.1286
16718TIP3   OH271568   1.697   5.879   4.446 -0.4703 -0.4659  0.3158
16718TIP3    H171569   1.744   5.801   4.472  0.7967  0.6943  1.5812
16718TIP3    H271570   1.623   5.884   4.507  0.0384 -0.1212  0.9110
16719TIP3   OH271571   1.470   0.201   3.798  0.1285 -0.0873  0.2547
16719TIP3    H171572   1.410   0.260   3.843  1.8593  1.2884  0.7907
16719TIP3    H271573   1.445   0.207   3.706 -1.3124 -0.4309  0.6122
16720TIP3   OH271574   1.782   5.536  14.798  0.8109 -0.5517  0.3129
16720TIP3    H171575   1.793   5.631  14.809  0.9586 -0.5599  0.2491
16720TIP3    H271576   1.868   5.500  14.821  1.5016 -0.4656 -2.0268
16721TIP3   OH271577   5.468   5.806  10.858  0.2613  0.7960  0.3472
16721TIP3    H171578   5.453   5.857  10.778  0.5870 -0.3751 -0.4814
16721TIP3    H271579   5.388   5.753  10.867  0.2203  0.9342  0.8084
16722TIP3   OH271580   4.128   1.995   2.682  0.1297  0.3010  0.2860
16722TIP3    H171581   4.202   1.944   2.715  0.0714  0.1097  0.1245
16722TIP3    H271582   4.089   1.939   2.614  1.3633  1.4539 -1.4342
16723TIP3   OH271583   1.403   4.152  16.241 -0.4105  0.1715  0.7211
16723TIP3    H171584   1.395   4.134  16.335 -1.7757  1.8160  0.9593
16723TIP3    H271585   1.322   4.198  16.219  0.7452  1.5430 -0.8348
16724TIP3   OH271586   3.492   2.840  12.567  1.0270 -0.2809 -0.5195
16724TIP3    H171587   3.473   2.852  12.661 -0.1527  1.2007 -0.9241
16724TIP3    H271588   3.530   2.924  12.540 -1.0957  0.2652 -1.9338
16725TIP3   OH271589   0.884   5.346   0.858  0.0421 -0.5106  0.4741
16725TIP3    H171590   0.858   5.279   0.794 -1.0194 -0.8879  1.2696
16725TIP3    H271591   0.979   5.350   0.852 -0.0400 -0.6378 -1.0327
16726TIP3   OH271592   4.997   1.736   4.592  0.0560 -0.5620  0.3726
16726TIP3    H171593   4.945   1.707   4.666  0.6421  0.7891  1.3293
16726TIP3    H271594   5.023   1.655   4.547 -0.2299 -1.3881  1.6780
16727TIP3   OH271595   1.833   1.029   0.205  0.4522  0.3782  0.0350
16727TIP3    H171596   1.832   0.939   0.173  2.6958  0.0780  0.7463
16727TIP3    H271597   1.879   1.078   0.138 -2.2773  1.3708 -1.1897
16728TIP3   OH271598   2.275   2.047   0.869 -0.1291  0.2861  0.3815
16728TIP3    H171599   2.287   2.141   0.865 -0.9847  0.4065  0.5550
16728TIP3    H271600   2.200   2.029   0.812  0.6052 -0.3988 -0.3888
16729TIP3   OH271601   2.959   4.487  16.112 -0.4829  0.7065  0.0084
16729TIP3    H171602   2.882   4.521  16.158 -0.6354  1.0369 -0.4822
16729TIP3    H271603   2.928   4.470  16.023  0.2265  1.7171 -0.4456
16730TIP3   OH271604   2.200   1.794  16.594  0.4897 -0.0360  0.2910
16730TIP3    H171605   2.135   1.816  16.661 -3.3194 -1.0255 -2.8826
16730TIP3    H271606   2.257   1.870  16.590 -1.1504  1.3640  2.3779
16731TIP3   OH271607   1.050   4.048  11.789  0.1605  0.9446  0.7080
16731TIP3    H171608   1.122   4.006  11.742 -0.5477  0.7823 -0.2429
16731TIP3    H271609   1.028   3.986  11.858  0.1730  0.4766  0.2958
16732TIP3   OH271610   6.130   6.714  14.123  0.1338  0.3223  0.0938
16732TIP3    H171611   6.093   6.795  14.089 -0.7056  0.5706  1.5458
16732TIP3    H271612   6.152   6.734  14.214  2.5154 -0.2693 -0.3360
16733TIP3   OH271613   6.222   5.765  11.237 -0.7106 -0.0384  0.4379
16733TIP3    H171614   6.214   5.677  11.272 -2.3726 -0.5322 -1.0856
16733TIP3    H271615   6.134   5.786  11.205  0.2348  1.1905 -1.4426
16734TIP3   OH271616   3.298   0.127   2.023 -0.3018  0.3380  0.2890
16734TIP3    H171617   3.228   0.063   2.015 -0.9322  0.8397  1.6389
16734TIP3    H271618   3.357   0.108   1.949 -1.0412 -1.0743  0.0495
16735TIP3   OH271619   5.974   4.221  14.700  0.1597 -0.6976 -0.0410
16735TIP3    H171620   5.919   4.298  14.688  1.3063 -0.0775 -1.4457
16735TIP3    H271621   6.063   4.253  14.688  0.6811 -2.1452 -0.0982
16736TIP3   OH271622   0.258   1.389  11.777  0.2863 -0.2997  0.0310
16736TIP3    H171623   0.236   1.350  11.692  0.0609 -1.7399  0.7276
16736TIP3    H271624   0.173   1.403  11.819  0.4463 -0.6494  0.4722
16737TIP3   OH271625   1.382   2.233  17.096  0.0725 -0.5541  0.6088
16737TIP3    H171626   1.327   2.257  17.170  0.8347  0.0076  0.9941
16737TIP3    H271627   1.321   2.221  17.023 -0.4748  0.9715  0.8096
16738TIP3   OH271628   5.586   3.079  16.299 -0.0068 -0.1295  0.3701
16738TIP3    H171629   5.555   3.127  16.222  1.1999  0.2455  0.1132
16738TIP3    H271630   5.564   2.988  16.282  2.4336 -0.4077 -1.5413
16739TIP3   OH271631   6.524   6.191  13.332  0.6278  0.2685  0.5831
16739TIP3    H171632   6.538   6.109  13.285 -0.7246 -0.8820  2.0982
16739TIP3    H271633   6.432   6.211  13.318  1.2360  2.2258 -0.8029
16740TIP3   OH271634   3.398   0.077   0.827  0.2598 -0.0858 -0.0234
16740TIP3    H171635   3.412   0.142   0.758  0.3572 -1.0663 -0.9369
16740TIP3    H271636   3.341   0.011   0.786 -1.4703  0.4027  1.5070
16741TIP3   OH271637   5.572   2.250  15.351  0.0155 -0.2273  0.5863
16741TIP3    H171638   5.597   2.331  15.305  0.7946 -0.9347 -0.2473
16741TIP3    H271639   5.642   2.237  15.415 -0.7655  0.4365  1.6003
16742TIP3   OH271640   6.501   0.891  11.843 -0.1425  0.5517  0.0627
16742TIP3    H171641   6.414   0.930  11.830  0.7075  2.3888 -0.2770
16742TIP3    H271642   6.521   0.907  11.935  0.1191  0.7117 -0.0222
16743TIP3   OH271643   4.156   5.259   5.513  0.2383  0.1263 -0.5232
16743TIP3    H171644   4.173   5.167   5.532 -0.6139  0.3575  1.4267
16743TIP3    H271645   4.198   5.307   5.584  0.1102  1.2274 -1.1738
16744TIP3   OH271646   0.736   0.290   6.292  0.4922  0.1365 -0.2530
16744TIP3    H171647   0.747   0.197   6.309 -1.3735  0.3438  2.4714
16744TIP3    H271648   0.642   0.301   6.278  1.0262  1.2334 -3.1815
16745TIP3   OH271649   4.567   0.442   4.259  0.1705 -0.4487  0.2937
16745TIP3    H171650   4.555   0.396   4.176 -0.9498 -0.9090  0.6970
16745TIP3    H271651   4.528   0.529   4.244  0.8869 -0.1698  0.0230
16746TIP3   OH271652   5.247   0.838   1.794 -0.1484 -0.9516  0.1534
16746TIP3    H171653   5.169   0.816   1.845 -0.1892  0.3255  0.6563
16746TIP3    H271654   5.313   0.862   1.860 -0.1746  0.6209 -0.3667
16747TIP3   OH271655   2.769   5.401   0.477  0.3310  0.5840  0.2112
16747TIP3    H171656   2.832   5.384   0.547 -0.0080  0.4111  0.4731
16747TIP3    H271657   2.823   5.407   0.398  0.6148 -0.2176  0.3379
16748TIP3   OH271658   1.507   2.643   6.606  0.8845  0.2568 -0.2464
16748TIP3    H171659   1.579   2.634   6.543  2.2034 -0.3650  1.3291
16748TIP3    H271660   1.546   2.690   6.680 -0.8679  1.7049 -0.2117
16749TIP3   OH271661   0.909   4.274   1.580 -0.6907  0.0888  0.1804
16749TIP3    H171662   0.976   4.308   1.639  0.3506 -1.4543 -0.0885
16749TIP3    H271663   0.830   4.270   1.634 -0.3615  1.0540  0.7566
16750TIP3   OH271664   1.192   0.946  16.323  0.2889  0.8024  0.4024
16750TIP3    H171665   1.146   0.931  16.406 -0.8333 -0.0745 -0.3847
16750TIP3    H271666   1.261   1.010  16.346  0.9183 -0.5162  2.3273
16751TIP3   OH271667   4.085   0.101  15.226  0.4796 -0.4449 -0.5035
16751TIP3    H171668   4.090   0.123  15.133  1.2183 -0.3561 -0.4456
16751TIP3    H271669   4.134   0.019  15.234  1.2720  0.0598 -0.0431
16752TIP3   OH271670   5.718   2.816   3.927  0.6304 -0.5139 -0.4856
16752TIP3    H171671   5.708   2.774   4.013  1.1849 -2.0498 -1.1630
16752TIP3    H271672   5.742   2.745   3.868  3.3370  1.0220 -1.3160
16753TIP3   OH271673   2.610   1.200  10.891 -0.3396  0.0411  0.0571
16753TIP3    H171674   2.613   1.145  10.813 -0.4963  1.0572 -0.6663
16753TIP3    H271675   2.524   1.243  10.887  0.5878  1.8747 -0.4399
16754TIP3   OH271676   1.876   4.125  15.130  0.2600  0.4602 -0.1454
16754TIP3    H171677   1.815   4.145  15.201  1.3563  0.5355  0.7908
16754TIP3    H271678   1.841   4.045  15.090  1.1442 -1.1761  2.2776
16755TIP3   OH271679   3.378   0.647  16.265 -0.1812  0.2669 -0.3397
16755TIP3    H171680   3.295   0.603  16.246 -0.0543 -0.0350 -0.2044
16755TIP3    H271681   3.441   0.575  16.276 -0.1232  0.4584  0.6166
16756TIP3   OH271682   3.657   2.128  16.091 -0.5321 -0.0665 -0.1922
16756TIP3    H171683   3.730   2.067  16.103 -0.7551 -0.4700 -0.8510
16756TIP3    H271684   3.629   2.114  16.001 -0.2858  1.3609 -0.4940
16757TIP3   OH271685   5.205   0.812   4.162  0.1858 -0.4312 -0.6342
16757TIP3    H171686   5.170   0.901   4.157 -3.0175 -1.4815  1.5450
16757TIP3    H271687   5.223   0.798   4.255  0.0819 -2.2461 -0.8590
16758TIP3   OH271688   2.293   5.957   0.242  0.1168  0.5463 -0.0935
16758TIP3    H171689   2.385   5.932   0.249 -0.2787 -0.9559 -0.0773
16758TIP3    H271690   2.277   5.962   0.147 -0.2134 -0.8411 -0.1138
16759TIP3   OH271691   4.325   5.010   0.123  0.0003 -0.0575  0.1029
16759TIP3    H171692   4.412   5.016   0.083 -0.2734  1.3377 -0.2980
16759TIP3    H271693   4.337   4.950   0.196  1.6887  1.3640  1.0448
16760TIP3   OH271694   1.688   4.329   1.562 -0.2556  0.0962 -0.2814
16760TIP3    H171695   1.746   4.350   1.636  1.4916 -0.7416 -1.3781
16760TIP3    H271696   1.676   4.234   1.566 -0.0833  0.0307 -1.0935
16761TIP3   OH271697   3.098   1.958  13.937 -0.2471 -0.4251 -0.1381
16761TIP3    H171698   3.135   2.004  13.861  1.5617  2.8984  2.6000
16761TIP3    H271699   3.004   1.966  13.927  0.0088  2.3640 -0.7191
16762TIP3   OH271700   3.727   2.025   1.235 -0.4234  0.1010 -0.2412
16762TIP3    H171701   3.712   2.113   1.200 -0.8993  0.1941  0.2035
16762TIP3    H271702   3.640   1.994   1.259 -0.2009 -0.3292 -0.0020
16763TIP3   OH271703   1.643   4.398  12.573 -0.1790  0.2271  0.6114
16763TIP3    H171704   1.572   4.428  12.517 -1.0680  1.2824  2.2496
16763TIP3    H271705   1.713   4.374  12.513 -0.7283  2.2907 -0.9041
16764TIP3   OH271706   5.876   2.088  12.029  0.1022 -0.4445 -0.0477
16764TIP3    H171707   5.911   2.075  11.940  0.6545 -0.6926  0.2006
16764TIP3    H271708   5.932   2.033  12.084  0.2815  0.3531  0.5669
16765TIP3   OH271709   0.214   4.677  15.889  0.3014 -0.3540  0.1214
16765TIP3    H171710   0.167   4.607  15.843  1.4581 -0.2324 -1.3003
16765TIP3    H271711   0.265   4.631  15.956 -2.1730 -0.4354  1.9849
16766TIP3   OH271712   1.785   3.980   4.859 -0.8163 -0.0138  0.0050
16766TIP3    H171713   1.770   4.063   4.814 -0.4819  0.5745  0.9706
16766TIP3    H271714   1.876   3.983   4.886 -1.0539 -0.2973  0.8571
16767TIP3   OH271715   0.938   0.479  12.768  0.5148  0.2207  0.5757
16767TIP3    H171716   0.967   0.571  12.773 -0.9443  0.7637 -0.6196
16767TIP3    H271717   0.901   0.470  12.680 -0.2832 -1.2423  1.0448
16768TIP3   OH271718   0.198   6.552  13.995  0.0513  0.0444  0.0121
16768TIP3    H171719   0.223   6.594  14.077  0.1363 -2.3364  1.2653
16768TIP3    H271720   0.111   6.515  14.012  0.1489 -0.6359 -0.9040
16769TIP3   OH271721   4.461   3.046   0.344 -0.1577  0.0464  0.1790
16769TIP3    H171722   4.539   3.058   0.291 -0.9337  0.8332 -0.8055
16769TIP3    H271723   4.388   3.067   0.285 -1.0593  0.2499  1.3414
16770TIP3   OH271724   3.321   4.727  15.474 -0.2469  0.4727  0.0348
16770TIP3    H171725   3.332   4.782  15.396 -2.1457 -0.0006 -0.5923
16770TIP3    H271726   3.301   4.790  15.544  0.1805  0.7977 -0.1337
16771TIP3   OH271727   2.597   4.486   6.037 -0.3224  0.0905  0.0939
16771TIP3    H171728   2.568   4.498   5.947 -0.4410 -1.4724 -0.0931
16771TIP3    H271729   2.600   4.391   6.049  2.2759  0.2292  0.8974
16772TIP3   OH271730   6.522   4.377  13.158 -0.0749 -0.0700 -0.1581
16772TIP3    H171731   6.516   4.322  13.081 -0.0264 -0.8685  0.4042
16772TIP3    H271732   6.496   4.320  13.231 -0.5830  0.8030  0.3559
16773TIP3   OH271733   1.396   3.048   0.678  0.5449  0.0758 -0.0520
16773TIP3    H171734   1.348   2.981   0.726  1.7419 -1.4941 -1.0069
16773TIP3    H271735   1.461   3.081   0.740 -0.3067  0.6467  0.5448
16774TIP3   OH271736   0.167   6.140   3.022 -0.4360 -0.2421 -0.5549
16774TIP3    H171737   0.144   6.111   2.933 -0.6865 -1.9725  0.0639
16774TIP3    H271738   0.217   6.068   3.059 -0.2967  0.4956  0.7122
16775TIP3   OH271739   2.917   6.366   1.436  0.0025  0.3240  0.1494
16775TIP3    H171740   2.994   6.324   1.397 -0.8774 -2.3064  1.1394
16775TIP3    H271741   2.846   6.348   1.374 -0.9755 -2.1665  1.9274
16776TIP3   OH271742   4.968   1.977   3.666 -0.6827 -0.5453  0.0523
16776TIP3    H171743   4.915   1.938   3.735  0.6320  0.5572  1.7514
16776TIP3    H271744   5.006   2.055   3.707 -0.0364  0.2499 -1.9935
16777TIP3   OH271745   3.731   3.742  12.684  0.1088 -0.5049 -0.3125
16777TIP3    H171746   3.792   3.672  12.705  1.4414  0.0402 -2.1883
16777TIP3    H271747   3.779   3.823  12.701 -0.3739 -0.0638 -0.9866
16778TIP3   OH271748   2.490   4.449  14.758 -0.5774  0.1651  0.0646
16778TIP3    H171749   2.442   4.381  14.804 -0.5809  2.4430  3.6519
16778TIP3    H271750   2.427   4.520  14.747  0.9072  1.7464  1.4942
16779TIP3   OH271751   0.684   2.917  16.062 -0.0151 -0.3044  0.1564
16779TIP3    H171752   0.758   2.870  16.100  0.7288  1.1681  0.5629
16779TIP3    H271753   0.623   2.929  16.135  0.8297  1.3739  0.6063
16780TIP3   OH271754   2.039   1.965  13.791 -0.2463 -0.3786  0.0788
16780TIP3    H171755   2.113   1.917  13.830  0.6247  1.0615  0.2245
16780TIP3    H271756   1.970   1.960  13.857  0.4675  0.1462  0.8772
16781TIP3   OH271757   0.437   1.479   2.192 -0.0951 -0.2941 -0.2988
16781TIP3    H171758   0.520   1.516   2.162 -0.1276 -1.1509 -1.4974
16781TIP3    H271759   0.460   1.432   2.273  0.1587  1.3141  0.5678
16782TIP3   OH271760   2.463   2.260  13.406  0.7319  0.0457  0.2837
16782TIP3    H171761   2.444   2.346  13.443  0.3191 -0.5728  1.5342
16782TIP3    H271762   2.376   2.221  13.391  0.8497  0.5648 -2.0653
16783TIP3   OH271763   2.539   3.601  16.613 -0.4006  0.2659  0.7132
16783TIP3    H171764   2.534   3.694  16.635 -0.5867  1.1752 -2.8309
16783TIP3    H271765   2.450   3.568  16.625 -0.8377  1.1034 -0.1057
16784TIP3   OH271766   6.104   3.635  12.694 -0.0261 -0.2383 -1.1673
16784TIP3    H171767   6.041   3.673  12.756 -0.7694 -2.9862 -0.1741
16784TIP3    H271768   6.050   3.607  12.620  0.2647 -1.0290 -1.0803
16785TIP3   OH271769   1.652   4.931  14.180  0.3360  0.1864 -0.1584
16785TIP3    H171770   1.674   4.957  14.269 -0.0174  1.2480 -0.3718
16785TIP3    H271771   1.706   4.853  14.164 -0.7992 -0.9653  1.5298
16786TIP3   OH271772   2.909   3.337  15.349 -0.6209  0.3094  0.7160
16786TIP3    H171773   2.975   3.276  15.316 -1.2052 -0.2996  0.6539
16786TIP3    H271774   2.870   3.291  15.424  0.2649  1.4172  1.8778
16787TIP3   OH271775   0.625   4.376  16.441  0.0256  0.0483 -0.0097
16787TIP3    H171776   0.660   4.455  16.399  2.0247  0.3131  2.0129
16787TIP3    H271777   0.594   4.322  16.369  0.0269  2.0250 -1.5412
16788TIP3   OH271778   2.872   1.020  11.671 -0.6084 -1.3015  0.6439
16788TIP3    H171779   2.884   0.961  11.596  0.4310 -0.4389  0.1213
16788TIP3    H271780   2.796   1.073  11.648  0.0834 -0.6252 -0.0616
16789TIP3   OH271781   4.611   6.014  13.602 -0.0317  0.6381  0.1303
16789TIP3    H171782   4.680   6.059  13.554  0.3689 -1.2752 -1.1491
16789TIP3    H271783   4.530   6.046  13.562  0.1826  1.2936  0.2050
16790TIP3   OH271784   5.648   6.073   2.902 -0.2653 -0.2360  0.0855
16790TIP3    H171785   5.560   6.081   2.866 -0.0861 -0.6015 -0.4362
16790TIP3    H271786   5.682   6.163   2.902 -0.7334 -0.0548  0.5507
16791TIP3   OH271787   2.772   4.029   0.441 -0.7411  0.2543  0.2746
16791TIP3    H171788   2.801   4.098   0.501  2.6241  0.9207 -1.9191
16791TIP3    H271789   2.750   4.076   0.360 -2.2908 -0.8963  0.0143
16792TIP3   OH271790   4.185   6.378  16.238  0.0686  0.4352  0.4895
16792TIP3    H171791   4.221   6.363  16.151 -2.5362  0.9451 -0.7138
16792TIP3    H271792   4.219   6.463  16.264  0.3268  0.5740 -0.3030
16793TIP3   OH271793   1.402   5.810  13.295  0.0701 -0.0261 -0.1312
16793TIP3    H171794   1.330   5.851  13.343  0.3561 -0.4062  0.6219
16793TIP3    H271795   1.376   5.816  13.203 -0.1674  1.3175  0.0144
16794TIP3   OH271796   3.731   5.414  12.753  0.5770 -0.1473  0.2770
16794TIP3    H171797   3.756   5.434  12.844  1.0468  2.1514 -0.3118
16794TIP3    H271798   3.648   5.460  12.741  0.8235  0.0602 -0.6357
16795TIP3   OH271799   0.271   0.414   2.169 -0.9274 -0.6293  0.2399
16795TIP3    H171800   0.218   0.489   2.194 -0.0973  0.0741 -0.1041
16795TIP3    H271801   0.359   0.449   2.158 -0.4881 -1.6948  0.3016
16796TIP3   OH271802   2.419   5.499  16.200 -0.3705  0.0390  0.3507
16796TIP3    H171803   2.453   5.478  16.287  0.0951  0.3033  0.2370
16796TIP3    H271804   2.333   5.539  16.216 -0.4274 -0.2166  0.6728
16797TIP3   OH271805   3.043   2.404   1.667  0.0363  0.0782 -0.7548
16797TIP3    H171806   3.103   2.400   1.592  0.8771 -0.0139 -0.0865
16797TIP3    H271807   3.036   2.313   1.696  1.2194  0.3501  0.4438
16798TIP3   OH271808   4.811   2.001   2.341 -0.0831 -0.0235 -0.0546
16798TIP3    H171809   4.902   2.029   2.335  0.1405 -1.2672 -3.1714
16798TIP3    H271810   4.763   2.062   2.285 -0.5218 -1.9646 -1.8288
16799TIP3   OH271811   1.812   3.514   4.417  0.2085 -0.4365  0.0282
16799TIP3    H171812   1.746   3.453   4.382  2.2251 -1.9162 -1.3042
16799TIP3    H271813   1.782   3.600   4.390 -0.6507 -1.1881 -1.4680
16800TIP3   OH271814   1.767   4.079  12.377  0.6117 -0.0423 -0.2729
16800TIP3    H171815   1.780   4.172  12.393 -2.1126  0.2780  0.4491
16800TIP3    H271816   1.794   4.037  12.459  0.9512  0.2042 -0.2580
16801TIP3   OH271817   5.971   3.300   4.183  0.3648  0.0499  0.1043
16801TIP3    H171818   5.975   3.325   4.090  1.3957 -1.3347 -0.2357
16801TIP3    H271819   5.884   3.261   4.193 -0.8020  2.6080  0.3694
16802TIP3   OH271820   0.756   3.545  13.875  0.1436 -0.1930  0.1112
16802TIP3    H171821   0.763   3.640  13.886  1.6575 -0.0153 -2.1699
16802TIP3    H271822   0.671   3.532  13.834 -0.2289  0.1204  0.7649
16803TIP3   OH271823   3.634   6.238   0.159  0.3883  0.6344  0.3560
16803TIP3    H171824   3.664   6.328   0.173 -0.5744  0.7237  1.9592
16803TIP3    H271825   3.554   6.231   0.210  0.2934 -1.0497  0.0022
16804TIP3   OH271826   1.149   6.050  11.520 -0.2536  0.2512 -0.0422
16804TIP3    H171827   1.059   6.083  11.528  0.5426  2.5224 -0.0515
16804TIP3    H271828   1.156   5.984  11.588 -2.9593 -2.4202 -2.2032
16805TIP3   OH271829   0.592   4.594   6.513  0.0021 -0.4680  0.3856
16805TIP3    H171830   0.622   4.518   6.463  1.2209  0.3657 -0.1765
16805TIP3    H271831   0.622   4.669   6.462 -2.4018  0.3966  0.2201
16806TIP3   OH271832   1.861   2.955   0.122  0.3728  0.1575  0.5637
16806TIP3    H171833   1.863   2.873   0.073  1.3374  0.7815 -0.4621
16806TIP3    H271834   1.770   2.962   0.154 -0.0056 -0.7276 -0.3074
16807TIP3   OH271835   3.567   5.388   3.301 -0.0966  0.1892  0.5362
16807TIP3    H171836   3.485   5.341   3.315  0.0678 -0.4309 -0.5161
16807TIP3    H271837   3.546   5.480   3.319 -1.2137  0.1351 -0.4710
16808TIP3   OH271838   3.293   6.188  13.621 -0.0273  0.2361 -0.1259
16808TIP3    H171839   3.239   6.246  13.567 -0.2746  0.2123  0.0971
16808TIP3    H271840   3.352   6.247  13.667 -2.0653  0.5586  2.1630
16809TIP3   OH271841   4.208   2.118   6.709 -0.1909 -0.2907  0.2759
16809TIP3    H171842   4.293   2.120   6.665 -0.0990  0.6744  0.4884
16809TIP3    H271843   4.190   2.024   6.721  0.0055 -0.5498 -1.3595
16810TIP3   OH271844   3.277   3.753  15.025  0.1456  0.2162 -0.1892
16810TIP3    H171845   3.208   3.812  15.056 -0.3784  0.2090 -1.3329
16810TIP3    H271846   3.268   3.753  14.930 -0.3706 -2.3383 -0.1621
16811TIP3   OH271847   4.400   1.485   0.229 -0.4499  0.1474  0.0583
16811TIP3    H171848   4.389   1.413   0.292  0.4517  0.4800  0.6020
16811TIP3    H271849   4.328   1.473   0.167 -0.2817 -1.2617  0.1120
16812TIP3   OH271850   5.389   1.347   0.216  0.1082  0.0111 -0.3665
16812TIP3    H171851   5.442   1.325   0.139  0.6730 -0.4365  0.1453
16812TIP3    H271852   5.341   1.267   0.235 -1.7665  0.8112 -1.6239
16813TIP3   OH271853   3.279   5.838  11.232 -0.0347  0.1714 -0.4376
16813TIP3    H171854   3.295   5.755  11.186 -0.9416  0.0720 -0.5807
16813TIP3    H271855   3.212   5.882  11.179  0.8493  1.2463 -0.6684
16814TIP3   OH271856   0.947   5.975  13.636 -0.7253  0.0910 -0.3252
16814TIP3    H171857   0.990   6.060  13.623 -1.6244  0.7539  0.9222
16814TIP3    H271858   1.017   5.911  13.625  0.1535  1.0418 -0.3922
16815TIP3   OH271859   0.887   4.046  13.362  0.4992 -0.2946 -0.1339
16815TIP3    H171860   0.822   4.097  13.314  0.2312 -1.0493 -0.5646
16815TIP3    H271861   0.836   3.992  13.422  0.7912  0.0351  0.4169
16816TIP3   OH271862   3.097   3.931  15.135 -0.2382  0.3597 -0.9149
16816TIP3    H171863   3.010   3.925  15.172  0.1079  1.0168  0.0241
16816TIP3    H271864   3.115   4.025  15.132  0.4505  0.2279 -1.0717
16817TIP3   OH271865   5.603   0.983  15.625 -0.7990  0.0353 -0.7261
16817TIP3    H171866   5.653   1.058  15.657 -0.3375 -0.4359 -0.3360
16817TIP3    H271867   5.620   0.913  15.689  0.7427 -1.1419 -2.3697
16818TIP3   OH271868   1.849   4.342  14.137  0.3765  0.4651 -0.0252
16818TIP3    H171869   1.816   4.410  14.077 -1.4680  0.8128  1.3427
16818TIP3    H271870   1.808   4.261  14.107  0.1166  0.4906  0.2702
16819TIP3   OH271871   4.215   5.129   1.732  0.6542 -0.4390 -0.0510
16819TIP3    H171872   4.201   5.057   1.793  1.0776 -0.1445  0.3945
16819TIP3    H271873   4.137   5.182   1.738 -0.7121 -2.1082 -2.1091
16820TIP3   OH271874   1.438   5.596  15.036 -0.2312  0.1384 -0.5243
16820TIP3    H171875   1.397   5.511  15.051 -1.2320  0.7687  0.4691
16820TIP3    H271876   1.426   5.642  15.119 -0.3530  1.5036 -1.2906
16821TIP3   OH271877   6.003   3.351  13.007  0.1127 -0.1997 -0.2454
16821TIP3    H171878   5.972   3.269  13.044  2.7770 -1.0452  0.2347
16821TIP3    H271879   5.936   3.377  12.945 -1.5494 -1.8843  0.8156
16822TIP3   OH271880   2.422   2.455  15.253 -0.3806 -0.9881  0.6524
16822TIP3    H171881   2.503   2.441  15.204 -0.0006 -0.5884  1.1755
16822TIP3    H271882   2.393   2.542  15.226 -0.4315 -0.9689  0.7732
16823TIP3   OH271883   2.285   1.861  12.169  0.2700 -0.4887 -0.2298
16823TIP3    H171884   2.219   1.889  12.106  0.2719 -0.9957 -0.4589
16823TIP3    H271885   2.358   1.922  12.157  0.0344 -0.2263 -0.3117
16824TIP3   OH271886   1.004   0.478   2.316 -0.2283 -0.3791  0.2838
16824TIP3    H171887   1.064   0.538   2.271 -0.9607  0.8511  0.9178
16824TIP3    H271888   1.004   0.508   2.407 -1.4712 -0.6424  0.3815
16825TIP3   OH271889   3.056   3.485   5.149  0.3493 -0.0332 -0.3016
16825TIP3    H171890   3.069   3.529   5.233 -0.0761 -0.6284  0.0832
16825TIP3    H271891   3.140   3.493   5.104  0.8011 -0.3222  0.4772
16826TIP3   OH271892   6.580   1.733  13.235 -0.6037  0.1337 -0.1857
16826TIP3    H171893   6.605   1.816  13.276  0.0918 -0.0916 -0.1534
16826TIP3    H271894   6.506   1.702  13.287 -0.2524  0.2620  0.3953
16827TIP3   OH271895   4.962   3.018   3.155  0.2006  0.1935 -0.4487
16827TIP3    H171896   4.955   2.993   3.247 -1.1400 -0.1128 -0.6229
16827TIP3    H271897   4.975   2.935   3.108  0.3824  0.2953 -0.5788
16828TIP3   OH271898   1.126   3.894   0.505 -0.0620  0.4344 -0.7179
16828TIP3    H171899   1.219   3.917   0.499  0.0773 -0.0833 -0.5985
16828TIP3    H271900   1.119   3.809   0.463 -0.3840  0.2164 -0.2366
16829TIP3   OH271901   0.117   1.511   2.830  0.1151 -0.6506 -0.4919
16829TIP3    H171902   0.181   1.568   2.786  0.9354 -1.5093 -0.4117
16829TIP3    H271903   0.167   1.433   2.855 -0.5496 -0.5563  1.1890
16830TIP3   OH271904   1.114   1.828  12.577  0.1526  0.3207 -0.5786
16830TIP3    H171905   1.124   1.874  12.494  1.6720  0.7592 -0.1638
16830TIP3    H271906   1.202   1.800  12.600  0.0289  1.7780  1.7974
16831TIP3   OH271907   4.874   6.044  16.943 -0.1595  0.2460 -0.4627
16831TIP3    H171908   4.860   6.051  17.037  1.0279  0.7449 -0.3118
16831TIP3    H271909   4.940   5.975  16.934  1.8358  2.1262 -0.7155
16832TIP3   OH271910   1.265   1.372   3.081  0.5829  0.5408  0.0323
16832TIP3    H171911   1.341   1.404   3.032 -0.2301 -0.3164 -1.8632
16832TIP3    H271912   1.301   1.343   3.165  2.3433  0.1955 -0.8125
16833TIP3   OH271913   0.105   3.608   1.007  0.2994 -0.2842 -0.1175
16833TIP3    H171914   0.135   3.553   1.079  1.9691  0.3055 -0.3462
16833TIP3    H271915   0.012   3.587   0.998  0.6710 -2.2963  0.4767
16834TIP3   OH271916   0.981   4.641  15.957  0.7445 -0.0160  0.0443
16834TIP3    H171917   1.070   4.654  15.922  0.7132  0.4603  0.1416
16834TIP3    H271918   0.959   4.551  15.932  1.5033 -0.3595  0.5638
16835TIP3   OH271919   4.377   4.995  12.457 -0.7890  0.5087  0.0992
16835TIP3    H171920   4.441   4.987  12.387 -0.5222 -0.7364  0.4715
16835TIP3    H271921   4.429   4.988  12.538 -1.2661  0.4842  0.4092
16836TIP3   OH271922   4.912   2.888   4.177  0.1801  0.2044 -0.6709
16836TIP3    H171923   4.900   2.954   4.109  1.3501 -1.3304 -2.4444
16836TIP3    H271924   4.907   2.804   4.130  3.3223 -0.8423  0.7017
16837TIP3   OH271925   0.929   2.561  13.105  0.3637  0.7582  0.2307
16837TIP3    H171926   0.981   2.499  13.157 -1.9278 -1.1121  0.3711
16837TIP3    H271927   0.873   2.604  13.169 -3.1167 -2.1839 -0.6081
16838TIP3   OH271928   4.824   0.002  14.940 -0.0911  0.1302  0.6675
16838TIP3    H171929   4.894  -0.008  15.005  1.8947  1.8855 -1.0823
16838TIP3    H271930   4.835  -0.073  14.882  0.5602  0.5360  0.2483
16839TIP3   OH271931   5.242   5.237   0.319  0.0045 -0.3129  0.0085
16839TIP3    H171932   5.293   5.316   0.336 -0.2056 -0.2496  0.3472
16839TIP3    H271933   5.257   5.219   0.226 -0.1395  0.2633 -0.1309
16840TIP3   OH271934   5.192   4.970  14.101  0.0983 -0.0920 -0.0610
16840TIP3    H171935   5.198   5.035  14.171  1.8156 -0.6735  0.3472
16840TIP3    H271936   5.194   4.886  14.146 -2.3337 -0.4684 -0.5716
16841TIP3   OH271937   5.788   1.270  15.217 -0.2921  0.0891  0.2509
16841TIP3    H171938   5.811   1.182  15.245  0.2726  0.5265  1.1784
16841TIP3    H271939   5.701   1.285  15.254  0.4444  0.6587  1.7764
16842TIP3   OH271940   6.614   5.820   4.237 -0.6334  0.1511 -0.0439
16842TIP3    H171941   6.631   5.894   4.296 -0.1615 -1.7754  2.3366
16842TIP3    H271942   6.561   5.760   4.289 -0.8513 -1.2680 -1.8751
16843TIP3   OH271943   4.355   5.950   2.285 -0.0729  0.3043 -0.2309
16843TIP3    H171944   4.344   5.860   2.254 -1.5114 -0.0342  1.1912
16843TIP3    H271945   4.280   5.965   2.343  0.3888  2.2701 -0.0934
16844TIP3   OH271946   0.487   4.016   3.718 -0.4311  1.0399  0.4751
16844TIP3    H171947   0.411   4.068   3.693 -0.2943  0.1397 -1.9227
16844TIP3    H271948   0.471   3.930   3.679  1.3703  0.5499  0.7718
16845TIP3   OH271949   4.454   2.473  13.788  0.2119 -0.0080 -0.6115
16845TIP3    H171950   4.406   2.544  13.831 -1.9963 -1.1564 -1.0696
16845TIP3    H271951   4.388   2.404  13.776  2.0329 -1.6862 -1.2035
16846TIP3   OH271952   2.411   6.365   0.006 -0.7467  0.1071 -0.1541
16846TIP3    H171953   2.325   6.390  -0.027 -1.8232 -2.3878  0.6426
16846TIP3    H271954   2.396   6.343   0.098  0.6248 -0.9065 -0.1517
16847TIP3   OH271955   2.601   3.240  14.586  0.5271  0.4940 -0.3259
16847TIP3    H171956   2.628   3.169  14.529 -1.6472 -0.9787  0.3878
16847TIP3    H271957   2.524   3.205  14.633 -0.8509  3.4467 -0.2663
16848TIP3   OH271958   5.264   3.574   0.759 -0.2731  0.5884  0.1338
16848TIP3    H171959   5.315   3.545   0.684 -1.1517 -0.5207 -0.0394
16848TIP3    H271960   5.328   3.584   0.829  0.4591  1.0424 -0.5914
16849TIP3   OH271961   3.157   2.369   6.092 -0.3074 -0.2350 -0.6080
16849TIP3    H171962   3.221   2.307   6.058  1.5509  0.8299  0.8772
16849TIP3    H271963   3.182   2.384   6.183 -2.2039  0.7965 -0.2154
16850TIP3   OH271964   5.179   3.137   0.281 -0.0353 -0.6109  0.2881
16850TIP3    H171965   5.235   3.144   0.359  0.7660 -0.5691 -0.2843
16850TIP3    H271966   5.093   3.113   0.315  0.6265 -1.9305  1.0769
16851TIP3   OH271967   2.006   4.048   2.197  0.8165  0.1919 -0.4233
16851TIP3    H171968   1.987   3.959   2.226  0.4070  0.1737 -0.7499
16851TIP3    H271969   1.952   4.104   2.254  1.3485  0.2543  0.0261
16852TIP3   OH271970   0.830   2.707   3.238  0.4611 -0.5290 -0.1574
16852TIP3    H171971   0.794   2.649   3.305  0.3606  1.3228  1.4050
16852TIP3    H271972   0.894   2.761   3.284  0.6631  0.5115 -1.6338
16853TIP3   OH271973   3.038   0.602  13.837  0.0991 -0.0064  0.8520
16853TIP3    H171974   2.943   0.607  13.851 -0.0345 -0.1670  0.0096
16853TIP3    H271975   3.048   0.538  13.766  0.9465 -1.4597  2.2307
16854TIP3   OH271976   6.751   5.634   5.131 -0.0470  0.2815 -0.1622
16854TIP3    H171977   6.768   5.727   5.142  0.9035  0.3144 -1.6501
16854TIP3    H271978   6.808   5.608   5.058 -1.8439 -1.0022 -1.1610
16855TIP3   OH271979   6.541   4.853  16.476 -0.2994  0.1363  0.3061
16855TIP3    H171980   6.632   4.827  16.486 -0.3556 -0.0210  0.4111
16855TIP3    H271981   6.544   4.948  16.464  0.0775 -0.1718 -2.3538
16856TIP3   OH271982   4.641   4.275   0.628  0.5917 -0.2516  0.4134
16856TIP3    H171983   4.547   4.260   0.619  0.5627  0.1712 -0.0517
16856TIP3    H271984   4.673   4.276   0.537  0.8803  0.6211  0.5217
16857TIP3   OH271985   2.222   1.111  15.519  0.0085  0.4103  0.1219
16857TIP3    H171986   2.159   1.177  15.492 -1.0184  0.4684  2.5531
16857TIP3    H271987   2.168   1.039  15.553  1.1986 -0.4502  0.2223
16858TIP3   OH271988   4.749   6.404  13.515 -0.3861  0.6629 -0.1698
16858TIP3    H171989   4.740   6.369  13.604 -0.3841 -0.0099 -0.4307
16858TIP3    H271990   4.730   6.498  13.524 -1.8555  0.3312  0.2866
16859TIP3   OH271991   4.186   2.303  15.423  0.4666 -0.2953  1.0460
16859TIP3    H171992   4.096   2.335  15.429  0.7401  0.7042 -0.1060
16859TIP3    H271993   4.237   2.365  15.475  0.2367 -1.9735  3.3542
16860TIP3   OH271994   6.761   2.390   5.200 -0.1456  0.0658 -0.5824
16860TIP3    H171995   6.849   2.360   5.221 -0.3073 -1.9314 -2.5554
16860TIP3    H271996   6.713   2.388   5.283  1.5796  0.9710  0.4566
16861TIP3   OH271997   4.488   0.350   0.785  0.0954 -0.2626  0.3727
16861TIP3    H171998   4.453   0.343   0.874 -1.2155 -0.4447 -0.1490
16861TIP3    H271999   4.500   0.444   0.771 -0.4135 -0.1803  0.4722
16862TIP3   OH272000   2.548   4.842   1.443  0.3353 -0.0721 -0.2624
16862TIP3    H172001   2.469   4.868   1.397 -0.3409  0.2253  1.0363
16862TIP3    H272002   2.547   4.747   1.443  1.0897 -0.0994 -2.1056
16863TIP3   OH272003   6.230   5.411  15.553 -0.3907 -0.1725  0.5472
16863TIP3    H172004   6.285   5.456  15.616  0.7263 -0.3971 -0.2359
16863TIP3    H272005   6.267   5.435  15.468 -0.0741 -2.1327  0.1012
16864TIP3   OH272006   4.958   4.383  17.017  0.3453 -0.1392  0.3014
16864TIP3    H172007   4.986   4.438  16.943 -1.3588 -0.1343 -0.3550
16864TIP3    H272008   4.984   4.432  17.095  1.3960  0.2529 -0.2766
16865TIP3   OH272009   1.243   0.951  13.175 -0.0488  0.3202  0.0945
16865TIP3    H172010   1.220   0.993  13.093 -0.2961 -1.1626 -0.6104
16865TIP3    H272011   1.221   0.859  13.162  1.4219 -0.2151  1.2443
16866TIP3   OH272012   1.561   6.133  16.251  0.2302  0.5537 -0.9206
16866TIP3    H172013   1.637   6.190  16.240 -0.7297  1.8500 -0.9321
16866TIP3    H272014   1.522   6.161  16.334  0.1186 -0.5384 -0.5955
16867TIP3   OH272015   2.440   1.551   3.185 -0.0262 -0.1208  0.0364
16867TIP3    H172016   2.390   1.521   3.109 -2.0693  0.1557  1.2486
16867TIP3    H272017   2.375   1.589   3.244  1.7513  1.2410  1.1875
16868TIP3   OH272018   6.057   4.675  14.426 -0.0163 -0.1695 -0.5184
16868TIP3    H172019   5.995   4.708  14.360 -0.1012  1.6912  0.4513
16868TIP3    H272020   6.113   4.750  14.446  0.1827 -0.7800  1.3290
16869TIP3   OH272021   3.331   2.592   1.259  0.0340  0.4139 -0.9487
16869TIP3    H172022   3.307   2.665   1.315  0.9522  0.3239 -0.4278
16869TIP3    H272023   3.264   2.525   1.277  1.2225 -0.2066  1.2194
16870TIP3   OH272024   1.019   3.201   1.378  0.0591 -0.3455  0.0896
16870TIP3    H172025   0.964   3.207   1.300  1.7087 -0.4402 -1.1076
16870TIP3    H272026   1.090   3.142   1.353  2.0395  1.6741  0.7618
16871TIP3   OH272027   3.443   4.069   2.533 -0.3701 -0.5039 -0.0028
16871TIP3    H172028   3.462   4.073   2.439 -0.3832 -0.9027 -0.0208
16871TIP3    H272029   3.526   4.087   2.576 -0.2071 -1.0420 -0.0872
16872TIP3   OH272030   3.393   1.093  11.553 -0.2186 -0.1277 -1.0312
16872TIP3    H172031   3.417   1.123  11.465  0.5471  0.9426 -0.4737
16872TIP3    H272032   3.298   1.106  11.558 -0.6771 -2.6700 -2.6163
16873TIP3   OH272033   1.230   1.634  10.539  0.3525 -0.0928 -0.0426
16873TIP3    H172034   1.288   1.689  10.592 -0.0503 -1.5369  1.9183
16873TIP3    H272035   1.287   1.564  10.508  0.0170 -0.6445  0.5859
16874TIP3   OH272036   6.493   1.654  13.713 -0.4924  0.2844 -0.0408
16874TIP3    H172037   6.525   1.615  13.794  0.0629 -2.0539 -1.3373
16874TIP3    H272038   6.572   1.679  13.664 -0.7758 -0.1196 -0.7161
16875TIP3   OH272039   5.549   5.896  12.997 -0.2703  0.2137  0.3688
16875TIP3    H172040   5.474   5.956  12.989  1.4108  2.3346 -0.1029
16875TIP3    H272041   5.517   5.824  13.051 -2.5223  1.2980  0.5294
16876TIP3   OH272042   1.847   1.678  13.916  0.6321  0.7034 -0.1177
16876TIP3    H172043   1.933   1.645  13.892 -0.0565 -0.5571 -0.8870
16876TIP3    H272044   1.861   1.771  13.933  2.2106  0.4322  0.1323
16877TIP3   OH272045   4.227   5.555   3.272  0.0598  0.1284  0.0870
16877TIP3    H172046   4.241   5.633   3.218  0.1466 -0.8780 -1.3771
16877TIP3    H272047   4.190   5.490   3.211  0.6817 -1.2167  1.1164
16878TIP3   OH272048   0.594   4.000   2.415 -0.2282  0.4962  0.0460
16878TIP3    H172049   0.631   4.029   2.499 -0.5699  0.2915  0.2677
16878TIP3    H272050   0.646   4.047   2.349 -0.1942  0.9338  0.3804
16879TIP3   OH272051   5.608   5.746   5.702 -0.0193 -0.4030 -0.5166
16879TIP3    H172052   5.658   5.774   5.778 -1.8082  2.6652 -0.3952
16879TIP3    H272053   5.548   5.679   5.736 -0.6341  0.7706  0.7490
16880TIP3   OH272054   4.919   0.225   4.219  0.3136  0.0522 -0.6877
16880TIP3    H172055   4.918   0.271   4.135  0.0953 -0.5902 -1.0433
16880TIP3    H272056   5.012   0.222   4.243  0.3104  0.8349 -0.5701
16881TIP3   OH272057   5.866   4.055   0.079  0.7665 -0.4144  0.2148
16881TIP3    H172058   5.778   4.028   0.108  0.2172  2.0623  0.9805
16881TIP3    H272059   5.926   4.007   0.135 -0.1108 -1.6429  0.1179
16882TIP3   OH272060   1.654   3.929  12.149  0.2760  0.4226  0.0049
16882TIP3    H172061   1.559   3.936  12.139  0.3759  0.1004 -1.2649
16882TIP3    H272062   1.677   3.998  12.211 -0.7411  0.7516  0.0218
16883TIP3   OH272063   2.413   4.157  15.103 -0.2661  0.0461 -0.3034
16883TIP3    H172064   2.460   4.165  15.020 -1.1509 -0.7967 -0.8829
16883TIP3    H272065   2.321   4.149  15.079 -0.4655 -0.9242  0.7214
16884TIP3   OH272066   1.316   3.340   0.775  0.3081  0.6911  0.4568
16884TIP3    H172067   1.265   3.314   0.851 -0.2834  1.5030  0.3394
16884TIP3    H272068   1.252   3.345   0.704  0.7477  0.5567  0.0471
16885TIP3   OH272069   5.648   6.199  15.436  0.2791 -0.1195  0.8315
16885TIP3    H172070   5.659   6.257  15.511  0.4950 -2.1427  2.3901
16885TIP3    H272071   5.734   6.196  15.395  0.3495  0.3954  0.9390
16886TIP3   OH272072   0.611   3.436   3.039 -0.3926  0.3805 -0.5888
16886TIP3    H172073   0.538   3.391   2.995 -1.1406  0.9905  0.0183
16886TIP3    H272074   0.604   3.407   3.130 -0.0525  0.6717 -0.4727
16887TIP3   OH272075   6.183   1.017   5.206  0.0978  0.6702  0.4195
16887TIP3    H172076   6.133   0.965   5.144  1.5125  1.5565 -1.5102
16887TIP3    H272077   6.122   1.085   5.236  0.1027  1.7412 -1.9091
16888TIP3   OH272078   2.286   1.271  11.406  0.6833 -0.3075 -0.4371
16888TIP3    H172079   2.343   1.282  11.330  0.9590  1.2205 -0.0340
16888TIP3    H272080   2.336   1.217  11.466  1.4333  0.4705 -0.3626
16889TIP3   OH272081   0.585   3.578  15.373  0.1411  0.1391  0.2632
16889TIP3    H172082   0.544   3.629  15.303  0.5393  0.0192 -0.0588
16889TIP3    H272083   0.512   3.531  15.414 -0.3245  1.4240  0.9554
16890TIP3   OH272084   1.319   5.423  10.550 -0.0781 -0.4238 -0.1430
16890TIP3    H172085   1.390   5.421  10.615  1.4218  0.8392 -1.7042
16890TIP3    H272086   1.260   5.353  10.578  2.5821 -2.5841  0.3063
16891TIP3   OH272087   4.469   6.091  15.589  0.9290  0.1051 -0.4926
16891TIP3    H172088   4.423   6.074  15.507  0.4253 -2.3468  0.2515
16891TIP3    H272089   4.548   6.139  15.563  1.2763 -1.5093 -2.5335
16892TIP3   OH272090   2.232   5.047  15.013  0.2491 -0.6324  0.4160
16892TIP3    H172091   2.283   4.999  15.077  0.1396 -0.7966  0.3789
16892TIP3    H272092   2.186   4.980  14.963 -1.4512 -0.4182  1.6441
16893TIP3   OH272093   6.408   1.602   0.638 -0.4915 -0.4550 -0.5274
16893TIP3    H172094   6.329   1.654   0.621  0.0999  0.0864 -1.6686
16893TIP3    H272095   6.474   1.667   0.665  0.4973 -0.4685 -2.7880
16894TIP3   OH272096   1.785   0.627  11.555  0.3234 -0.5415 -0.9455
16894TIP3    H172097   1.802   0.690  11.485 -1.2291 -0.0293 -0.8833
16894TIP3    H272098   1.839   0.657  11.628  0.5817 -0.0414 -1.3422
16895TIP3   OH272099   6.371   1.164  16.236 -0.2066  0.8550 -0.4105
16895TIP3    H172100   6.456   1.126  16.215 -0.3448 -0.0715  0.6478
16895TIP3    H272101   6.359   1.145  16.329 -1.5956  0.9130 -0.5659
16896TIP3   OH272102   1.221   2.275   1.073 -0.5231 -0.1928  0.1152
16896TIP3    H172103   1.136   2.277   1.028 -0.8919 -1.6927  0.7210
16896TIP3    H272104   1.243   2.182   1.078  0.5736  0.1090  1.0748
16897TIP3   OH272105   4.572   6.169  14.620  0.4582  0.0166 -0.7610
16897TIP3    H172106   4.641   6.203  14.677  0.3365  0.4246 -0.8548
16897TIP3    H272107   4.599   6.079  14.601  0.1812 -0.3399  0.4452
16898TIP3   OH272108   4.311   1.781   2.791  1.0949 -0.4290 -0.4138
16898TIP3    H172109   4.317   1.788   2.887 -0.5133  0.9274 -0.3856
16898TIP3    H272110   4.226   1.739   2.775  1.2452 -0.4183 -1.2619
16899TIP3   OH272111   1.269   5.976  13.882  0.9439 -0.1843 -0.2585
16899TIP3    H172112   1.196   5.972  13.944  1.1218  0.0974 -0.0318
16899TIP3    H272113   1.273   6.067  13.855  0.6609 -0.3700 -0.9334
16900TIP3   OH272114   3.223   6.485  16.379  0.3726  0.5155  0.3724
16900TIP3    H172115   3.259   6.445  16.458  1.0266  1.7524  0.7072
16900TIP3    H272116   3.136   6.444  16.369  0.8854 -0.7336  0.8800
16901TIP3   OH272117   5.514   5.101   5.338  0.4885  0.3069  0.4346
16901TIP3    H172118   5.524   5.006   5.333  0.8845  0.3414  0.6081
16901TIP3    H272119   5.419   5.115   5.344  0.1936  0.0641 -2.8305
16902TIP3   OH272120   0.115   6.162   2.760 -0.9764  0.5448  0.1935
16902TIP3    H172121   0.196   6.201   2.726 -0.0519 -1.2512  0.2908
16902TIP3    H272122   0.051   6.233   2.756  0.0330  1.3845 -1.9210
16903TIP3   OH272123   1.877   2.102   5.052  0.7984  0.3215  0.5307
16903TIP3    H172124   1.832   2.058   5.124 -0.4857  0.9444  0.1139
16903TIP3    H272125   1.898   2.032   4.991 -1.1546  0.2547 -0.0901
16904TIP3   OH272126   6.076   4.785   1.032  0.3743  0.3658 -0.4224
16904TIP3    H172127   6.137   4.817   0.965  0.3671  0.4986 -0.3652
16904TIP3    H272128   6.082   4.849   1.102  1.7409 -0.7361  0.4918
16905TIP3   OH272129   2.757   2.701   4.338 -0.8414  0.0431  0.0367
16905TIP3    H172130   2.753   2.608   4.360 -0.6753  0.0127 -0.0634
16905TIP3    H272131   2.740   2.746   4.421 -0.8722 -0.0751  0.0943
16906TIP3   OH272132   5.194   1.837  11.604  0.0641  0.3820 -0.0975
16906TIP3    H172133   5.162   1.878  11.685  0.8354  1.1616 -0.1770
16906TIP3    H272134   5.117   1.798  11.564 -0.0755 -1.4851  1.8669
16907TIP3   OH272135   0.162   0.719  16.424 -0.2699 -0.2133  0.3935
16907TIP3    H172136   0.083   0.773  16.419  0.8016  1.2823 -0.7444
16907TIP3    H272137   0.234   0.779  16.405  0.8461 -2.3162 -2.4541
16908TIP3   OH272138   0.536   5.658  15.219  0.1757  0.6070  0.3369
16908TIP3    H172139   0.619   5.703  15.233  0.3050  0.8639 -1.1299
16908TIP3    H272140   0.553   5.567  15.243  1.2417  0.4064 -1.1215
16909TIP3   OH272141   4.219   0.407   3.352 -0.4198  0.2364  0.6619
16909TIP3    H172142   4.227   0.374   3.263 -1.4746  0.1787  0.5870
16909TIP3    H272143   4.224   0.502   3.343 -0.0588  0.2118  0.5936
16910TIP3   OH272144   3.329   5.748   1.436  0.3633  0.5185  0.4742
16910TIP3    H172145   3.329   5.821   1.498  0.9715  0.5620  0.4277
16910TIP3    H272146   3.321   5.789   1.350 -0.6407  0.4496  0.5298
16911TIP3   OH272147   1.766   5.238  15.770  0.0404 -0.6418 -0.1653
16911TIP3    H172148   1.815   5.163  15.803 -0.0938 -1.0579 -0.8922
16911TIP3    H272149   1.728   5.278  15.848  2.0420  0.0667  0.4723
16912TIP3   OH272150   3.400   4.386   1.010 -0.2964  0.5090 -0.3914
16912TIP3    H172151   3.343   4.461   1.025 -1.8281 -1.0468  2.0560
16912TIP3    H272152   3.340   4.315   0.987  0.7736 -0.7829  0.6916
16913TIP3   OH272153   3.265   0.987   0.453  0.4206  0.6550 -0.5042
16913TIP3    H172154   3.312   0.982   0.370 -0.6496 -0.3373 -1.0570
16913TIP3    H272155   3.194   1.049   0.436  1.3843  1.9872  0.2670
16914TIP3   OH272156   2.093   5.649   0.004 -0.3741 -0.4553 -0.2157
16914TIP3    H172157   2.143   5.704   0.064 -0.6073 -0.5118  0.0293
16914TIP3    H272158   2.001   5.669   0.023 -0.4450 -0.1818 -0.8231
16915TIP3   OH272159   4.714   2.741   1.104 -0.7447 -0.3428 -0.6112
16915TIP3    H172160   4.771   2.802   1.057 -1.3214  1.4084  0.9352
16915TIP3    H272161   4.626   2.774   1.088 -1.2103 -1.9090 -1.3692
16916TIP3   OH272162   5.081   3.441  15.194 -0.4984 -0.2083 -0.2318
16916TIP3    H172163   5.041   3.377  15.253 -1.3893  1.6278  1.2193
16916TIP3    H272164   5.169   3.407  15.178 -0.5047 -1.1367  1.5491
16917TIP3   OH272165   2.746   4.953   2.671  0.1812 -0.9453 -0.6235
16917TIP3    H172166   2.783   5.005   2.742 -0.0372  0.8216 -1.7723
16917TIP3    H272167   2.695   5.016   2.619 -2.8363 -2.9443 -0.1817
16918TIP3   OH272168   4.066   2.604  12.320  0.3855  0.5462 -0.3384
16918TIP3    H172169   4.063   2.698  12.338 -1.6811  0.2298  1.1757
16918TIP3    H272170   4.052   2.598  12.225 -0.6355  1.7246 -0.2796
16919TIP3   OH272171   6.198   3.837   4.414  0.0764  0.1919 -0.0009
16919TIP3    H172172   6.239   3.789   4.486 -0.2466  3.0609  2.1800
16919TIP3    H272173   6.268   3.891   4.379 -0.6096  1.4413  0.5211
16920TIP3   OH272174   5.400   6.628   0.800 -0.2468 -0.0561 -0.0203
16920TIP3    H172175   5.453   6.561   0.843 -1.0690 -0.8972 -0.2967
16920TIP3    H272176   5.309   6.600   0.816 -0.5777  0.4679 -0.9572
16921TIP3   OH272177   0.552   4.974   6.369  0.5486  0.1204  0.3320
16921TIP3    H172178   0.627   5.009   6.417  0.0484 -0.2471  1.4043
16921TIP3    H272179   0.581   4.888   6.339  0.2140 -0.4603  1.6365
16922TIP3   OH272180   5.541   1.050   5.805 -0.2699 -0.2179  0.1142
16922TIP3    H172181   5.472   0.996   5.842  0.2940 -0.4843  0.7822
16922TIP3    H272182   5.554   1.120   5.870  1.2466 -1.1136  0.7958
16923TIP3   OH272183   0.717   5.419   4.409  0.2372 -0.9180  0.3289
16923TIP3    H172184   0.792   5.437   4.466 -0.2825  0.0368  0.7222
16923TIP3    H272185   0.756   5.387   4.328  1.1043  0.1826  0.2993
16924TIP3   OH272186   1.328   4.935   1.284  0.0101  0.1693 -0.1468
16924TIP3    H172187   1.241   4.976   1.277 -0.0449 -0.1642 -1.5237
16924TIP3    H272188   1.349   4.908   1.195  1.0590 -0.7395  0.3654
16925TIP3   OH272189   3.925   2.133   0.572 -0.1532 -0.4760 -0.3038
16925TIP3    H172190   3.832   2.157   0.575 -0.0850 -0.3138  1.0453
16925TIP3    H272191   3.970   2.217   0.563 -0.0747 -0.4082  0.6704
16926TIP3   OH272192   2.742   1.617   0.770 -0.3428 -0.0872 -0.3879
16926TIP3    H172193   2.830   1.636   0.735 -0.4956 -0.5820 -1.0480
16926TIP3    H272194   2.682   1.650   0.703 -0.7080  1.8087  0.8325
16927TIP3   OH272195   0.948   6.696  16.219  0.3470 -0.5659 -0.2072
16927TIP3    H172196   0.896   6.731  16.291 -0.3338 -0.9892 -0.4866
16927TIP3    H272197   1.029   6.747  16.221 -0.0526  0.0667  0.2637
16928TIP3   OH272198   2.696   1.953   5.541  0.0890  0.4211  0.5961
16928TIP3    H172199   2.754   1.912   5.477  2.3423  2.7506  1.0817
16928TIP3    H272200   2.619   1.979   5.490  0.7250 -0.0584 -0.6409
16929TIP3   OH272201   5.921   6.667  17.086  0.3486 -0.3674  0.0728
16929TIP3    H172202   6.009   6.633  17.065  0.2924 -1.1639  1.1010
16929TIP3    H272203   5.931   6.707  17.172 -0.5106 -1.3392  0.6382
16930TIP3   OH272204   0.825   6.323  11.933  0.7568  0.1091 -0.5051
16930TIP3    H172205   0.764   6.334  11.860 -1.8477 -1.6940  1.3023
16930TIP3    H272206   0.845   6.413  11.961 -2.5936  0.7888  0.0017
16931TIP3   OH272207   4.167   0.604  13.707 -0.0376 -0.3383  0.5115
16931TIP3    H172208   4.088   0.654  13.688  0.3263  0.8031  1.9078
16931TIP3    H272209   4.237   0.670  13.710  0.7184 -1.1374  0.7147
16932TIP3   OH272210   4.727   6.761   2.388 -1.0023 -0.1763  0.2799
16932TIP3    H172211   4.711   6.721   2.474  0.2576  0.1402  0.6795
16932TIP3    H272212   4.823   6.766   2.382 -1.1115  1.0686 -0.5525
16933TIP3   OH272213   3.311   5.370   5.774  0.2499  0.5310  0.0872
16933TIP3    H172214   3.306   5.331   5.687 -0.5088  0.7400  0.0307
16933TIP3    H272215   3.401   5.352   5.804  0.1650 -0.5462 -0.2637
16934TIP3   OH272216   3.268   5.225  17.096 -0.3281 -0.0807 -0.2235
16934TIP3    H172217   3.259   5.149  17.039 -1.7097 -1.3695  1.6837
16934TIP3    H272218   3.328   5.283  17.048  0.4366 -2.1666 -1.8900
16935TIP3   OH272219   1.328   4.987  14.918  0.3737 -0.5877 -0.2445
16935TIP3    H172220   1.316   5.039  14.839 -1.1911  2.1689  1.7282
16935TIP3    H272221   1.390   5.037  14.970 -0.5253 -1.0920  1.3326
16936TIP3   OH272222   6.262   2.111  15.967  0.3106 -0.5752  0.5880
16936TIP3    H172223   6.234   2.154  15.886  1.5024 -2.1121 -0.6805
16936TIP3    H272224   6.231   2.020  15.958  1.7746 -1.1424  1.1766
16937TIP3   OH272225   2.461   5.872   3.440  0.3689 -0.5782  0.3442
16937TIP3    H172226   2.529   5.895   3.502  0.3236 -0.7008  0.4390
16937TIP3    H272227   2.383   5.859   3.493 -0.0967  1.0546  0.0867
16938TIP3   OH272228   4.393   1.000   4.156 -0.2773  0.1499  0.0746
16938TIP3    H172229   4.450   1.008   4.080 -0.8188  0.3874 -0.3143
16938TIP3    H272230   4.443   1.039   4.228 -1.2552  3.4390 -0.9510
16939TIP3   OH272231   0.596   6.403   1.116  0.0187  0.0758 -0.2419
16939TIP3    H172232   0.640   6.449   1.044  0.3145 -1.3017 -0.9498
16939TIP3    H272233   0.667   6.372   1.172 -0.1032 -1.1784 -0.7872
16940TIP3   OH272234   5.586   4.396   4.946  0.0439  0.5888 -0.5983
16940TIP3    H172235   5.607   4.391   5.039  0.1157 -2.3909 -0.7306
16940TIP3    H272236   5.504   4.446   4.943  0.2281  1.0163  1.0299
16941TIP3   OH272237   6.262   0.215  13.163 -0.1420 -0.3035  0.2908
16941TIP3    H172238   6.303   0.134  13.196  1.2968  0.1081 -0.4496
16941TIP3    H272239   6.328   0.253  13.105 -1.4086  0.6313 -0.5541
16942TIP3   OH272240   3.369   3.502  12.826  0.0148 -0.4608  0.1055
16942TIP3    H172241   3.380   3.582  12.877  1.4733  1.0404 -2.4657
16942TIP3    H272242   3.416   3.435  12.876 -0.4226  0.4804  1.7984
16943TIP3   OH272243   5.005   0.849  14.453 -0.0796 -0.3482  0.4842
16943TIP3    H172244   4.955   0.898  14.388 -0.5365  0.9430  1.8080
16943TIP3    H272245   4.945   0.780  14.482  0.0247 -0.7479 -0.2101
16944TIP3   OH272246   4.359   5.577  17.008 -0.0283 -0.1677 -0.3008
16944TIP3    H172247   4.367   5.649  16.945  0.6790 -1.2834 -1.4935
16944TIP3    H272248   4.448   5.558  17.035 -0.4612  1.9356  2.9709
16945TIP3   OH272249   5.258   6.112   1.318  0.9817  0.0599 -0.2713
16945TIP3    H172250   5.258   6.207   1.321 -0.1833  0.0517 -0.0364
16945TIP3    H272251   5.185   6.090   1.260 -1.7022 -0.8124  3.3143
16946TIP3   OH272252   5.324   2.100   0.816  0.5564 -0.8921 -0.0313
16946TIP3    H172253   5.228   2.097   0.819  0.5068  0.9319  1.2937
16946TIP3    H272254   5.347   2.060   0.733 -1.3838 -1.0791 -0.4979
16947TIP3   OH272255   5.717   2.883  15.470 -0.0045 -0.1674  0.1387
16947TIP3    H172256   5.628   2.860  15.497 -0.0501  0.7364  0.8074
16947TIP3    H272257   5.743   2.814  15.410 -1.2027 -0.3829 -0.1443
16948TIP3   OH272258   5.195   3.097   3.075 -0.3285  1.3100 -0.0834
16948TIP3    H172259   5.101   3.083   3.069 -0.3473 -0.5873  3.2500
16948TIP3    H272260   5.232   3.048   3.002 -1.8762  1.4022 -0.9396
16949TIP3   OH272261   6.698   3.179  13.656 -0.2085 -0.3978  0.0223
16949TIP3    H172262   6.634   3.108  13.658  2.1328 -2.5972 -0.7085
16949TIP3    H272263   6.770   3.148  13.711  0.4757  1.7912  0.4071
16950TIP3   OH272264   2.235   0.506  15.495  0.6476 -0.6036  0.1880
16950TIP3    H172265   2.240   0.592  15.455 -0.1130  0.0731  1.5301
16950TIP3    H272266   2.326   0.484  15.517  0.9499 -0.5741 -1.0420
16951TIP3   OH272267   5.460   1.235   3.928 -0.4406 -0.6611  0.4514
16951TIP3    H172268   5.388   1.244   3.989 -1.5822 -0.9227 -0.8288
16951TIP3    H272269   5.539   1.235   3.983 -1.2510  1.8959  1.7081
16952TIP3   OH272270   5.424   4.292  15.727 -0.3508 -0.2258  0.1127
16952TIP3    H172271   5.451   4.202  15.708 -0.6126 -0.2052 -0.3850
16952TIP3    H272272   5.471   4.345  15.662  0.9904  0.1733  1.3688
16953TIP3   OH272273   1.087   0.703  14.727 -0.0842  0.1010  0.0277
16953TIP3    H172274   1.045   0.684  14.644 -2.9326 -0.7101  1.6099
16953TIP3    H272275   1.067   0.795  14.744  0.7857  0.3645 -0.3003
16954TIP3   OH272276   1.712   2.671   4.885 -0.0239  0.4815  0.6742
16954TIP3    H172277   1.745   2.746   4.835  1.4832  0.4128  1.5639
16954TIP3    H272278   1.761   2.596   4.851 -1.2220 -0.0605  0.0924
16955TIP3   OH272279   2.006   6.744   2.356 -0.4123  0.6344 -0.2787
16955TIP3    H172280   2.102   6.745   2.351 -0.4539 -0.4080 -1.3186
16955TIP3    H272281   1.985   6.657   2.391 -0.9077  1.6059  1.9665
16956TIP3   OH272282   2.457   6.189  11.405  0.4043 -0.1303 -0.6810
16956TIP3    H172283   2.495   6.116  11.454  0.3877 -0.4486 -1.1451
16956TIP3    H272284   2.365   6.190  11.431  0.9411  1.3756  1.3581
16957TIP3   OH272285   5.809   5.049   5.974 -0.2554  0.4785 -0.3623
16957TIP3    H172286   5.749   5.027   5.903 -0.0793  2.0201 -1.0191
16957TIP3    H272287   5.766   5.121   6.021  1.1370  1.7383 -0.9568
16958TIP3   OH272288   0.568   5.544  13.256 -0.1132 -0.1023 -0.4209
16958TIP3    H172289   0.627   5.479  13.217  0.3981  0.6494 -0.9193
16958TIP3    H272290   0.564   5.520  13.348  0.9689 -0.1810 -0.3837
16959TIP3   OH272291   6.340   1.463  10.712  0.0258 -0.4084  0.3212
16959TIP3    H172292   6.363   1.376  10.747 -0.3466 -1.3624 -1.7366
16959TIP3    H272293   6.420   1.494  10.671  0.2512  0.3947  1.3456
16960TIP3   OH272294   1.405   2.914   6.387 -0.1604  0.4781  0.8956
16960TIP3    H172295   1.357   2.996   6.376  0.7319  1.2531  2.5588
16960TIP3    H272296   1.340   2.854   6.425 -1.3129 -0.1702 -1.9508
16961TIP3   OH272297   0.612   0.197  15.996  0.5037 -0.9526  0.3127
16961TIP3    H172298   0.567   0.278  15.973 -0.3323 -0.8566  2.2669
16961TIP3    H272299   0.613   0.146  15.914  0.4429  0.7221 -0.7418
16962TIP3   OH272300   5.175   4.747  11.689  0.7205 -0.1857  0.3547
16962TIP3    H172301   5.145   4.773  11.777  0.0592 -0.6552  0.2674
16962TIP3    H272302   5.127   4.666  11.670  1.9085 -0.8469  0.1417
16963TIP3   OH272303   5.187   3.607   4.921  0.7463  0.0095 -0.2583
16963TIP3    H172304   5.141   3.617   5.004  0.2998 -1.8350 -0.2598
16963TIP3    H272305   5.170   3.516   4.895  3.3271 -0.3202 -0.9179
16964TIP3   OH272306   2.157   3.605   0.092 -0.3131  0.0832  0.5155
16964TIP3    H172307   2.075   3.636   0.053 -1.0563 -1.0060  1.1918
16964TIP3    H272308   2.138   3.595   0.185  0.4700 -0.5594  0.6185
16965TIP3   OH272309   0.584   3.626   4.145  0.5919 -1.1080  0.3730
16965TIP3    H172310   0.612   3.665   4.062 -1.5149  1.5097  0.7856
16965TIP3    H272311   0.648   3.657   4.209 -0.7266  1.3308  0.5886
16966TIP3   OH272312   5.128   4.835  17.104  0.0898 -1.1395 -0.3214
16966TIP3    H172313   5.099   4.868  17.019  0.8246  0.2135 -0.0629
16966TIP3    H272314   5.202   4.891  17.127 -0.3344 -1.2740  1.3856
16967TIP3   OH272315   0.249   1.475  10.940  0.5482  0.2892 -0.0796
16967TIP3    H172316   0.161   1.507  10.922 -0.4685 -1.4197  1.7315
16967TIP3    H272317   0.257   1.395  10.887  1.6515  1.3234 -1.5378
16968TIP3   OH272318   0.483   5.458  16.967  0.3082  0.2194  0.3075
16968TIP3    H172319   0.568   5.416  16.979  0.9515  0.8372 -1.8263
16968TIP3    H272320   0.444   5.412  16.892  0.0638  1.8776 -0.6065
16969TIP3   OH272321   5.849   0.978  12.930  0.0847 -0.2647  0.4579
16969TIP3    H172322   5.759   0.961  12.901 -0.1197  0.1355  0.8507
16969TIP3    H272323   5.883   0.891  12.954 -0.0671 -0.4662 -0.0553
16970TIP3   OH272324   0.395   2.561  17.120  0.6607  0.0361  0.0239
16970TIP3    H172325   0.364   2.651  17.117  0.7358  0.1080  1.2398
16970TIP3    H272326   0.406   2.542  17.213 -1.1364 -1.8268 -0.0854
16971TIP3   OH272327   4.458   2.988   5.472 -0.2696 -0.2651 -0.1199
16971TIP3    H172328   4.496   3.020   5.554 -1.1012 -0.9916  0.5635
16971TIP3    H272329   4.469   2.893   5.477  0.1461 -0.2748 -1.1007
16972TIP3   OH272330   4.548   6.492  11.684  0.0673 -0.0100  0.1611
16972TIP3    H172331   4.555   6.578  11.725  0.4584 -0.4574  1.0298
16972TIP3    H272332   4.526   6.511  11.593 -2.0581  0.9694  0.8473
16973TIP3   OH272333   6.374   3.398   2.724 -0.0914 -0.5395 -0.6155
16973TIP3    H172334   6.382   3.303   2.727  2.0437 -0.3995 -0.5120
16973TIP3    H272335   6.288   3.417   2.761 -0.8051 -2.4626 -1.2747
16974TIP3   OH272336   3.257   4.587   1.111 -0.0605  0.1061  0.2316
16974TIP3    H172337   3.209   4.611   1.190  2.1107  0.9485  1.3301
16974TIP3    H272338   3.273   4.670   1.066  0.2008 -0.1864 -0.2216
16975TIP3   OH272339   6.751   1.133  14.450  0.3298  0.2381 -0.5539
16975TIP3    H172340   6.807   1.067  14.491 -0.7918 -0.3579  0.0364
16975TIP3    H272341   6.750   1.108  14.357  2.2682  1.1599 -0.8401
16976TIP3   OH272342   5.430   0.675   3.878  0.4314 -0.0301  0.0279
16976TIP3    H172343   5.447   0.755   3.829  0.5791  0.2478  0.5234
16976TIP3    H272344   5.335   0.667   3.879  0.4747 -1.3877 -2.4351
16977TIP3   OH272345   3.108   2.466  10.432 -0.3685  0.4037 -0.3679
16977TIP3    H172346   3.168   2.508  10.493 -0.6275  0.1039  0.0985
16977TIP3    H272347   3.055   2.537  10.397 -0.8105  0.4673  0.4258
16978TIP3   OH272348   6.308   5.428  17.041  0.3298 -0.7887 -0.7369
16978TIP3    H172349   6.385   5.392  17.084 -0.5478 -3.3086 -1.2063
16978TIP3    H272350   6.340   5.458  16.956  1.3454  0.9172  0.2147
16979TIP3   OH272351   2.343   4.561  12.604 -0.2843  0.0960 -0.1269
16979TIP3    H172352   2.266   4.551  12.660 -0.2648 -1.2179 -0.3324
16979TIP3    H272353   2.416   4.568  12.666 -0.3146 -0.8923  0.0173
16980TIP3   OH272354   4.038   2.876  13.057 -0.3292 -0.0523  0.3807
16980TIP3    H172355   4.094   2.944  13.094 -0.0752 -0.3016  0.4484
16980TIP3    H272356   3.973   2.859  13.125 -1.3020  1.1863 -0.2023
16981TIP3   OH272357   6.106   1.053  16.771  0.0581  0.2568  0.2933
16981TIP3    H172358   6.078   1.066  16.681 -2.3346  0.1200  0.9839
16981TIP3    H272359   6.082   1.133  16.816  0.7426  0.1116  0.9372
16982TIP3   OH272360   3.170   3.000   6.146 -0.1375  0.2156 -0.4251
16982TIP3    H172361   3.127   2.915   6.146 -0.4243  0.3524  0.4619
16982TIP3    H272362   3.191   3.016   6.238 -2.1268  2.1448 -0.2666
16983TIP3   OH272363   6.734   6.741   3.796  0.1559  0.5402 -0.1462
16983TIP3    H172364   6.715   6.806   3.865  3.1829  1.2557  0.0805
16983TIP3    H272365   6.657   6.685   3.795 -1.2118  2.2786  1.8178
16984TIP3   OH272366   5.739   3.080   3.989 -0.2599 -0.0073 -0.2286
16984TIP3    H172367   5.739   2.986   3.969  1.5643  0.4125 -2.4455
16984TIP3    H272368   5.745   3.123   3.904  1.8958  2.0454  0.8720
16985TIP3   OH272369   4.212   0.194   3.527  0.6092  0.2324  0.3617
16985TIP3    H172370   4.209   0.277   3.480 -1.7111 -1.0223 -1.7923
16985TIP3    H272371   4.149   0.204   3.598 -0.7241 -0.1774 -0.7555
16986TIP3   OH272372   3.140   5.594   5.513  0.3649 -0.6525  0.4263
16986TIP3    H172373   3.135   5.626   5.603 -1.4656 -0.2263  0.1899
16986TIP3    H272374   3.092   5.512   5.514 -0.0796 -0.3978 -0.2768
16987TIP3   OH272375   1.753   3.746  13.175 -0.0864  0.3738  0.0646
16987TIP3    H172376   1.739   3.691  13.098 -0.6041  0.5024  0.0651
16987TIP3    H272377   1.757   3.835  13.141 -1.2263  0.5154  0.2875
16988TIP3   OH272378   1.643   2.544   1.135  0.2638 -0.3268 -0.0017
16988TIP3    H172379   1.633   2.631   1.096  0.2422 -0.0805  0.5501
16988TIP3    H272380   1.728   2.513   1.104  0.4651  0.0726  0.1635
16989TIP3   OH272381   6.622   6.323  10.975  0.1351 -0.7070 -0.0679
16989TIP3    H172382   6.707   6.357  11.003 -0.3871  0.8680 -0.3523
16989TIP3    H272383   6.618   6.342  10.881 -0.2572 -1.3559 -0.1864
16990TIP3   OH272384   4.780   4.351  12.905 -0.0206  0.5655  0.0853
16990TIP3    H172385   4.838   4.410  12.857  0.4310 -0.5192 -0.6922
16990TIP3    H272386   4.837   4.306  12.967 -0.4958  1.4904  1.2271
16991TIP3   OH272387   1.605   5.981  14.028  0.1255 -0.3814 -0.2053
16991TIP3    H172388   1.594   5.908  14.090  0.2324 -1.2960 -1.2449
16991TIP3    H272389   1.555   5.954  13.951  0.3811  0.5379 -0.6924
16992TIP3   OH272390   6.311   2.027  17.096 -0.1372  0.2344 -0.3103
16992TIP3    H172391   6.395   2.050  17.134  0.0191  0.9278 -1.0672
16992TIP3    H272392   6.308   1.931  17.102 -0.7554  0.3900  2.7472
16993TIP3   OH272393   6.693   4.966  13.399 -0.1232 -0.2961  0.0271
16993TIP3    H172394   6.688   5.025  13.474 -2.9565  1.1294 -1.2151
16993TIP3    H272395   6.775   4.988  13.356  0.6136  0.1820  1.6384
16994TIP3   OH272396   4.707   4.964   6.090  0.3040 -0.5890 -0.5903
16994TIP3    H172397   4.721   5.054   6.119 -1.0720 -0.5137 -0.0961
16994TIP3    H272398   4.612   4.952   6.094  0.5815 -2.6279  1.0919
16995TIP3   OH272399   1.030   6.562   3.018 -0.6345 -0.3951  0.1686
16995TIP3    H172400   0.942   6.531   2.995 -0.2936 -0.9770 -0.3837
16995TIP3    H272401   1.015   6.646   3.062 -1.6031 -1.4423  1.9287
16996TIP3   OH272402   0.352   1.320   4.635 -0.1933 -0.4585  0.0558
16996TIP3    H172403   0.258   1.303   4.644 -0.6349  1.4101 -0.7429
16996TIP3    H272404   0.390   1.235   4.612 -1.7900 -1.0777 -0.3650
16997TIP3   OH272405   4.178   1.680  11.361 -0.3663 -0.0098 -0.0946
16997TIP3    H172406   4.226   1.648  11.284  0.0880 -1.0571  0.6200
16997TIP3    H272407   4.102   1.621  11.367  0.1803 -0.6109  0.9048
16998TIP3   OH272408   4.605   6.643  10.558 -0.4189 -0.1916  0.3997
16998TIP3    H172409   4.591   6.718  10.501 -0.6201  1.3608  2.4692
16998TIP3    H272410   4.517   6.609  10.575 -0.4242 -0.1156  0.5188
16999TIP3   OH272411   6.700   0.665  15.981 -0.1051  0.6855  0.2161
16999TIP3    H172412   6.748   0.739  16.017 -0.6709  0.8978  0.5386
16999TIP3    H272413   6.733   0.656  15.891  1.6476 -0.1265  0.9047
17000TIP3   OH272414   4.485   2.887   0.605  0.0625 -0.7505 -0.6484
17000TIP3    H172415   4.515   2.846   0.524  1.3115 -1.3869  0.1259
17000TIP3    H272416   4.409   2.834   0.631  0.6050 -1.5066 -0.5817
17001TIP3   OH272417   1.572   2.423  13.148 -0.3499 -0.4738 -0.2966
17001TIP3    H172418   1.581   2.364  13.073  0.4023 -0.0945 -0.5023
17001TIP3    H272419   1.639   2.394  13.209 -0.1168  0.0339 -0.3106
17002TIP3   OH272420   4.293   3.970  11.433 -0.3641 -0.4613 -0.0465
17002TIP3    H172421   4.223   4.008  11.486  0.8692  0.6186  0.8430
17002TIP3    H272422   4.251   3.946  11.351 -1.7419  0.3021  0.4206
17003TIP3   OH272423   2.984   4.831   1.131 -1.4528  0.0185  0.0175
17003TIP3    H172424   2.940   4.916   1.118 -0.2923  0.4301 -1.2260
17003TIP3    H272425   2.914   4.767   1.123 -1.7582  0.6351 -2.5070
17004TIP3   OH272426   6.249   0.731   1.191 -0.2280 -0.1452 -0.5664
17004TIP3    H172427   6.279   0.646   1.222  1.6764  0.2281 -1.3170
17004TIP3    H272428   6.155   0.732   1.210  0.0420 -1.7476  0.9206
17005TIP3   OH272429   3.765   6.519  13.161 -0.4312 -0.1115 -0.1595
17005TIP3    H172430   3.737   6.608  13.179 -1.3666 -0.2209 -1.0315
17005TIP3    H272431   3.779   6.517  13.066 -0.4696 -0.9102 -0.1514
17006TIP3   OH272432   5.130   4.608  15.527 -0.0188 -0.2957  0.3598
17006TIP3    H172433   5.127   4.523  15.570  1.3577 -0.3595  0.3663
17006TIP3    H272434   5.221   4.637  15.538 -0.6224  1.4563  0.8902
17007TIP3   OH272435   0.017   1.211   4.980  0.5148 -0.5486 -0.3639
17007TIP3    H172436   0.093   1.231   4.925  1.2780  0.5488  1.0639
17007TIP3    H272437   0.003   1.290   5.032 -0.8933 -1.1661  0.2228
17008TIP3   OH272438   0.212   6.658  16.885  0.1034 -0.2761  0.0379
17008TIP3    H172439   0.142   6.618  16.936  0.9471 -0.7722  0.8089
17008TIP3    H272440   0.213   6.608  16.803 -0.0403 -0.6730  0.2783
17009TIP3   OH272441   4.033   6.694  16.319  0.4659  0.2098 -0.3712
17009TIP3    H172442   4.125   6.681  16.293  0.1491  0.2526 -1.5599
17009TIP3    H272443   3.983   6.650  16.251 -0.4372  1.7964 -0.7716
17010TIP3   OH272444   6.082   3.889  17.206  0.3735 -0.2143  0.4968
17010TIP3    H172445   5.986   3.892  17.204  0.4037  0.5542  0.0812
17010TIP3    H272446   6.103   3.882  17.299 -0.0417  1.3975  0.7281
17011TIP3   OH272447   3.664   1.968  16.408  0.4288 -0.2692  0.8514
17011TIP3    H172448   3.676   1.957  16.502  3.4785  0.0650  0.5304
17011TIP3    H272449   3.651   1.879  16.375 -0.0986 -0.4332  1.4812
17012TIP3   OH272450   5.786   2.511   4.736 -0.0676  0.3634 -0.3026
17012TIP3    H172451   5.791   2.426   4.693  2.1728  0.3054  0.0139
17012TIP3    H272452   5.759   2.492   4.826  1.0735 -0.1031 -0.0467
17013TIP3   OH272453   6.298   0.448   0.837  0.4596 -0.5176 -0.3978
17013TIP3    H172454   6.364   0.503   0.878  0.2193  0.7152 -1.6443
17013TIP3    H272455   6.220   0.503   0.834  0.2221 -0.9230 -1.6834
17014TIP3   OH272456   5.048   6.413  15.045 -0.8003  0.5590  0.0666
17014TIP3    H172457   5.087   6.499  15.027  1.4381 -0.2203  0.9605
17014TIP3    H272458   5.123   6.357  15.067 -2.2729 -1.4974  0.0108
17015TIP3   OH272459   1.827   5.683  14.526 -0.0687  0.0537  0.0380
17015TIP3    H172460   1.868   5.596  14.524 -0.9092 -0.3411 -0.1145
17015TIP3    H272461   1.742   5.669  14.566 -1.1338  0.3974 -2.0222
17016TIP3   OH272462   2.894   0.196  16.620 -0.3321  0.0549  0.2409
17016TIP3    H172463   2.954   0.252  16.570  1.0370 -2.3569 -0.8801
17016TIP3    H272464   2.952   0.142  16.674 -1.5844 -1.0178  0.5285
17017TIP3   OH272465   2.752   3.717   0.869  0.3389 -0.3196  0.2431
17017TIP3    H172466   2.747   3.622   0.869  0.6779 -0.3363  0.3724
17017TIP3    H272467   2.691   3.744   0.937 -0.4166 -0.4087 -0.3824
17018TIP3   OH272468   5.749   4.247   1.017  0.2021 -0.0200 -0.1150
17018TIP3    H172469   5.763   4.295   1.098  0.1531 -0.6584  0.2726
17018TIP3    H272470   5.760   4.155   1.041 -2.1457 -0.3904 -0.3245
17019TIP3   OH272471   2.585   5.266  13.970  0.5888  0.1074  0.9224
17019TIP3    H172472   2.512   5.289  14.028 -0.8764 -0.2521 -0.7629
17019TIP3    H272473   2.624   5.189  14.011 -0.1484  0.1245  1.6831
17020TIP3   OH272474   4.420   3.440  11.966 -0.5665  0.0921  0.0263
17020TIP3    H172475   4.431   3.494  11.888  1.3102  0.1359  0.3009
17020TIP3    H272476   4.441   3.351  11.937  0.1482  0.1108  0.4739
17021TIP3   OH272477   1.358   0.020   5.411  0.5348 -0.5652 -0.2713
17021TIP3    H172478   1.376   0.001   5.318  2.0080 -0.9912  0.0839
17021TIP3    H272479   1.272   0.062   5.410  1.0180  0.4805 -1.9601
17022TIP3   OH272480   6.773   0.234  11.204 -0.3753  0.6328 -0.5899
17022TIP3    H172481   6.855   0.214  11.159 -0.7871  0.9085 -1.4732
17022TIP3    H272482   6.707   0.235  11.134 -1.0901  0.6474  0.0805
17023TIP3   OH272483   0.321   2.434   5.596 -0.6041 -0.3124  0.2783
17023TIP3    H172484   0.326   2.365   5.529  0.3559  0.0173  0.0144
17023TIP3    H272485   0.412   2.460   5.611 -0.7258 -0.9406  2.2891
17024TIP3   OH272486   2.812   2.697  10.830 -0.6428  0.8140  0.1747
17024TIP3    H172487   2.728   2.668  10.866 -0.6097 -0.1719 -0.5354
17024TIP3    H272488   2.796   2.787  10.801 -1.5406  0.5193 -0.2450
17025TIP3   OH272489   5.804   4.496  15.964  0.1128 -0.1005 -0.2812
17025TIP3    H172490   5.871   4.460  16.023 -0.0924 -0.3151 -0.1776
17025TIP3    H272491   5.753   4.554  16.019  0.7147  0.6895 -0.5519
17026TIP3   OH272492   5.208   0.294   2.258  0.5886  0.1361  0.0919
17026TIP3    H172493   5.161   0.248   2.327  1.5824  0.8173  1.2281
17026TIP3    H272494   5.139   0.325   2.198 -0.1756 -1.6545  0.0188
17027TIP3   OH272495   0.729   1.218   5.779  0.5065 -0.1179  0.0296
17027TIP3    H172496   0.754   1.239   5.689  1.9806 -2.8013 -0.2401
17027TIP3    H272497   0.728   1.303   5.823  1.8929  1.0240 -1.9969
17028TIP3   OH272498   4.816   6.635  11.095  0.2589  0.1711  0.6684
17028TIP3    H172499   4.768   6.572  11.148  0.9346  0.3367  1.5009
17028TIP3    H272500   4.765   6.643  11.015 -0.4550 -0.5492  1.0393
17029TIP3   OH272501   5.926   1.724  13.110  0.5205 -0.3712  0.0009
17029TIP3    H172502   5.841   1.684  13.095  1.2054 -1.9138  0.1155
17029TIP3    H272503   5.925   1.805  13.059 -0.8138 -0.6446 -0.4079
17030TIP3   OH272504   4.602   3.253   0.870 -0.4177 -0.0915 -0.5349
17030TIP3    H172505   4.527   3.310   0.855 -1.3873 -1.4911 -1.1689
17030TIP3    H272506   4.678   3.306   0.845 -1.3969  0.4931 -2.4153
17031TIP3   OH272507   3.768   1.945   0.325  0.3088 -0.1231  0.4359
17031TIP3    H172508   3.767   1.999   0.246  0.4866  0.1297  0.6092
17031TIP3    H272509   3.733   2.001   0.393  0.9857 -0.0555  0.7317
17032TIP3   OH272510   3.157   0.903  11.711 -0.0249 -0.2980 -0.3705
17032TIP3    H172511   3.131   0.852  11.634 -0.7129 -0.3253 -0.1240
17032TIP3    H272512   3.129   0.993  11.691 -0.9881 -0.4640  0.2081
17033TIP3   OH272513   1.146   2.094   1.440 -0.7396  0.5102 -0.5794
17033TIP3    H172514   1.190   2.175   1.414 -1.5836  1.1605 -0.0259
17033TIP3    H272515   1.215   2.028   1.439  0.0731  1.3474 -0.5281
17034TIP3   OH272516   0.667   5.557   3.548  0.3313  0.3792 -0.0080
17034TIP3    H172517   0.597   5.564   3.613 -0.0470 -2.0998 -0.1155
17034TIP3    H272518   0.744   5.593   3.591 -0.3372  0.4346  1.1503
17035TIP3   OH272519   3.016   3.750   1.028 -0.1764  0.8258  0.5163
17035TIP3    H172520   2.991   3.840   1.008 -0.6943  0.1716 -1.8452
17035TIP3    H272521   2.933   3.702   1.032  0.2600 -0.0767 -0.9761
17036TIP3   OH272522   0.245   5.907   3.626 -0.1913 -0.2029 -0.3053
17036TIP3    H172523   0.308   5.930   3.558  1.5524 -0.7888  1.0698
17036TIP3    H272524   0.225   5.814   3.610  0.8985 -0.5818  0.5013
17037TIP3   OH272525   2.605   1.104  13.521  0.7674 -0.2624 -0.0798
17037TIP3    H172526   2.622   1.070  13.609  0.6622 -0.2600 -0.0580
17037TIP3    H272527   2.692   1.125  13.487  1.0336 -2.4914 -0.8566
17038TIP3   OH272528   6.324   3.371  11.602 -0.5887 -0.3434  0.8596
17038TIP3    H172529   6.256   3.434  11.627 -1.2960 -0.4499 -0.7342
17038TIP3    H272530   6.292   3.287  11.637 -0.5090 -0.1163  1.4722
17039TIP3   OH272531   3.870   0.557   4.894  0.0046 -0.2361  0.3811
17039TIP3    H172532   3.891   0.503   4.818  0.6658 -1.2451  1.2561
17039TIP3    H272533   3.795   0.609   4.867 -1.4652 -2.5331 -0.0726
17040TIP3   OH272534   6.130   6.208  11.667  0.0152  0.3333 -0.1414
17040TIP3    H172535   6.109   6.191  11.575  0.8894 -0.5458 -0.1798
17040TIP3    H272536   6.218   6.173  11.679 -0.2661  0.0334  1.1472
17041TIP3   OH272537   2.264   3.017   4.252  0.7386 -0.1704 -0.5065
17041TIP3    H172538   2.303   3.103   4.263  1.6885 -0.6267 -0.2672
17041TIP3    H272539   2.196   3.012   4.319 -0.7245  1.1863 -1.8493
17042TIP3   OH272540   5.690   3.651   2.197 -0.2354 -0.5456 -0.1038
17042TIP3    H172541   5.775   3.615   2.223 -0.4922 -0.4441  0.9257
17042TIP3    H272542   5.712   3.721   2.135  0.6161  1.0785  1.9472
17043TIP3   OH272543   5.538   6.069  15.845 -0.3887  0.3392  0.5446
17043TIP3    H172544   5.444   6.053  15.839 -0.9722  1.6998  4.3717
17043TIP3    H272545   5.552   6.147  15.792 -1.3219 -0.1539 -0.4472
17044TIP3   OH272546   6.171   0.855  12.365  0.4269 -0.6213  0.1123
17044TIP3    H172547   6.176   0.825  12.456 -0.6727 -0.0263  0.3776
17044TIP3    H272548   6.081   0.835  12.338  0.2452  0.7029 -0.3050
17045TIP3   OH272549   5.853   1.127  14.901  0.3583 -0.0627  0.2564
17045TIP3    H172550   5.854   1.220  14.927 -1.0120  0.1250 -0.2867
17045TIP3    H272551   5.866   1.129  14.806  0.1914 -0.4110  0.2251
17046TIP3   OH272552   3.255   4.466   0.067 -0.3463  0.2506  0.3832
17046TIP3    H172553   3.190   4.530   0.039 -1.0334 -0.0226  1.3122
17046TIP3    H272554   3.288   4.500   0.150  1.4922  0.9373 -0.5931
17047TIP3   OH272555   1.150   6.017   4.509  0.1634  0.3736 -0.2677
17047TIP3    H172556   1.116   5.994   4.423  1.9184 -0.0618 -0.8564
17047TIP3    H272557   1.183   6.107   4.498 -0.5230  0.6929  0.2284
17048TIP3   OH272558   1.600   6.435  16.641  0.2552  0.0545 -0.5372
17048TIP3    H172559   1.642   6.352  16.666  0.6067  0.3065 -0.2921
17048TIP3    H272560   1.611   6.492  16.717 -1.3052 -0.1600 -0.1392
17049TIP3   OH272561   3.288   0.790  16.567  0.2381  0.0645 -0.1183
17049TIP3    H172562   3.235   0.821  16.494 -0.8355 -0.6482  0.3547
17049TIP3    H272563   3.230   0.733  16.618  1.6409 -1.2866  0.0177
17050TIP3   OH272564   5.966   5.119  13.793  0.1601 -1.1448 -0.0180
17050TIP3    H172565   5.906   5.105  13.866 -0.7017 -0.7005 -0.6309
17050TIP3    H272566   5.992   5.211  13.801 -0.7598 -0.7979 -0.8644
17051TIP3   OH272567   1.856   0.198   3.571  0.0082 -0.6329 -0.3625
17051TIP3    H172568   1.872   0.233   3.659 -1.6051  1.1593 -0.7487
17051TIP3    H272569   1.795   0.125   3.585  0.4463 -0.9217  0.0779
17052TIP3   OH272570   1.334   3.606  15.650  0.4653 -0.1409  0.5069
17052TIP3    H172571   1.413   3.658  15.663 -0.0341 -0.1798  4.4045
17052TIP3    H272572   1.292   3.605  15.737 -2.2222 -2.6591 -0.7504
17053TIP3   OH272573   4.293   5.254  11.448  0.2493  0.2350  0.2393
17053TIP3    H172574   4.201   5.239  11.428 -0.0102  1.0600  0.7779
17053TIP3    H272575   4.329   5.293  11.368  0.1916 -0.3164 -0.0561
17054TIP3   OH272576   4.467   3.529  12.580  0.4311 -0.1654 -0.0787
17054TIP3    H172577   4.504   3.615  12.562 -0.8036  0.3520 -0.1421
17054TIP3    H272578   4.482   3.479  12.500  1.5721 -0.1799  0.1234
17055TIP3   OH272579   1.479   1.285  16.118 -0.2449 -0.3464  0.5239
17055TIP3    H172580   1.569   1.264  16.142  0.1919 -0.8032 -1.4153
17055TIP3    H272581   1.478   1.380  16.107  0.9242 -0.6931 -2.9658
17056TIP3   OH272582   2.853   0.047   1.697  0.7228 -0.3029  0.4741
17056TIP3    H172583   2.923  -0.017   1.686 -0.0576 -0.6403 -3.0042
17056TIP3    H272584   2.876   0.118   1.637 -0.3874  0.9779  1.5197
17057TIP3   OH272585   4.711   2.258  15.255 -0.0583  0.0701  0.4523
17057TIP3    H172586   4.727   2.215  15.170  2.0387 -0.6934  1.1868
17057TIP3    H272587   4.654   2.332  15.234 -0.6104 -0.8499 -1.4319
17058TIP3   OH272588   2.195   0.341   3.608 -0.5965  0.2908  0.2417
17058TIP3    H172589   2.248   0.270   3.645 -0.0263  0.6444  0.1078
17058TIP3    H272590   2.240   0.421   3.635 -0.3849  0.5578 -0.8919
17059TIP3   OH272591   4.400   4.650  12.432 -0.0519  0.1120  0.2530
17059TIP3    H172592   4.465   4.716  12.456  1.0184 -0.5161 -0.8832
17059TIP3    H272593   4.351   4.690  12.360  0.9096 -0.5013 -0.7584
17060TIP3   OH272594   1.972   2.257  11.437 -0.0691  0.3039  0.0027
17060TIP3    H172595   2.060   2.252  11.475  0.8999 -0.2930 -2.2379
17060TIP3    H272596   1.954   2.168  11.408 -1.5368  0.3687  0.7189
17061TIP3   OH272597   6.670   1.239  10.549 -0.2878 -0.2849 -0.5411
17061TIP3    H172598   6.642   1.326  10.576 -1.4895 -0.3787 -1.4392
17061TIP3    H272599   6.695   1.195  10.630 -0.8330  0.4978  0.0501
17062TIP3   OH272600   2.450   6.361  16.193  0.0410  0.0379  0.1307
17062TIP3    H172601   2.427   6.342  16.103  0.9171 -1.7449  0.2607
17062TIP3    H272602   2.397   6.437  16.217 -1.6159 -0.6814 -1.2507
17063TIP3   OH272603   1.878   5.412   5.084  0.1116  0.0853  0.9230
17063TIP3    H172604   1.897   5.502   5.056 -1.9364  0.2809  0.0624
17063TIP3    H272605   1.879   5.362   5.002  1.9776 -0.8241  1.4905
17064TIP3   OH272606   2.324   3.123  11.717 -0.1172 -0.2347  0.2063
17064TIP3    H172607   2.339   3.097  11.626  1.6253 -1.5873  0.8376
17064TIP3    H272608   2.347   3.045  11.768  2.1594  1.5188  2.0043
17065TIP3   OH272609   0.685   1.606  12.406 -0.2533  0.3329  0.1156
17065TIP3    H172610   0.615   1.554  12.365  1.5162 -1.6199 -0.5370
17065TIP3    H272611   0.648   1.634  12.489 -2.3422  0.6039 -0.8670
17066TIP3   OH272612   6.684   2.052   4.434 -0.4891 -0.0202  0.0116
17066TIP3    H172613   6.656   2.022   4.347  1.3499 -1.6038 -0.0837
17066TIP3    H272614   6.774   2.081   4.421 -0.5342  0.6836  1.1963
17067TIP3   OH272615   4.692   5.656   5.790 -0.2567 -0.4576 -0.3156
17067TIP3    H172616   4.633   5.645   5.864 -0.1681 -1.5476 -0.4020
17067TIP3    H272617   4.738   5.738   5.808 -2.2987  0.8094 -0.6058
17068TIP3   OH272618   0.873   5.772  13.230  0.0512 -0.2093 -0.5858
17068TIP3    H172619   0.829   5.734  13.305 -0.6403 -1.5357 -1.6348
17068TIP3    H272620   0.853   5.866  13.234 -0.0660 -0.2849  0.7915
17069TIP3   OH272621   6.278   1.060   3.318 -0.2189 -0.2534 -0.1139
17069TIP3    H172622   6.363   1.073   3.360  0.2433 -0.0492 -1.0990
17069TIP3    H272623   6.245   1.148   3.302 -1.3224 -0.3213  1.6446
17070TIP3   OH272624   0.303   4.325  14.013 -0.1337  0.4561  0.7040
17070TIP3    H172625   0.222   4.301  13.968 -0.1087  1.0944  0.3173
17070TIP3    H272626   0.302   4.274  14.093 -0.7661  0.2204  0.5445
17071TIP3   OH272627   1.483   1.776  13.255 -0.0468  0.4534 -0.4604
17071TIP3    H172628   1.544   1.714  13.214 -0.2620 -0.2391  0.2609
17071TIP3    H272629   1.405   1.724  13.272 -0.1871  0.9035  0.2551
17072TIP3   OH272630   5.050   1.905   3.413  0.0481  0.9019 -0.4416
17072TIP3    H172631   5.137   1.913   3.452  0.5222  1.2359 -1.5409
17072TIP3    H272632   4.992   1.950   3.474  0.2157 -1.6460  1.6668
17073TIP3   OH272633   1.632   1.225   3.223  0.1657 -0.0094 -0.6843
17073TIP3    H172634   1.595   1.177   3.149  0.2514 -2.0084  0.5454
17073TIP3    H272635   1.556   1.260   3.269 -0.1452 -2.4436  0.7195
17074TIP3   OH272636   4.401   3.210  13.895 -0.1923  0.4718 -0.2180
17074TIP3    H172637   4.396   3.114  13.893  1.0531  0.4165 -1.4645
17074TIP3    H272638   4.311   3.239  13.880 -0.6351 -0.4918  0.4724
17075TIP3   OH272639   5.747   1.390   5.243  0.0657 -0.0270  0.4387
17075TIP3    H172640   5.689   1.427   5.309  1.7368  1.5199  1.1036
17075TIP3    H272641   5.730   1.443   5.164 -0.9196 -0.9534  0.0198
17076TIP3   OH272642   6.677   2.570  16.471 -0.7061  0.7522  0.6966
17076TIP3    H172643   6.723   2.625  16.534  0.9348 -0.5113  0.6147
17076TIP3    H272644   6.625   2.631  16.419 -0.5795  1.9930  2.0125
17077TIP3   OH272645   6.348   0.663   3.761  0.2043 -0.6184  0.3635
17077TIP3    H172646   6.425   0.620   3.797  0.5948 -0.2360  0.0021
17077TIP3    H272647   6.338   0.625   3.673  2.3250  2.1141 -1.1486
17078TIP3   OH272648   6.575   0.978  16.174 -0.1621 -0.4423 -0.3307
17078TIP3    H172649   6.584   0.980  16.079 -1.9150  0.7848 -0.5045
17078TIP3    H272650   6.515   0.905  16.191  0.6349 -1.0486 -0.1211
17079TIP3   OH272651   3.549   0.236  11.819 -0.1102 -0.3203  0.1363
17079TIP3    H172652   3.521   0.315  11.866 -0.5152 -0.3754 -0.0061
17079TIP3    H272653   3.467   0.196  11.789  0.1015 -0.7157  0.0801
17080TIP3   OH272654   3.738   0.538  16.453  0.0432 -0.1741  0.2797
17080TIP3    H172655   3.654   0.567  16.487 -0.2959 -0.7129 -0.0928
17080TIP3    H272656   3.722   0.522  16.360  0.1903 -1.6710  0.5043
17081TIP3   OH272657   6.021   5.057   3.089 -0.0369 -0.2046 -0.6070
17081TIP3    H172658   5.949   5.110   3.054 -0.5323  0.2080  0.9933
17081TIP3    H272659   6.012   4.973   3.045 -1.0711  0.0798 -0.9657
17082TIP3   OH272660   0.710   5.731  15.705  0.0607 -0.0127  0.1910
17082TIP3    H172661   0.775   5.783  15.658 -0.5056  0.6859  0.1613
17082TIP3    H272662   0.638   5.720  15.642 -0.5527  0.6313  0.7713
17083TIP3   OH272663   0.765   4.853  13.316 -0.3929  0.5508 -0.6562
17083TIP3    H172664   0.831   4.850  13.385  0.7627  1.6138 -1.6642
17083TIP3    H272665   0.683   4.872  13.361  0.0920 -0.2065  0.5630
17084TIP3   OH272666   2.859   1.911  14.646  0.4119 -0.6151 -0.1575
17084TIP3    H172667   2.827   2.001  14.656  1.6236 -0.0791 -0.9053
17084TIP3    H272668   2.780   1.858  14.640 -0.3575 -0.0330  3.8263
17085TIP3   OH272669   1.868   2.269   2.330 -0.8890  0.0134 -0.2457
17085TIP3    H172670   1.811   2.322   2.274 -0.6920  2.6955  1.9879
17085TIP3    H272671   1.957   2.298   2.308 -0.8408  1.4850  1.8048
17086TIP3   OH272672   6.677   3.511  15.401  0.1613  0.4740 -0.0710
17086TIP3    H172673   6.596   3.461  15.394  0.1341  0.4777  0.2106
17086TIP3    H272674   6.651   3.602  15.384  0.2358  0.3717 -0.7247
17087TIP3   OH272675   2.845   1.197  15.112 -0.2866 -0.0742 -0.1808
17087TIP3    H172676   2.845   1.112  15.156 -0.4287  1.3365  2.6491
17087TIP3    H272677   2.936   1.212  15.089 -0.3451 -1.2387 -1.1873
17088TIP3   OH272678   3.995   4.205  12.806  0.4778 -0.1263  0.2496
17088TIP3    H172679   4.062   4.249  12.858 -0.8230 -0.4004  2.2187
17088TIP3    H272680   4.031   4.118  12.788  2.0307  0.8606 -1.5782
17089TIP3   OH272681   2.128   4.588  16.220  0.3150 -0.3596  0.2253
17089TIP3    H172682   2.185   4.516  16.190  1.2472  0.4845 -0.0549
17089TIP3    H272683   2.040   4.554  16.208  0.7313 -1.2294 -0.5230
17090TIP3   OH272684   0.292   6.443   1.078 -0.4019 -0.5872  0.4497
17090TIP3    H172685   0.318   6.470   0.990 -0.5573 -0.4721  0.4395
17090TIP3    H272686   0.295   6.348   1.076 -1.5749 -0.6199 -0.0323
17091TIP3   OH272687   6.636   3.542   4.875 -0.9120 -0.1882  0.5201
17091TIP3    H172688   6.696   3.598   4.825  1.4526 -3.1260 -0.1265
17091TIP3    H272689   6.565   3.522   4.815 -0.9542  0.8415  0.2292
17092TIP3   OH272690   1.812   4.181   2.396 -0.5205 -0.3418 -0.0148
17092TIP3    H172691   1.788   4.106   2.451 -1.0350 -0.7128 -0.7422
17092TIP3    H272692   1.754   4.251   2.425  1.6611  0.5519  2.4277
17093TIP3   OH272693   2.827   2.876  17.079  0.6305 -0.4156 -0.1247
17093TIP3    H172694   2.805   2.822  17.155  0.4832  1.2356  1.0197
17093TIP3    H272695   2.800   2.965  17.104  2.8683  0.5811 -1.1216
17094TIP3   OH272696   2.096   3.462   3.231 -0.3877 -0.0304 -0.0609
17094TIP3    H172697   2.051   3.380   3.246 -2.1457  0.9364  0.0495
17094TIP3    H272698   2.184   3.448   3.266 -0.5038 -2.0090 -0.5032
17095TIP3   OH272699   4.280   1.905   3.042 -0.2131 -0.1473 -0.0069
17095TIP3    H172700   4.313   1.994   3.050 -0.2007 -0.3159  1.9630
17095TIP3    H272701   4.185   1.913   3.049 -0.3566 -0.0955 -1.7574
17096TIP3   OH272702   3.431   6.164   1.284 -0.1521  0.2670 -0.1693
17096TIP3    H172703   3.455   6.201   1.199 -3.7180  1.9176 -0.5458
17096TIP3    H272704   3.441   6.236   1.346  0.6703 -0.4181  0.5000
17097TIP3   OH272705   1.670   5.238   0.392 -0.0094 -0.3801  0.0740
17097TIP3    H172706   1.735   5.265   0.457  0.7235 -2.1636  0.1214
17097TIP3    H272707   1.715   5.247   0.308 -0.4968  0.6201 -0.0847
17098TIP3   OH272708   2.348   1.124   4.898  0.0598 -0.1623 -0.5558
17098TIP3    H172709   2.254   1.143   4.901  0.0036 -0.3461 -1.1052
17098TIP3    H272710   2.385   1.192   4.842  0.0615 -0.8268 -1.3790
17099TIP3   OH272711   1.488   0.434  15.869  0.0461  1.0252  0.0057
17099TIP3    H172712   1.554   0.437  15.800  0.1844  1.4251  0.1526
17099TIP3    H272713   1.522   0.371  15.932  0.2870  1.2223  0.0763
17100TIP3   OH272714   0.518   0.567  16.197 -0.5168 -0.1953  0.1551
17100TIP3    H172715   0.570   0.643  16.225 -1.0792  0.4163 -0.4206
17100TIP3    H272716   0.544   0.497  16.256  3.2273 -0.7566 -2.0097
17101TIP3   OH272717   4.398   4.975   5.394 -0.5881  0.1891  0.1290
17101TIP3    H172718   4.325   4.914   5.380  0.7775 -2.0736  2.4774
17101TIP3    H272719   4.468   4.921   5.429  1.1096  2.9391  1.1119
17102TIP3   OH272720   3.311   2.805  15.440  0.1042 -0.1477 -0.0127
17102TIP3    H172721   3.396   2.847  15.437  0.7879 -1.5132 -0.0483
17102TIP3    H272722   3.330   2.712  15.452 -1.3635 -0.5186 -0.4259
17103TIP3   OH272723   1.219   3.280   2.099  0.4861  0.2281  0.0187
17103TIP3    H172724   1.146   3.283   2.038  1.5316  0.8697 -1.2426
17103TIP3    H272725   1.214   3.194   2.139 -1.4879  0.6069  0.6210
17104TIP3   OH272726   1.922   0.539  14.850 -0.1763  0.0950  0.2282
17104TIP3    H172727   1.849   0.498  14.803 -0.4870  0.4970  0.3617
17104TIP3    H272728   1.897   0.535  14.942  0.4785 -0.7876  0.3779
17105TIP3   OH272729   2.457   6.208   2.369  0.1831 -0.3471  0.5211
17105TIP3    H172730   2.549   6.231   2.354  0.1671  0.4071  1.5359
17105TIP3    H272731   2.445   6.126   2.321  1.3454 -0.3732  0.2546
17106TIP3   OH272732   4.347   4.399   5.175  0.0525 -0.2799 -0.1674
17106TIP3    H172733   4.301   4.332   5.225  2.3372 -0.5710  1.6551
17106TIP3    H272734   4.440   4.384   5.194  0.7524  1.9157 -1.5989
17107TIP3   OH272735   3.568   0.649   4.583 -0.0892 -0.2661  0.6399
17107TIP3    H172736   3.519   0.583   4.632  0.7349 -0.3979  1.2972
17107TIP3    H272737   3.501   0.710   4.551 -0.8896 -1.5630 -0.2146
17108TIP3   OH272738   3.189   5.661  15.204  0.3584  0.2291  0.1656
17108TIP3    H172739   3.115   5.662  15.142  0.7267  0.3050 -0.2763
17108TIP3    H272740   3.156   5.709  15.280  0.4497  1.6036 -0.6284
17109TIP3   OH272741   2.065   2.398   3.974  0.1137 -0.8195 -0.1680
17109TIP3    H172742   2.101   2.487   3.978  1.2534 -1.2506 -0.4495
17109TIP3    H272743   1.982   2.404   4.021  0.5031  0.2391  0.4252
17110TIP3   OH272744   4.396   0.312   4.856  0.1422 -0.3440 -0.2766
17110TIP3    H172745   4.383   0.348   4.944 -1.6557 -1.0021 -0.2558
17110TIP3    H272746   4.488   0.286   4.854  0.3682  0.3193  1.1762
17111TIP3   OH272747   2.211   0.342  13.311 -0.0074 -0.5424 -0.1120
17111TIP3    H172748   2.262   0.367  13.388 -0.3213 -0.8391  0.1947
17111TIP3    H272749   2.260   0.378  13.237 -0.3937  0.8928  0.3116
17112TIP3   OH272750   6.102   5.736  13.198  0.1247  0.1637  0.3998
17112TIP3    H172751   6.198   5.740  13.191  0.0408 -0.3410 -1.2785
17112TIP3    H272752   6.074   5.827  13.204  0.6489  0.3674 -0.1960
17113TIP3   OH272753   5.998   6.464  11.955 -0.3584 -0.5323  0.5265
17113TIP3    H172754   5.937   6.397  11.987 -1.4798  0.6299  0.8860
17113TIP3    H272755   5.944   6.543  11.947  1.1560  0.5708  1.0178
17114TIP3   OH272756   6.453   3.214   1.521  0.4092  0.0734 -0.5562
17114TIP3    H172757   6.524   3.159   1.553 -1.1437 -2.0833 -0.6843
17114TIP3    H272758   6.488   3.256   1.443  1.7646 -0.4017 -0.2164
17115TIP3   OH272759   0.059   6.210   4.931 -0.1679 -0.0251  0.1931
17115TIP3    H172760   0.054   6.305   4.941 -0.6819  0.2506 -2.3157
17115TIP3    H272761   0.153   6.192   4.925 -0.0669  0.3415  0.6682
17116TIP3   OH272762   4.556   4.004  16.650 -0.4766  0.2599 -0.5993
17116TIP3    H172763   4.496   4.068  16.687  1.5207  1.7984  0.0893
17116TIP3    H272764   4.614   3.980  16.722  0.8431  0.1389 -1.6766
17117TIP3   OH272765   0.311   2.026  12.028  0.0950  0.0331 -0.4921
17117TIP3    H172766   0.301   1.998  12.119 -0.8869 -2.0060 -1.1901
17117TIP3    H272767   0.289   2.119  12.028  2.4093  0.6119  1.7406
17118TIP3   OH272768   1.693   4.386   0.856  0.3435 -0.0937  0.5944
17118TIP3    H172769   1.728   4.305   0.893  0.6142  0.3948  1.4209
17118TIP3    H272770   1.631   4.418   0.921  0.8818  0.8178  0.6742
17119TIP3   OH272771   1.114   1.940  11.199  0.0689  0.3164  0.3210
17119TIP3    H172772   1.025   1.930  11.165 -0.5058  0.8810  1.6702
17119TIP3    H272773   1.169   1.936  11.120 -1.1175 -0.2202 -0.5057
17120TIP3   OH272774   0.609   1.962  15.045  0.0389  0.9544  0.1144
17120TIP3    H172775   0.675   1.973  14.978  0.0708 -0.0921 -0.0273
17120TIP3    H272776   0.625   2.034  15.107  0.0232  1.9048 -0.9636
17121TIP3   OH272777   1.157   2.011  13.536  0.4977  0.5372 -0.7699
17121TIP3    H172778   1.221   2.013  13.607  0.4972 -1.8542 -0.6653
17121TIP3    H272779   1.096   2.082  13.555  2.3180  1.9407 -0.1174
17122TIP3   OH272780   2.207   6.022  16.179  0.0499  0.0621  0.6029
17122TIP3    H172781   2.119   6.023  16.217 -0.7162  0.0312 -1.0925
17122TIP3    H272782   2.201   6.081  16.103  0.5775 -2.3791 -1.4101
17123TIP3   OH272783   4.691   0.403  11.345  0.0702 -0.0306  0.0808
17123TIP3    H172784   4.669   0.475  11.286  0.1077 -0.0614  0.0286
17123TIP3    H272785   4.649   0.327  11.307 -0.9006  0.1621  0.7448
17124TIP3   OH272786   2.902   6.624   5.674 -0.7702 -0.7033 -0.3350
17124TIP3    H172787   2.921   6.573   5.753  1.2061 -0.2919 -0.5237
17124TIP3    H272788   2.919   6.715   5.699 -1.5581 -0.4170 -0.8183
17125TIP3   OH272789   4.540   5.594  14.022 -0.7126  0.1884 -0.0635
17125TIP3    H172790   4.598   5.584  13.947 -0.3436  1.2433  0.0786
17125TIP3    H272791   4.496   5.509  14.030  0.4423 -0.4491 -0.4687
17126TIP3   OH272792   3.713   5.710   4.402  0.0271  0.4203  0.1156
17126TIP3    H172793   3.800   5.742   4.376 -0.1781  0.1686 -0.9178
17126TIP3    H272794   3.657   5.731   4.327 -0.4226 -0.9779  0.0466
17127TIP3   OH272795   6.681   4.341   4.880 -0.0920 -0.0385  0.5131
17127TIP3    H172796   6.686   4.391   4.961  0.5891  0.5111  0.1464
17127TIP3    H272797   6.587   4.325   4.867 -0.2473  0.3748  1.0967
17128TIP3   OH272798   4.755   6.615   5.437 -0.0027 -0.3449 -0.1139
17128TIP3    H172799   4.820   6.574   5.380 -0.0215 -0.5426  0.0053
17128TIP3    H272800   4.675   6.563   5.424 -0.4406  0.5438 -1.0594
17129TIP3   OH272801   5.478   2.455   5.544 -0.0430 -0.4011  0.2062
17129TIP3    H172802   5.432   2.538   5.550  0.1186 -0.1984 -1.1683
17129TIP3    H272803   5.409   2.391   5.526 -0.2978 -0.7360  2.2538
17130TIP3   OH272804   0.221   5.984   0.695 -0.5926  0.1962  0.4922
17130TIP3    H172805   0.274   5.934   0.633 -0.3129 -1.6970  2.1770
17130TIP3    H272806   0.133   5.982   0.659  0.1238  1.8612 -1.4366
17131TIP3   OH272807   6.056   5.945   0.494 -0.1390  0.8958  0.1731
17131TIP3    H172808   6.028   6.036   0.480  1.2528  1.3138 -0.0169
17131TIP3    H272809   6.105   5.948   0.577 -0.8288  0.1431  0.6143
17132TIP3   OH272810   2.473   5.515  13.464  0.1013 -0.0017  0.0378
17132TIP3    H172811   2.420   5.441  13.493 -0.2356 -0.0110 -0.6057
17132TIP3    H272812   2.563   5.483  13.468 -0.1043 -0.7146 -1.0370
17133TIP3   OH272813   1.221   2.347  16.712 -0.5513 -0.3645 -0.0426
17133TIP3    H172814   1.311   2.329  16.684 -0.0836 -1.3857  2.0573
17133TIP3    H272815   1.223   2.438  16.740 -0.9573  0.5942 -2.9450
17134TIP3   OH272816   5.495   4.868   6.440  0.6037 -0.4332  0.1085
17134TIP3    H172817   5.524   4.932   6.375 -0.5745  1.3226  1.2655
17134TIP3    H272818   5.448   4.920   6.506 -2.1953 -2.6955  0.0268
17135TIP3   OH272819   3.570   4.377  15.310 -0.3046 -0.1064 -0.2141
17135TIP3    H172820   3.558   4.472  15.311 -0.5266 -0.1435  0.9015
17135TIP3    H272821   3.482   4.341  15.323 -0.2210 -0.4672 -0.6152
17136TIP3   OH272822   1.572   2.216   2.742 -0.3123  0.2307 -0.4748
17136TIP3    H172823   1.540   2.302   2.717 -1.4427 -0.5089 -1.6456
17136TIP3    H272824   1.651   2.203   2.690  0.5223  1.0325  0.5731
17137TIP3   OH272825   4.665   3.910   2.951 -0.6594  0.4419  0.2687
17137TIP3    H172826   4.630   3.946   3.032  0.3692 -1.2843  1.5149
17137TIP3    H272827   4.760   3.909   2.964 -0.6354 -2.2690  0.1330
17138TIP3   OH272828   3.145   2.193   5.605 -0.2535 -0.1155  0.1787
17138TIP3    H172829   3.165   2.285   5.593 -2.3236  0.1500 -1.6169
17138TIP3    H272830   3.172   2.152   5.523  0.7997 -1.1304  1.0252
17139TIP3   OH272831   0.946   5.914   5.713  0.2934 -0.3136 -0.4138
17139TIP3    H172832   0.996   5.957   5.645 -0.6188 -0.3716 -1.1338
17139TIP3    H272833   0.982   5.825   5.718  0.6565 -0.1692 -0.5003
17140TIP3   OH272834   4.973   2.901   4.792 -0.8632 -0.3693  0.2970
17140TIP3    H172835   5.015   2.814   4.795 -1.8293 -0.8633 -0.3618
17140TIP3    H272836   4.937   2.907   4.704 -1.3964  0.4284  0.5667
17141TIP3   OH272837   3.335   0.450  14.691 -0.1134 -0.2729 -0.1858
17141TIP3    H172838   3.371   0.539  14.693 -1.4233  0.2751 -0.8488
17141TIP3    H272839   3.329   0.428  14.599 -2.6891  0.1493 -0.1484
17142TIP3   OH272840   1.075   3.517   3.395  0.4708  0.2459  0.2969
17142TIP3    H172841   1.060   3.425   3.420  1.4707  0.9116  3.5069
17142TIP3    H272842   0.989   3.558   3.404 -0.1376 -0.4672 -1.8306
17143TIP3   OH272843   0.113   1.070  16.716 -0.1212  0.7959  0.2830
17143TIP3    H172844   0.183   1.076  16.782 -1.5581 -0.4357  1.9623
17143TIP3    H272845   0.069   0.987  16.735 -0.5969  0.4329 -2.2376
17144TIP3   OH272846   1.814   2.321   5.198  0.4099 -0.0397  0.1485
17144TIP3    H172847   1.830   2.258   5.128  0.7443 -1.3235  1.3596
17144TIP3    H272848   1.725   2.302   5.227  1.4300 -1.7585  2.2876
17145TIP3   OH272849   5.570   5.618   4.333  0.0862 -0.4803  0.2254
17145TIP3    H172850   5.521   5.694   4.364 -0.8732 -1.0084  0.0228
17145TIP3    H272851   5.575   5.631   4.238  1.1010  0.0093  0.3360
17146TIP3   OH272852   5.662   4.343  16.302  0.3127  0.9029  0.3165
17146TIP3    H172853   5.673   4.426  16.256  0.9232  1.1730  0.9516
17146TIP3    H272854   5.699   4.278  16.242  1.7689  1.3378  0.7329
17147TIP3   OH272855   5.311   3.260   1.059  0.3268 -0.4391 -0.5126
17147TIP3    H172856   5.365   3.220   1.128  0.7598 -0.5652 -0.9265
17147TIP3    H272857   5.273   3.337   1.101  0.3359 -0.6899 -0.0344
17148TIP3   OH272858   6.665   6.143  13.941 -0.1255  0.2017 -0.1301
17148TIP3    H172859   6.658   6.048  13.949  1.0019 -0.0344 -1.8133
17148TIP3    H272860   6.758   6.162  13.952 -0.0720  0.9117 -1.6898
17149TIP3   OH272861   4.174   4.033   1.914 -0.5220 -0.5196  0.1340
17149TIP3    H172862   4.132   4.012   1.831  0.1876 -1.7219  0.0667
17149TIP3    H272863   4.125   4.108   1.947 -0.4800  0.2954 -1.6019
17150TIP3   OH272864   1.519   0.980  13.146 -0.1182  0.3096  0.5518
17150TIP3    H172865   1.519   0.962  13.052 -0.7884  0.4285  0.5246
17150TIP3    H272866   1.428   0.967  13.173  0.1595 -0.2180  1.2804
17151TIP3   OH272867   5.009   4.508   2.784  0.0782  0.1203 -0.3128
17151TIP3    H172868   4.958   4.566   2.727  0.0864 -0.0457 -0.4906
17151TIP3    H272869   4.951   4.435   2.802  0.4331 -0.3143 -0.9330
17152TIP3   OH272870   1.972   5.574   5.377 -0.2874  0.2151 -0.2168
17152TIP3    H172871   2.052   5.580   5.325 -0.1201 -3.3169 -0.5206
17152TIP3    H272872   1.999   5.599   5.466  0.5202  1.6726 -0.8671
17153TIP3   OH272873   6.124   4.566   4.494 -0.2014  0.4849  0.5954
17153TIP3    H172874   6.218   4.585   4.498 -0.0769 -0.1572  0.8039
17153TIP3    H272875   6.094   4.611   4.416  0.1235  1.3652  0.9717
17154TIP3   OH272876   0.989   0.660   6.439  0.1071  0.7306 -0.2671
17154TIP3    H172877   0.942   0.672   6.521 -1.0206  0.3450 -0.8515
17154TIP3    H272878   1.010   0.748   6.409  0.4270  0.8730  0.3765
17155TIP3   OH272879   6.443   2.624  16.811  0.3589 -0.2275  0.7380
17155TIP3    H172880   6.400   2.679  16.877  2.2995  1.9469  0.2558
17155TIP3    H272881   6.430   2.670  16.729  0.7971 -1.2542  0.0852
17156TIP3   OH272882   3.984   3.436  16.390  0.3857  0.0126  0.2443
17156TIP3    H172883   4.027   3.503  16.442  0.8994 -0.7878  0.8682
17156TIP3    H272884   4.046   3.416  16.320 -0.2533  1.0009 -0.6058
17157TIP3   OH272885   4.723   1.403  12.415  0.5684  0.2374  0.0111
17157TIP3    H172886   4.638   1.366  12.439  1.4494  0.4590  3.7508
17157TIP3    H272887   4.717   1.495  12.442  1.8952  0.3318 -0.0081
17158TIP3   OH272888   0.679   2.842   3.044  0.3847 -0.1556  0.2670
17158TIP3    H172889   0.755   2.870   2.994 -0.4065  1.3851 -0.0874
17158TIP3    H272890   0.715   2.804   3.124  1.5582 -0.4788 -0.4060
17159TIP3   OH272891   0.516   3.554  12.540  0.0026 -0.0673 -0.8625
17159TIP3    H172892   0.595   3.598  12.571  0.3630 -1.2434 -0.0969
17159TIP3    H272893   0.526   3.463  12.567 -1.0156 -0.5079 -1.9045
17160TIP3   OH272894   5.817   3.024  11.548 -0.1705 -0.2794 -0.0160
17160TIP3    H172895   5.747   3.075  11.507  1.3780  1.0668 -1.0331
17160TIP3    H272896   5.800   3.032  11.642 -0.2989  1.6041 -0.1913
17161TIP3   OH272897   3.823   6.314  13.485  0.3590 -0.1061  0.0796
17161TIP3    H172898   3.887   6.269  13.430  0.5756 -0.0658  0.2980
17161TIP3    H272899   3.769   6.244  13.520 -1.3059  0.0356 -2.0811
17162TIP3   OH272900   5.764   2.885   2.287 -0.1025  0.1667 -0.3917
17162TIP3    H172901   5.717   2.908   2.206 -1.6331  0.7247  0.6167
17162TIP3    H272902   5.855   2.910   2.271 -0.6027  1.2758 -1.5550
17163TIP3   OH272903   4.143   2.874  11.458  0.5280  0.9880 -0.0637
17163TIP3    H172904   4.081   2.937  11.494  0.1866  0.9451 -0.5751
17163TIP3    H272905   4.123   2.872  11.365  0.0043 -0.4565  0.0697
17164TIP3   OH272906   3.078   0.197  14.854 -0.3919 -0.0422  0.3276
17164TIP3    H172907   3.036   0.274  14.814 -1.5585 -1.0594 -0.4295
17164TIP3    H272908   3.018   0.172  14.925 -0.2214 -0.4895  0.3156
17165TIP3   OH272909   1.669   5.147   1.976  0.0903  0.0803  0.0264
17165TIP3    H172910   1.738   5.205   2.007  0.9415 -0.0955 -1.5221
17165TIP3    H272911   1.665   5.078   2.043  2.8946 -1.0694 -0.9178
17166TIP3   OH272912   2.690   5.539   4.319 -0.0703  1.0786 -0.3934
17166TIP3    H172913   2.667   5.525   4.411 -1.6023  1.1356 -0.7499
17166TIP3    H272914   2.779   5.507   4.311 -0.2883  0.1345  0.8911
17167TIP3   OH272915   3.013   0.138  15.321  0.1421 -0.1734 -0.2391
17167TIP3    H172916   3.092   0.152  15.373  0.2399 -1.8946  0.0814
17167TIP3    H272917   2.942   0.134  15.385 -0.0237 -0.0699 -0.4147
17168TIP3   OH272918   2.197   0.283   4.175  0.1895  0.2399 -0.1589
17168TIP3    H172919   2.168   0.335   4.250  1.1408  1.2117 -0.4535
17168TIP3    H272920   2.228   0.348   4.111  0.9472 -0.6600 -0.7212
17169TIP3   OH272921   6.298   1.033  11.286 -1.1986  0.0426 -0.4899
17169TIP3    H172922   6.219   1.029  11.340 -0.3201 -1.3258  0.7398
17169TIP3    H272923   6.282   0.971  11.215 -0.4368 -1.7979  0.8975
17170TIP3   OH272924   5.232   0.194   0.649  0.9470  0.4117 -0.5343
17170TIP3    H172925   5.146   0.153   0.649  1.9787 -1.8920 -0.0289
17170TIP3    H272926   5.284   0.139   0.589  2.0559  1.7693 -0.8408
17171TIP3   OH272927   1.123   5.069   2.846  0.0261  0.3750  0.0227
17171TIP3    H172928   1.141   4.982   2.882  0.0687  0.8236  1.1331
17171TIP3    H272929   1.179   5.076   2.769  1.3809  0.1047  0.9726
17172TIP3   OH272930   0.578   4.819   2.725  0.1586  0.3539  0.1326
17172TIP3    H172931   0.565   4.905   2.685 -0.4456  0.7693  1.1960
17172TIP3    H272932   0.490   4.788   2.746  0.3642 -0.5848 -0.3465
17173TIP3   OH272933   1.695   3.673  15.475  0.2515 -0.6138  0.2303
17173TIP3    H172934   1.789   3.670  15.491  0.8869  2.6477 -2.2218
17173TIP3    H272935   1.681   3.609  15.405  0.3590 -2.1670  1.5972
17174TIP3   OH272936   3.814   3.067  14.890 -0.4296  0.5613  0.2895
17174TIP3    H172937   3.827   3.054  14.796 -0.6250  3.2359 -0.1568
17174TIP3    H272938   3.885   3.018  14.931  2.0119  2.5551 -1.4507
17175TIP3   OH272939   3.850   1.773  15.501  0.0791  0.6824 -1.0554
17175TIP3    H172940   3.932   1.786  15.548  0.0470  1.1735 -1.1282
17175TIP3    H272941   3.818   1.688  15.530  0.5561  0.5435 -0.9396
17176TIP3   OH272942   2.663   1.542  13.582 -0.1548 -0.5709 -0.4905
17176TIP3    H172943   2.595   1.609  13.576  0.6273  0.1476 -1.4105
17176TIP3    H272944   2.642   1.495  13.663  0.6585  2.2947  1.4703
17177TIP3   OH272945   3.417   2.909  12.835  0.4495 -0.6014  0.3531
17177TIP3    H172946   3.454   2.886  12.921  1.1310  1.1468  0.5506
17177TIP3    H272947   3.323   2.895  12.845  0.6095 -1.1698  1.1330
17178TIP3   OH272948   2.121   6.618  11.539  0.1380  0.3342 -0.2621
17178TIP3    H172949   2.046   6.562  11.558 -0.0804  0.9974  0.9124
17178TIP3    H272950   2.187   6.559  11.505 -0.7654 -0.3301 -0.8757
17179TIP3   OH272951   1.124   2.223  11.165  0.9250 -1.0453  0.1539
17179TIP3    H172952   1.074   2.174  11.099 -1.5813 -1.6590  2.4484
17179TIP3    H272953   1.176   2.156  11.210  0.1053 -1.1190  1.0014
17180TIP3   OH272954   4.914   3.972  13.791  0.1064  0.2075 -0.0043
17180TIP3    H172955   4.858   3.943  13.864  0.4361  0.3781  0.3204
17180TIP3    H272956   5.000   3.938  13.813 -0.1608 -1.3192 -1.2411
17181TIP3   OH272957   5.996   5.391   3.269 -0.1105  0.1578 -0.0202
17181TIP3    H172958   5.972   5.356   3.183  0.6326  0.8199 -0.5041
17181TIP3    H272959   5.941   5.469   3.279 -0.7395 -0.3314  0.4436
17182TIP3   OH272960   6.695   0.616  13.234  0.1388 -0.1168  0.1768
17182TIP3    H172961   6.782   0.626  13.273  1.1674  0.2158 -2.1234
17182TIP3    H272962   6.681   0.521  13.232 -0.2980 -0.1248  2.0513
17183TIP3   OH272963   5.684   1.023  13.914  0.3987  0.8002  0.1513
17183TIP3    H172964   5.777   1.040  13.899 -0.0861  1.1717 -2.7669
17183TIP3    H272965   5.678   0.928  13.920  1.0409  0.8048  0.9724
17184TIP3   OH272966   3.816   0.443   1.834 -0.1267  0.1063  0.2894
17184TIP3    H172967   3.811   0.457   1.739  0.4517  0.0591  0.2454
17184TIP3    H272968   3.905   0.471   1.857  0.6029 -2.1995  0.4206
17185TIP3   OH272969   2.443   1.046  11.475 -0.5012  0.1171  0.4232
17185TIP3    H172970   2.383   0.981  11.439 -1.9910  0.6129  1.9890
17185TIP3    H272971   2.478   1.005  11.554 -2.1433  1.5248  1.9311
17186TIP3   OH272972   4.811   0.520  15.898 -0.2941  0.5086 -0.1700
17186TIP3    H172973   4.840   0.439  15.856 -0.0391  2.3164 -3.6467
17186TIP3    H272974   4.892   0.564  15.925 -0.4557 -0.6654  2.4193
17187TIP3   OH272975   2.926   5.225   4.728 -0.4509  0.3684  0.0549
17187TIP3    H172976   2.871   5.304   4.731 -1.8432 -0.6156  1.2673
17187TIP3    H272977   2.973   5.232   4.645 -0.3877  2.5815  0.2377
17188TIP3   OH272978   4.047   5.250   1.324 -0.4861  0.6379 -0.4229
17188TIP3    H172979   4.090   5.165   1.315 -0.5469  0.4157  1.2279
17188TIP3    H272980   4.010   5.249   1.413 -1.9583  1.7084 -0.9959
17189TIP3   OH272981   3.573   1.723  16.290 -0.1425  0.4618  0.5791
17189TIP3    H172982   3.567   1.759  16.202  0.1378  3.4162  1.7210
17189TIP3    H272983   3.498   1.664  16.297  0.0581 -0.1310 -1.7407
17190TIP3   OH272984   0.934   5.423  15.236  0.0210 -0.1208 -0.8582
17190TIP3    H172985   0.854   5.432  15.183  0.2771  1.6354 -0.9680
17190TIP3    H272986   0.903   5.426  15.326 -0.1354 -0.3879 -0.9029
17191TIP3   OH272987   4.599   2.338  16.392  0.2153 -0.0465 -0.0707
17191TIP3    H172988   4.678   2.385  16.419  0.7861 -0.7766 -0.4716
17191TIP3    H272989   4.630   2.271  16.331 -1.0193  1.3841 -2.3482
17192TIP3   OH272990   3.182   6.431  11.205 -0.2217 -0.4972  0.5401
17192TIP3    H172991   3.157   6.467  11.119  1.0272 -1.5838 -0.2995
17192TIP3    H272992   3.178   6.337  11.193 -2.6110 -0.7054  2.4751
17193TIP3   OH272993   0.676   6.543   5.093 -0.1822  0.2943  0.0895
17193TIP3    H172994   0.735   6.581   5.158 -0.0659  2.5879 -1.2959
17193TIP3    H272995   0.619   6.616   5.067 -0.4798 -0.6663 -2.0709
17194TIP3   OH272996   3.307   0.969   3.640  0.3624 -0.2960 -0.1096
17194TIP3    H172997   3.220   0.993   3.671  0.2132  0.7338 -1.2751
17194TIP3    H272998   3.365   0.984   3.715  0.0809  2.5061 -0.4008
17195TIP3   OH272999   4.262   6.330  13.464 -0.3559  0.4162 -0.9176
17195TIP3    H173000   4.354   6.309  13.481 -1.3468 -1.6451  2.5134
17195TIP3    H273001   4.237   6.271  13.393  0.7769  0.4690 -1.3703
17196TIP3   OH273002   1.710   2.875  13.409  0.3212 -0.0916 -0.1725
17196TIP3    H173003   1.707   2.835  13.322  0.9188  1.6542 -1.0298
17196TIP3    H273004   1.627   2.851  13.450 -0.0114 -0.8408 -1.2516
17197TIP3   OH273005   5.303   0.021  13.684  0.0202  0.1156  0.9751
17197TIP3    H173006   5.283   0.082  13.754  1.5372 -0.0666  1.5922
17197TIP3    H273007   5.230   0.029  13.623 -1.9218 -0.6014  3.1531
17198TIP3   OH273008   5.807   5.550  11.358 -0.4128 -0.2267  0.2198
17198TIP3    H173009   5.898   5.521  11.347 -0.1014  0.6204  0.4975
17198TIP3    H273010   5.797   5.562  11.452 -0.4391  0.8232  0.0946
17199TIP3   OH273011   6.018   5.945   5.507  0.4794 -0.1701 -0.5146
17199TIP3    H173012   6.032   5.853   5.531 -1.1137 -0.3163 -0.0368
17199TIP3    H273013   6.053   5.995   5.581 -1.0476 -0.5029  0.4691
17200TIP3   OH273014   1.388   1.124  11.744 -0.2802 -0.0074 -0.1018
17200TIP3    H173015   1.441   1.101  11.820 -1.1569  1.7329  1.0777
17200TIP3    H273016   1.445   1.179  11.691 -0.3395  0.4771  0.3327
17201TIP3   OH273017   0.454   5.532  14.912  0.8436  0.4398 -0.6679
17201TIP3    H173018   0.538   5.486  14.918  0.9383  0.8102  0.9446
17201TIP3    H273019   0.400   5.493  14.981 -0.2384  0.3567 -1.5523
17202TIP3   OH273020   2.810   3.344  12.954 -0.2676  0.5178 -0.0569
17202TIP3    H173021   2.879   3.299  13.002  0.8908  1.9503 -0.3463
17202TIP3    H273022   2.764   3.274  12.907  0.5777 -0.5213  0.6427
17203TIP3   OH273023   3.140   0.711   3.567 -0.5873  0.0370  0.0593
17203TIP3    H173024   3.147   0.761   3.648  0.1254 -0.1517  0.1190
17203TIP3    H273025   3.145   0.777   3.498 -2.7508  0.3569  0.1885
17204TIP3   OH273026   2.422   4.828   1.055 -0.3595 -0.5126  0.1765
17204TIP3    H173027   2.403   4.763   1.122 -1.8710 -1.1248 -0.8140
17204TIP3    H273028   2.373   4.798   0.978 -0.5562  1.4403 -0.4888
17205TIP3   OH273029   0.875   2.233   4.671  0.6143 -0.3035 -0.4350
17205TIP3    H173030   0.946   2.219   4.609 -0.7171 -0.9661 -1.8101
17205TIP3    H273031   0.888   2.167   4.739  0.6164 -1.2028 -1.3094
17206TIP3   OH273032   4.036   4.721  12.437  0.0535  0.4924  0.3630
17206TIP3    H173033   3.992   4.636  12.440 -2.2747  1.7033  1.6877
17206TIP3    H273034   4.126   4.703  12.465 -0.6114 -1.4125  1.3267
17207TIP3   OH273035   1.821   2.852  12.713  0.2304 -0.2107 -0.0817
17207TIP3    H173036   1.904   2.853  12.664  0.2057  1.1994 -0.1307
17207TIP3    H273037   1.846   2.826  12.801  0.4729 -1.4490 -0.5075
17208TIP3   OH273038   6.283   0.311  15.844  0.2278 -0.4554  0.7613
17208TIP3    H173039   6.216   0.316  15.913  0.6862 -0.3274  1.2005
17208TIP3    H273040   6.318   0.400  15.838  1.4611 -0.8751  1.6406
17209TIP3   OH273041   3.501   1.280   4.556 -0.1990 -0.3561  0.0190
17209TIP3    H173042   3.409   1.282   4.580 -0.1216 -0.5428  0.3397
17209TIP3    H273043   3.543   1.227   4.624 -0.3985 -3.2364 -2.0255
17210TIP3   OH273044   6.274   0.803   0.920  0.4719  0.4752 -0.0687
17210TIP3    H173045   6.279   0.794   1.015  0.2219  0.3678 -0.0665
17210TIP3    H273046   6.238   0.891   0.906 -0.6119  0.0455 -0.0485
17211TIP3   OH273047   0.728   4.816  14.859  0.4674 -0.2976 -0.0682
17211TIP3    H173048   0.755   4.743  14.913 -2.1197 -0.2374  1.3687
17211TIP3    H273049   0.784   4.889  14.886  0.4069 -0.7397  1.2413
17212TIP3   OH273050   6.318   1.482   1.095  0.0361  0.2950  0.0155
17212TIP3    H173051   6.326   1.571   1.130 -0.4080  0.4950 -0.3847
17212TIP3    H273052   6.381   1.478   1.024 -0.3687  0.4888 -0.3590
17213TIP3   OH273053   3.999   4.442  14.307  0.0370 -0.5001  0.0461
17213TIP3    H173054   3.924   4.384  14.295 -0.1240 -0.5408  1.1920
17213TIP3    H273055   4.068   4.403  14.252 -0.2024 -1.5349  0.4573
17214TIP3   OH273056   6.483   2.115  15.393 -0.3028  0.2960 -0.0169
17214TIP3    H173057   6.387   2.111  15.397 -0.3065 -0.7228 -0.9510
17214TIP3    H273058   6.511   2.112  15.484 -1.1478  0.2334  0.2447
17215TIP3   OH273059   5.671   2.022  15.877  0.4886 -0.3709  0.4925
17215TIP3    H173060   5.731   1.959  15.838 -0.5650  0.0270 -1.8700
17215TIP3    H273061   5.584   1.990  15.853 -0.0589  2.3025 -1.3382
17216TIP3   OH273062   1.702   1.576  15.953  0.2244  0.1545 -0.2490
17216TIP3    H173063   1.659   1.638  15.894 -0.0277 -0.6678 -0.9438
17216TIP3    H273064   1.641   1.564  16.025  0.7479  1.5437  0.4260
17217TIP3   OH273065   4.663   5.137   2.566  0.1956  0.1371  0.1588
17217TIP3    H173066   4.686   5.215   2.514  0.9076 -0.1536  0.0259
17217TIP3    H273067   4.577   5.111   2.533  0.0553  0.7300  0.0430
17218TIP3   OH273068   5.243   5.880   1.988 -0.0006  0.6772  0.3228
17218TIP3    H173069   5.286   5.794   1.978  2.3108  1.8487 -0.1967
17218TIP3    H273070   5.153   5.865   1.960  0.4117 -1.5585  0.0825
17219TIP3   OH273071   0.561   5.078  12.225 -0.2199  0.1035 -0.0747
17219TIP3    H173072   0.551   5.141  12.296 -1.5272  0.4893 -0.5884
17219TIP3    H273073   0.588   4.997  12.269 -1.5640  0.1888  0.9427
17220TIP3   OH273074   4.309   1.685  12.090 -0.0004  0.5387 -1.1473
17220TIP3    H173075   4.352   1.760  12.049 -0.5585  0.7588 -1.3349
17220TIP3    H273076   4.219   1.714  12.103  0.5747  1.1859  1.9570
17221TIP3   OH273077   5.526   2.218   4.129  0.0651  0.4973 -0.9940
17221TIP3    H173078   5.564   2.186   4.210 -0.6404  1.5696 -0.2248
17221TIP3    H273079   5.446   2.168   4.118  0.2371  0.2477 -1.1087
17222TIP3   OH273080   5.783   0.295   4.318 -0.8059 -0.4040 -0.5716
17222TIP3    H173081   5.726   0.245   4.258 -0.6416 -0.6194 -0.5483
17222TIP3    H273082   5.835   0.351   4.261 -1.8762  0.6603 -0.5276
17223TIP3   OH273083   3.736   2.975  16.977  0.4427  0.3715 -0.8399
17223TIP3    H173084   3.700   3.000  17.063  3.5178 -1.6864  1.1307
17223TIP3    H273085   3.824   3.012  16.976  0.9359 -0.8097 -2.5366
17224TIP3   OH273086   6.726   4.274   1.992 -0.2372  0.2745  0.0630
17224TIP3    H173087   6.659   4.265   1.924  0.3279 -2.1076 -0.2274
17224TIP3    H273088   6.787   4.339   1.957 -2.4060  2.5676  0.3866
17225TIP3   OH273089   6.246   0.591   1.887  0.4491  0.6184 -0.2006
17225TIP3    H173090   6.247   0.562   1.978 -0.6066  1.2423  0.0118
17225TIP3    H273091   6.181   0.661   1.884 -1.9880 -1.6168 -2.1153
17226TIP3   OH273092   2.294   0.522   2.730  0.2819 -0.5308  0.0757
17226TIP3    H173093   2.292   0.544   2.824  1.8544  0.7053 -0.1691
17226TIP3    H273094   2.385   0.535   2.704 -0.4637  0.6761 -1.9996
17227TIP3   OH273095   5.033   3.423   0.230  0.0133 -0.4023  0.0217
17227TIP3    H173096   4.990   3.339   0.244  2.9280 -1.8743  0.3409
17227TIP3    H273097   5.074   3.444   0.314  0.7205  0.5374 -0.5471
17228TIP3   OH273098   0.220   0.834  14.107 -0.1778  0.1319  0.1242
17228TIP3    H173099   0.235   0.852  14.200  1.2913 -0.7172  0.0747
17228TIP3    H273100   0.238   0.918  14.063 -2.4815  0.9748  0.7376
17229TIP3   OH273101   6.416   6.402  16.170  0.7735  0.3334  0.5966
17229TIP3    H173102   6.322   6.393  16.187  0.6988 -1.1996 -0.5897
17229TIP3    H273103   6.427   6.493  16.141 -0.3677  0.4544  0.5277
17230TIP3   OH273104   5.235   3.037  11.210  0.1083 -0.3489  0.1924
17230TIP3    H173105   5.251   3.085  11.129 -0.7570  0.1588  0.3087
17230TIP3    H273106   5.139   3.030  11.214  0.1823 -0.9867  0.8088
17231TIP3   OH273107   4.665   1.063  16.861  0.2404  0.5010 -0.1376
17231TIP3    H173108   4.757   1.087  16.877 -0.4488  2.5411  0.8626
17231TIP3    H273109   4.670   0.993  16.796  2.6761 -1.8133  2.4381
17232TIP3   OH273110   3.034   4.322  15.476 -0.1610  0.3890 -0.3079
17232TIP3    H173111   3.045   4.265  15.400 -0.5953 -0.0911 -0.0114
17232TIP3    H273112   2.951   4.295  15.515 -0.0632  0.8032  0.1949
17233TIP3   OH273113   5.631   0.081  14.297  0.3182  0.6736  0.3649
17233TIP3    H173114   5.635   0.160  14.242 -0.3738 -0.1848 -0.9339
17233TIP3    H273115   5.722   0.049  14.299  0.3087  0.5872 -0.4642
17234TIP3   OH273116   3.540   6.183   3.114 -0.1802  0.3108 -0.1253
17234TIP3    H173117   3.541   6.125   3.037 -0.0858 -0.8604  0.7461
17234TIP3    H273118   3.599   6.141   3.177 -1.8372  0.1608  1.3682
17235TIP3   OH273119   2.464   4.335   7.043 -0.8446  0.1137  0.0743
17235TIP3    H173120   2.377   4.319   7.008 -0.9125 -4.2516  1.9659
17235TIP3    H273121   2.522   4.280   6.991  0.1445 -0.3430  1.6344
17236TIP3   OH273122   4.792   5.928   1.276 -0.7269  0.1751 -0.4960
17236TIP3    H173123   4.819   5.971   1.357  0.9612 -1.6523 -0.0537
17236TIP3    H273124   4.756   5.844   1.304  0.6996 -0.8605 -1.6717
17237TIP3   OH273125   3.717   1.389   1.888  0.6889 -0.1998  0.4427
17237TIP3    H173126   3.629   1.408   1.920  0.3887  1.0544 -1.0950
17237TIP3    H273127   3.762   1.473   1.891  1.5503 -0.6591  0.3226
17238TIP3   OH273128   4.538   6.542   0.111 -0.0371  0.1657 -0.5259
17238TIP3    H173129   4.453   6.584   0.095  0.0149  0.6070  0.3059
17238TIP3    H273130   4.518   6.450   0.123 -0.2639  0.0862 -1.4433
17239TIP3   OH273131   3.889   4.484   3.109 -0.2126 -0.3877 -0.4520
17239TIP3    H173132   3.878   4.422   3.037 -1.4332 -1.7778  0.8906
17239TIP3    H273133   3.956   4.444   3.165 -1.7033 -1.0104  0.9264
17240TIP3   OH273134   3.869   3.109  14.611  0.0342  0.3733  0.2297
17240TIP3    H173135   3.798   3.150  14.562 -0.5188 -1.1695 -0.2686
17240TIP3    H273136   3.858   3.015  14.597  1.5860  0.0616  0.9569
17241TIP3   OH273137   2.840   4.096  12.434  0.0274 -0.0683 -0.4496
17241TIP3    H173138   2.766   4.157  12.439  0.4352  0.3942 -0.0151
17241TIP3    H273139   2.799   4.011  12.421 -0.5840  0.1952 -0.2934
17242TIP3   OH273140   0.148   5.166   4.820 -0.0468  0.1426 -0.2269
17242TIP3    H173141   0.088   5.189   4.749 -2.3163 -0.2358  1.4836
17242TIP3    H273142   0.100   5.190   4.900  2.5582  0.8557  1.1753
17243TIP3   OH273143   1.399   1.971  15.161  0.3913 -0.1680  0.5750
17243TIP3    H173144   1.331   1.945  15.098 -0.8512  1.3185  1.2460
17243TIP3    H273145   1.413   1.893  15.215 -1.5855 -0.1897  1.1085
17244TIP3   OH273146   1.522   6.661  12.673  0.1148  0.4023  0.1437
17244TIP3    H173147   1.458   6.668  12.745  0.3280  2.1543  0.1807
17244TIP3    H273148   1.474   6.693  12.596 -0.1778 -1.6634 -0.5560
17245TIP3   OH273149   1.800   2.220   0.217 -0.1854 -0.0093  0.3392
17245TIP3    H173150   1.705   2.228   0.213 -0.2079  0.3468  1.3126
17245TIP3    H273151   1.828   2.295   0.270  0.7238  0.4349 -0.7344
17246TIP3   OH273152   1.735   2.496  11.525 -0.3539 -0.3373  0.2787
17246TIP3    H173153   1.735   2.568  11.461  1.8887 -1.1363 -0.6681
17246TIP3    H273154   1.751   2.417  11.473 -0.0008 -1.1812  1.6373
17247TIP3   OH273155   1.830   3.517   1.545  0.1382 -0.2936  0.1876
17247TIP3    H173156   1.787   3.601   1.526 -0.4871 -0.3619  1.2637
17247TIP3    H273157   1.865   3.528   1.634 -0.8842 -1.5528  0.7488
17248TIP3   OH273158   5.210   2.375  13.031 -0.0034  0.1468 -0.2660
17248TIP3    H173159   5.214   2.426  13.113  0.9508 -0.9812  0.3968
17248TIP3    H273160   5.285   2.315  13.036 -1.4675 -1.7559 -0.7551
17249TIP3   OH273161   5.133   6.632  12.091 -0.2859 -0.6001  0.3410
17249TIP3    H173162   5.218   6.604  12.056 -1.3025 -2.1204 -0.9999
17249TIP3    H273163   5.097   6.554  12.132 -1.5474 -0.2972 -0.1597
17250TIP3   OH273164   2.637   3.746  15.392  0.2013 -0.4234 -0.5349
17250TIP3    H173165   2.568   3.788  15.341 -2.1254 -1.0597  2.0006
17250TIP3    H273166   2.603   3.659  15.412  1.1080 -0.2557  1.9275
17251TIP3   OH273167   1.487   3.457  10.986 -0.2955  0.0108  0.2432
17251TIP3    H173168   1.529   3.520  11.045 -1.8887  1.6127 -0.3212
17251TIP3    H273169   1.513   3.484  10.898 -0.0433 -0.8263  0.0522
17252TIP3   OH273170   2.851   4.455  11.088  0.5022  0.0962  0.7622
17252TIP3    H173171   2.922   4.405  11.130  1.3562  0.3334 -0.3825
17252TIP3    H273172   2.892   4.493  11.010 -1.6755 -2.4292 -1.7215
17253TIP3   OH273173   4.653   2.813  12.568 -0.3795 -0.1269  0.1999
17253TIP3    H173174   4.687   2.879  12.629 -1.0170 -1.2183  1.7645
17253TIP3    H273175   4.665   2.852  12.482  1.3024  1.1098  0.9585
17254TIP3   OH273176   1.057   2.115  12.449  0.3069  0.4664  0.4417
17254TIP3    H173177   0.992   2.116  12.379 -0.6361  0.3982  1.3185
17254TIP3    H273178   1.141   2.120  12.403 -0.2933  0.1287 -0.7085
17255TIP3   OH273179   2.765   4.463  15.870 -0.1636 -0.4278  0.3787
17255TIP3    H173180   2.841   4.449  15.814  0.2547  0.9220  0.5900
17255TIP3    H273181   2.700   4.504  15.812  0.7303  2.1862  1.1515
17256TIP3   OH273182   5.476   6.023   1.956 -0.2042  0.1614  0.1203
17256TIP3    H173183   5.396   5.971   1.959 -0.3775  0.4525  0.6806
17256TIP3    H273184   5.522   6.000   2.037  0.5667 -0.4620 -0.4907
17257TIP3   OH273185   2.689   0.414   0.558  0.0223 -0.1183 -0.1688
17257TIP3    H173186   2.629   0.455   0.496 -0.8289 -1.6725 -0.4112
17257TIP3    H273187   2.717   0.333   0.515  0.5598 -0.4880  0.8556
17258TIP3   OH273188   4.230   2.593  15.951 -0.4202 -0.4475  0.5819
17258TIP3    H173189   4.144   2.590  15.909 -0.4238 -1.2474  0.6565
17258TIP3    H273190   4.211   2.582  16.044 -0.2689 -0.2506  0.6363
17259TIP3   OH273191   4.753   2.325  12.152 -0.7970  0.0019 -0.4935
17259TIP3    H173192   4.832   2.281  12.181 -1.4658  0.2871  1.8109
17259TIP3    H273193   4.701   2.256  12.111 -1.6439 -1.3417  2.6983
17260TIP3   OH273194   1.591   1.886   0.002  0.6669 -0.3517 -0.4501
17260TIP3    H173195   1.678   1.926   0.015 -0.0315  0.8394  0.6733
17260TIP3    H273196   1.551   1.939  -0.067  0.1971  0.1417  0.2010
17261TIP3   OH273197   2.563   4.431   5.740 -0.5078  0.3560 -0.4402
17261TIP3    H173198   2.587   4.524   5.742 -0.0487  0.2380 -0.4334
17261TIP3    H273199   2.491   4.426   5.677 -0.1424  0.6268 -0.8822
17262TIP3   OH273200   2.333   0.327  17.130  0.4300  0.5302 -0.6942
17262TIP3    H173201   2.371   0.413  17.117  0.5356  0.6247  0.2063
17262TIP3    H273202   2.266   0.340  17.197  0.2482 -0.0278 -0.7647
17263TIP3   OH273203   6.590   1.193  13.967 -0.3384  0.8635  0.2822
17263TIP3    H173204   6.592   1.224  13.877 -0.3630 -1.6946 -0.6319
17263TIP3    H273205   6.500   1.164  13.982  0.1524 -0.6092  0.4499
17264TIP3   OH273206   1.577   1.526  11.112  0.6150  0.5602 -0.2298
17264TIP3    H173207   1.570   1.436  11.080  0.3742  0.9024 -1.1626
17264TIP3    H273208   1.556   1.580  11.035 -0.7311  1.3909  0.7059
17265TIP3   OH273209   0.849   4.503   1.382 -0.0269  0.2840  0.2766
17265TIP3    H173210   0.937   4.542   1.375  0.0663 -0.2999 -2.5773
17265TIP3    H273211   0.855   4.444   1.457  2.6899 -1.3353 -1.1437
17266TIP3   OH273212   0.160   2.969   2.177 -0.5635 -0.3352  1.0787
17266TIP3    H173213   0.121   3.057   2.176 -0.5583 -0.3286  1.3858
17266TIP3    H273214   0.086   2.910   2.164 -0.4294 -0.2371 -0.1140
17267TIP3   OH273215   1.500   4.861   4.992  0.1711  0.2946  0.4993
17267TIP3    H173216   1.480   4.954   4.993 -0.2176  0.2247 -0.4352
17267TIP3    H273217   1.414   4.818   4.990  0.3538 -0.0498 -0.4185
17268TIP3   OH273218   4.067   6.632   0.004  0.0701 -0.1629 -0.0850
17268TIP3    H173219   4.155   6.660  -0.018 -0.0224 -1.0735 -1.6828
17268TIP3    H273220   4.078   6.574   0.079  0.9147 -0.8126 -0.7018
17269TIP3   OH273221   3.891   4.096  17.177 -0.1787  0.6099  0.0662
17269TIP3    H173222   3.895   4.083  17.272 -0.4890  1.3105  0.1785
17269TIP3    H273223   3.978   4.130  17.154  0.3758 -0.8604 -0.1154
17270TIP3   OH273224   0.408   0.921  14.377 -1.0627  0.5005  0.0938
17270TIP3    H173225   0.449   0.939  14.461 -2.3871 -0.4844  0.9694
17270TIP3    H273226   0.441   0.835  14.351  0.6574  1.5352 -1.2236
17271TIP3   OH273227   3.815   1.903   5.780  0.3624  0.6104  0.1410
17271TIP3    H173228   3.866   1.834   5.736  0.7905  1.0160 -0.0016
17271TIP3    H273229   3.734   1.859   5.807  0.7209 -0.0040  0.2397
17272TIP3   OH273230   0.320   1.410   1.705 -0.7356 -0.1445  0.2363
17272TIP3    H173231   0.232   1.386   1.675 -0.3143 -2.0586  0.4255
17272TIP3    H273232   0.324   1.377   1.795  0.8653 -2.0010 -0.4635
17273TIP3   OH273233   5.885   0.228  13.612 -0.2216 -0.7153  0.3109
17273TIP3    H173234   5.889   0.178  13.530  0.9847 -1.6951  0.9537
17273TIP3    H273235   5.852   0.166  13.677 -0.4664 -0.1470  0.7354
17274TIP3   OH273236   1.814   1.427  16.849 -0.1763  0.3290 -0.4532
17274TIP3    H173237   1.814   1.521  16.832 -0.5286  0.4907  0.4385
17274TIP3    H273238   1.800   1.387  16.763 -0.9719  1.1096 -0.6967
17275TIP3   OH273239   6.576   0.497   2.587  0.0305 -0.2980  0.3272
17275TIP3    H173240   6.625   0.524   2.665 -1.1640  1.6512  0.4512
17275TIP3    H273241   6.544   0.410   2.608  0.2937 -0.0686  1.7621
17276TIP3   OH273242   5.728   4.472  15.215  0.4524  0.4486  0.4304
17276TIP3    H173243   5.761   4.478  15.125  1.9021  1.3753  1.0078
17276TIP3    H273244   5.806   4.479  15.270 -0.5133  0.7867  1.7889
17277TIP3   OH273245   1.528   1.825   3.565 -0.2015 -0.2904 -0.4959
17277TIP3    H173246   1.538   1.907   3.516  2.0866  0.0303  0.4419
17277TIP3    H273247   1.595   1.767   3.527  0.5640 -0.5439  1.2130
17278TIP3   OH273248   6.396   1.942   0.418  0.0318 -0.5700  0.0318
17278TIP3    H173249   6.491   1.942   0.409 -0.0177 -1.6407 -0.6177
17278TIP3    H273250   6.380   1.944   0.512  0.6588  2.2923  0.1242
17279TIP3   OH273251   0.462   2.670   6.558 -0.3381 -0.5853  0.1362
17279TIP3    H173252   0.373   2.677   6.524 -0.9332 -0.6226  1.6275
17279TIP3    H273253   0.509   2.619   6.493 -1.1269  0.3767 -1.2051
17280TIP3   OH273254   5.162   4.363  15.650  0.3407  0.0503  0.1367
17280TIP3    H173255   5.163   4.272  15.681  0.3286 -0.1971 -0.5733
17280TIP3    H273256   5.199   4.414  15.723 -1.4855 -0.2565  1.3132
17281TIP3   OH273257   3.364   3.968  14.018 -0.0359 -0.4616 -0.2713
17281TIP3    H173258   3.343   3.935  14.105  0.1267 -0.0391 -0.0662
17281TIP3    H273259   3.381   3.890  13.965 -0.1355 -0.7190  0.0748
17282TIP3   OH273260   2.929   5.571   0.719  0.0687 -0.2572  0.2505
17282TIP3    H173261   2.926   5.545   0.812  0.8081 -2.0280 -0.1847
17282TIP3    H273262   2.857   5.632   0.708  0.1128  0.1453  2.0527
17283TIP3   OH273263   3.410   1.783  14.763  0.2435 -0.1137  0.4866
17283TIP3    H173264   3.396   1.878  14.767  2.1202  0.1970  0.0892
17283TIP3    H273265   3.337   1.750  14.710 -0.2209  1.1495  0.3294
17284TIP3   OH273266   0.779   1.445  12.724  0.0871 -0.5930 -0.3965
17284TIP3    H173267   0.837   1.482  12.657 -0.1079 -0.1906 -0.3430
17284TIP3    H273268   0.716   1.392  12.675  1.5723 -2.4933 -0.3271
17285TIP3   OH273269   2.276   6.386   4.400  0.0778  0.2921 -0.4962
17285TIP3    H173270   2.230   6.378   4.317 -0.5233 -1.2378 -0.0446
17285TIP3    H273271   2.216   6.434   4.456 -1.1347 -1.9241  0.1697
17286TIP3   OH273272   5.041   5.370  15.985  0.2913  0.5335  0.2477
17286TIP3    H173273   5.055   5.463  15.971 -0.8113  0.4852 -1.4010
17286TIP3    H273274   4.995   5.365  16.069  1.5088  1.3649  0.9724
17287TIP3   OH273275   4.345   2.161   3.076 -0.1705 -0.2885  0.3468
17287TIP3    H173276   4.416   2.138   3.136  1.2043  0.7438 -0.8340
17287TIP3    H273277   4.353   2.256   3.065 -1.1178 -0.3002 -0.5739
17288TIP3   OH273278   1.533   6.339  16.002  0.7232 -0.1286  0.3190
17288TIP3    H173279   1.484   6.268  16.043  0.6692  1.5017  3.2757
17288TIP3    H273280   1.499   6.344  15.913 -2.0225 -1.2836  1.2453
17289TIP3   OH273281   5.461   6.000  15.419  0.2809 -0.4087  0.5197
17289TIP3    H173282   5.508   5.938  15.475  0.9345 -0.0508  0.3737
17289TIP3    H273283   5.520   6.075  15.412 -0.3562  0.0892  0.4118
17290TIP3   OH273284   3.050   3.806   3.836 -0.1237 -0.2693  0.5754
17290TIP3    H173285   3.044   3.710   3.839 -0.3449 -0.2922 -0.5055
17290TIP3    H273286   3.004   3.835   3.915 -2.3315 -0.9669 -0.4171
17291TIP3   OH273287   3.417   6.707   3.414 -0.4525  0.2995 -0.0353
17291TIP3    H173288   3.430   6.702   3.509 -0.2870 -2.2864 -0.1828
17291TIP3    H273289   3.326   6.683   3.400  0.0864 -1.4407 -0.6846
17292TIP3   OH273290   3.426   3.399   5.443 -0.5745 -0.2524  0.3298
17292TIP3    H173291   3.391   3.485   5.420  2.1797  0.7595 -0.2897
17292TIP3    H273292   3.415   3.392   5.537 -1.2227  0.5849  0.3157
17293TIP3   OH273293   4.145   5.424  16.655 -0.7759 -0.2897  0.3375
17293TIP3    H173294   4.227   5.470  16.673 -0.6460 -0.0918 -0.7266
17293TIP3    H273295   4.078   5.474  16.702 -1.0119  2.5311 -2.7912
17294TIP3   OH273296   4.404   5.465  11.601 -0.3806 -0.4193  0.3004
17294TIP3    H173297   4.360   5.388  11.565  3.0664 -2.6026  0.5553
17294TIP3    H273298   4.479   5.479  11.544 -0.2495  1.9938  1.0119
17295TIP3   OH273299   6.444   2.658   4.435  1.1674  0.2000 -0.2419
17295TIP3    H173300   6.373   2.685   4.493 -0.2947  0.2244 -2.0297
17295TIP3    H273301   6.411   2.581   4.389  2.0739  0.5409 -1.5016
17296TIP3   OH273302   5.615   0.742  11.867 -0.4987  0.0407  0.1966
17296TIP3    H173303   5.708   0.749  11.891 -1.5692  1.1049  4.5494
17296TIP3    H273304   5.595   0.826  11.825  0.7527 -0.6896 -1.9359
17297TIP3   OH273305   6.304   0.463  13.528 -0.0662  0.4604 -0.4703
17297TIP3    H173306   6.234   0.417  13.482  0.1614 -1.1693  0.7384
17297TIP3    H273307   6.384   0.423  13.496  0.1521  0.2484  0.3181
17298TIP3   OH273308   0.691   0.739   3.838 -0.1037  0.2121  0.1172
17298TIP3    H173309   0.745   0.708   3.766 -0.1723  1.0716 -0.3100
17298TIP3    H273310   0.687   0.834   3.826  0.0100  0.3783  1.3434
17299TIP3   OH273311   2.268   6.704  12.004 -0.5757 -0.2514  0.3251
17299TIP3    H173312   2.244   6.638  11.938  1.5246 -2.0651  1.3124
17299TIP3    H273313   2.211   6.685  12.079  0.1155 -1.0643  0.6567
17300TIP3   OH273314   3.942   5.958  14.069  0.0483  0.0523 -0.3403
17300TIP3    H173315   3.964   5.992  14.155  1.1368 -1.2296 -0.0954
17300TIP3    H273316   3.989   6.014  14.008  0.9117 -0.3039  0.0007
17301TIP3   OH273317   5.969   1.756   0.789 -0.2295  0.3555  0.1006
17301TIP3    H173318   5.971   1.672   0.834 -1.8004  0.3029  0.0811
17301TIP3    H273319   5.924   1.815   0.849 -0.7466  0.7320 -0.6477
17302TIP3   OH273320   2.821   4.106  13.787  0.5892  0.4790  0.0534
17302TIP3    H173321   2.871   4.065  13.858 -0.2509 -0.8644 -0.1172
17302TIP3    H273322   2.789   4.033  13.734 -0.2710  1.3851 -0.7096
17303TIP3   OH273323   5.815   5.638   5.451  0.0107 -0.5542 -0.2886
17303TIP3    H173324   5.821   5.544   5.466 -0.1459 -0.5630 -0.2768
17303TIP3    H273325   5.830   5.678   5.536 -0.5998 -0.5930 -0.1602
17304TIP3   OH273326   6.418   5.169  12.020  0.1379  0.1334  0.1487
17304TIP3    H173327   6.351   5.104  11.996  0.1349  0.6578 -1.3324
17304TIP3    H273328   6.458   5.134  12.099 -0.3599 -1.3379 -0.2276
17305TIP3   OH273329   6.322   1.212   0.978 -0.3853  0.0119  0.1788
17305TIP3    H173330   6.281   1.299   0.976  1.1584  0.7841  1.0561
17305TIP3    H273331   6.326   1.190   1.071  1.9884  0.3704  0.1932
17306TIP3   OH273332   6.666   1.936  11.383  0.2823 -0.0320 -0.1206
17306TIP3    H173333   6.637   1.979  11.463 -1.1196 -0.8158 -0.1974
17306TIP3    H273334   6.586   1.926  11.331  1.2282  0.8110 -1.7862
17307TIP3   OH273335   1.514   3.296   2.100 -0.6030  0.0144  0.1272
17307TIP3    H173336   1.578   3.226   2.086  1.4348  1.7313  0.6460
17307TIP3    H273337   1.430   3.250   2.109  0.9225 -2.4652  2.2343
17308TIP3   OH273338   0.611   1.251  15.140 -0.1693  0.1133  0.2457
17308TIP3    H173339   0.600   1.342  15.168  2.8358 -0.3278  3.1421
17308TIP3    H273340   0.534   1.206  15.174 -1.8115  1.5670 -1.4290
17309TIP3   OH273341   1.079   2.983   1.761  0.3745  0.3287  0.1554
17309TIP3    H173342   1.010   3.039   1.796 -1.1700 -1.4740  0.0899
17309TIP3    H273343   1.095   2.918   1.829 -0.1980 -1.1159 -1.0562
17310TIP3   OH273344   6.492   4.117  16.330  0.0905 -0.4811  0.3228
17310TIP3    H173345   6.515   4.039  16.279 -1.0448  0.4378 -1.6305
17310TIP3    H273346   6.431   4.086  16.397  2.7260 -1.9656  2.1137
17311TIP3   OH273347   1.863   1.665  15.577 -0.3109  0.4907 -0.2191
17311TIP3    H173348   1.904   1.591  15.532  1.3825  1.7900 -0.8983
17311TIP3    H273349   1.785   1.684  15.525  0.7538  0.9421 -1.6990
17312TIP3   OH273350   5.776   6.618   1.586 -0.4023  0.2939 -0.3008
17312TIP3    H173351   5.823   6.692   1.624 -2.1319  0.8233  0.8611
17312TIP3    H273352   5.740   6.571   1.661 -0.3132 -1.0704 -1.0952
17313TIP3   OH273353   0.154   3.662   3.539 -0.0104 -0.1929  0.1541
17313TIP3    H173354   0.157   3.686   3.631  1.0004 -2.4991  0.7392
17313TIP3    H273355   0.068   3.623   3.527 -0.0176 -0.1871  0.1876
17314TIP3   OH273356   2.856   2.872   5.910 -0.7084  0.1405  0.5844
17314TIP3    H173357   2.917   2.876   5.836 -1.2995 -0.8201  0.0334
17314TIP3    H273358   2.899   2.817   5.975 -0.6324  0.1561  0.5478
17315TIP3   OH273359   4.187   6.759   5.040  0.3863 -0.4273  0.1488
17315TIP3    H173360   4.211   6.846   5.009  0.2670 -0.7039 -0.7466
17315TIP3    H273361   4.243   6.699   4.991 -1.0829 -0.9842 -0.9015
17316TIP3   OH273362   5.451   1.421   2.299 -0.2284  0.1735 -0.0661
17316TIP3    H173363   5.437   1.406   2.205 -0.3695  1.2054 -0.2221
17316TIP3    H273364   5.377   1.377   2.341  0.6643 -1.6053 -0.3265
17317TIP3   OH273365   1.274   3.281   3.217 -0.8568  0.5192 -0.0346
17317TIP3    H173366   1.308   3.362   3.179  1.4898 -0.5196 -0.2612
17317TIP3    H273367   1.187   3.270   3.178 -0.2008  1.6496 -1.8905
17318TIP3   OH273368   6.296   4.004  16.471  0.0815 -0.7809 -0.3453
17318TIP3    H173369   6.255   3.942  16.410 -2.5066  0.1502  0.3970
17318TIP3    H273370   6.225   4.032  16.528  1.3061  2.5250 -0.3685
17319TIP3   OH273371   4.704   4.857  15.103  0.3692 -0.2425 -0.8530
17319TIP3    H173372   4.725   4.811  15.022  1.3140  0.0041 -0.7539
17319TIP3    H273373   4.707   4.950  15.080 -0.2348 -0.1936 -0.7422
17320TIP3   OH273374   0.835   3.972  14.096 -0.1406 -0.3076 -0.1553
17320TIP3    H173375   0.837   3.983  14.191  0.0629 -1.1759 -0.0500
17320TIP3    H273376   0.884   4.046  14.062  2.3547 -1.5610  0.5705
17321TIP3   OH273377   3.026   5.620  14.533 -0.3743  0.2185  0.3173
17321TIP3    H173378   3.092   5.682  14.564 -0.0101  0.8806 -1.6471
17321TIP3    H273379   3.075   5.540  14.514 -0.1176  0.6654 -1.0077
17322TIP3   OH273380   3.115   0.795  14.803  0.4564 -0.1382 -0.8047
17322TIP3    H173381   3.090   0.879  14.840 -0.3361 -1.0292  0.7541
17322TIP3    H273382   3.033   0.745  14.800  1.0315 -1.0680 -1.1279
17323TIP3   OH273383   4.719   2.802  13.476  0.1382 -0.0970 -0.1262
17323TIP3    H173384   4.683   2.768  13.558  1.0630 -0.1789  0.2436
17323TIP3    H273385   4.644   2.801  13.416 -0.7062  0.5613  0.8846
17324TIP3   OH273386   2.832   6.364   4.371 -0.0522  0.3172 -0.1599
17324TIP3    H173387   2.923   6.342   4.389 -0.0381 -0.5439 -1.2273
17324TIP3    H273388   2.781   6.290   4.405 -0.1735 -0.3078 -1.6583
17325TIP3   OH273389   0.447   2.637  11.284  0.4494  0.4194  1.1084
17325TIP3    H173390   0.503   2.710  11.258  0.6433 -1.0823 -3.0723
17325TIP3    H273391   0.358   2.673  11.281  0.7468  1.3409  2.4722
17326TIP3   OH273392   1.543   1.540  13.107 -0.2486 -0.5570  0.0498
17326TIP3    H173393   1.508   1.532  13.196  0.0202 -0.7170  0.1413
17326TIP3    H273394   1.621   1.485  13.107  0.7780  0.8713  0.2549
17327TIP3   OH273395   1.625   2.782   3.775  0.5674 -0.4258 -0.3081
17327TIP3    H173396   1.680   2.771   3.853 -1.0371 -1.7909  0.6413
17327TIP3    H273397   1.548   2.729   3.792 -0.9856  1.3133 -1.7122
17328TIP3   OH273398   0.508   0.755  10.995  0.0333  0.2844  0.7013
17328TIP3    H173399   0.568   0.829  10.986  0.2559 -0.1958 -2.1929
17328TIP3    H273400   0.436   0.776  10.935 -1.0184 -0.7702  1.5913
17329TIP3   OH273401   6.489   3.581   6.136  0.1262  0.0303  0.6185
17329TIP3    H173402   6.568   3.537   6.170 -0.1432 -1.3239 -0.4578
17329TIP3    H273403   6.492   3.565   6.042 -1.7912 -0.6124  0.6559
17330TIP3   OH273404   3.738   2.608  12.570  0.2039 -0.2037 -0.0096
17330TIP3    H173405   3.703   2.697  12.575 -0.3694 -0.4731  0.8001
17330TIP3    H273406   3.723   2.581  12.479  0.2953  0.4919 -0.2301
17331TIP3   OH273407   6.524   2.863   2.736  0.0402  0.5047 -0.0800
17331TIP3    H173408   6.477   2.786   2.703 -1.6644  1.4503  0.1276
17331TIP3    H273409   6.591   2.826   2.793  0.2902 -0.9178 -1.2492
17332TIP3   OH273410   3.589   5.072   2.612  0.3026 -0.2562  0.1190
17332TIP3    H173411   3.524   5.037   2.550  0.1866  0.3292 -0.0922
17332TIP3    H273412   3.540   5.130   2.669  1.1358  2.5452 -1.9184
17333TIP3   OH273413   2.010   6.381   2.132 -0.0074 -0.0392  0.6481
17333TIP3    H173414   2.061   6.335   2.065 -0.8227  1.4452 -1.0603
17333TIP3    H273415   1.962   6.448   2.083 -2.0005 -0.0606  2.4812
17334TIP3   OH273416   3.235   5.203  11.457 -0.8640  0.1060  0.3980
17334TIP3    H173417   3.253   5.293  11.483 -2.2987  1.2705 -2.4441
17334TIP3    H273418   3.308   5.179  11.400 -0.7574 -0.3420  0.7223
17335TIP3   OH273419   0.306   1.196  14.601  0.0649  0.2930 -0.1887
17335TIP3    H173420   0.322   1.161  14.513  1.9436  1.1612 -0.2247
17335TIP3    H273421   0.254   1.275  14.586  0.3207  0.4014 -0.5340
17336TIP3   OH273422   4.929   2.252  15.411 -0.7082  0.2583  0.4175
17336TIP3    H173423   4.845   2.273  15.370 -0.8127 -1.1064 -0.0925
17336TIP3    H273424   4.949   2.163  15.381  2.1021  1.4345 -1.4023
17337TIP3   OH273425   4.190   0.200   0.553 -0.6215  0.1727 -0.0727
17337TIP3    H173426   4.183   0.277   0.496  1.8513  1.1771  0.9259
17337TIP3    H273427   4.134   0.221   0.627  0.5416  1.3201  0.5022
17338TIP3   OH273428   5.266   4.034  12.294 -0.3251  0.2655 -0.8170
17338TIP3    H173429   5.171   4.024  12.291 -0.1106 -2.2452 -0.5974
17338TIP3    H273430   5.289   4.021  12.386  0.2855  0.2095 -0.9729
17339TIP3   OH273431   4.493   2.288  10.781  0.1957  0.3204  0.2214
17339TIP3    H173432   4.577   2.272  10.824  0.3877  0.9156  0.0668
17339TIP3    H273433   4.436   2.323  10.849  1.0055  2.9023 -0.3733
17340TIP3   OH273434   6.167   4.915   5.152  0.4122  0.0053  0.5097
17340TIP3    H173435   6.247   4.878   5.116  1.5230  2.3174  0.4688
17340TIP3    H273436   6.133   4.847   5.210  2.8439 -0.7320  1.1404
17341TIP3   OH273437   4.142   4.402   1.689  0.2057 -0.3107 -0.2273
17341TIP3    H173438   4.207   4.409   1.759  0.3993  1.1617 -0.5450
17341TIP3    H273439   4.189   4.360   1.617  1.0017  1.3594 -0.6874
17342TIP3   OH273440   3.056   1.017  14.933  0.4905  0.0355  0.2023
17342TIP3    H173441   3.092   1.067  15.006 -0.2937  2.8813 -1.2576
17342TIP3    H273442   2.981   1.069  14.903 -0.2247 -1.9275 -1.5398
17343TIP3   OH273443   5.708   1.380  16.424  0.4589 -0.5996 -0.0782
17343TIP3    H173444   5.706   1.356  16.516 -1.9578  1.6067  0.5033
17343TIP3    H273445   5.761   1.460  16.421  2.8366 -2.1443 -1.0438
17344TIP3   OH273446   0.533   2.614  12.916 -0.0381  0.0553 -0.0013
17344TIP3    H173447   0.624   2.621  12.888 -0.3765  0.1927 -1.0659
17344TIP3    H273448   0.535   2.639  13.009  1.1281 -0.7149  0.1954
17345TIP3   OH273449   1.270   4.386   5.008 -0.4060  0.3916 -0.2235
17345TIP3    H173450   1.324   4.428   5.074 -0.5423 -2.1404  1.5516
17345TIP3    H273451   1.269   4.448   4.935  0.9372  2.5764  1.5675
17346TIP3   OH273452   1.290   6.257  10.963 -0.5259 -0.4542 -0.3352
17346TIP3    H173453   1.371   6.232  10.919  0.2152  0.5474  0.4516
17346TIP3    H273454   1.249   6.174  10.987  1.2990 -0.9656  1.1492
17347TIP3   OH273455   2.979   4.036   4.068  0.1578  0.2801 -0.1436
17347TIP3    H173456   3.013   4.036   4.157 -2.3980  1.6117  0.8990
17347TIP3    H273457   3.013   4.117   4.030  1.7434 -0.5850 -0.6103
17348TIP3   OH273458   0.555   4.757  17.036  0.1764  0.1312 -0.0950
17348TIP3    H173459   0.577   4.751  16.943  1.8079 -2.3791  0.3809
17348TIP3    H273460   0.485   4.693  17.048  0.7885 -0.4325  0.5867
17349TIP3   OH273461   3.633   5.529   0.236 -0.2077  0.1195  0.4056
17349TIP3    H173462   3.551   5.485   0.212  0.7398 -0.9995 -0.8587
17349TIP3    H273463   3.653   5.497   0.324 -0.8806  0.0301  0.5271
17350TIP3   OH273464   3.950   4.347  15.710 -0.0412  0.4906 -0.2145
17350TIP3    H173465   3.878   4.337  15.772 -0.7978 -0.9883 -1.3172
17350TIP3    H273466   3.913   4.323  15.625  1.0273  2.3045 -1.2487
17351TIP3   OH273467   5.483   1.692   2.991  0.5158 -0.2082  0.0653
17351TIP3    H173468   5.515   1.782   3.001 -0.8225  0.3055 -0.2157
17351TIP3    H273469   5.429   1.677   3.068 -1.3061  0.1207 -1.1099
17352TIP3   OH273470   1.588   6.479   2.804  0.6217  0.4026 -0.7484
17352TIP3    H173471   1.540   6.448   2.881  1.4581  0.0062 -0.3763
17352TIP3    H273472   1.627   6.562   2.832  0.5663  0.4758 -0.8867
17353TIP3   OH273473   3.155   5.836   2.043 -0.0654  0.1245  0.4206
17353TIP3    H173474   3.238   5.883   2.039  0.5138 -0.8787  0.6429
17353TIP3    H273475   3.153   5.785   1.962 -1.6623  2.1249 -0.8646
17354TIP3   OH273476   6.629   1.265   1.314 -0.2048 -0.3561 -0.1607
17354TIP3    H173477   6.656   1.191   1.368  2.6606  0.4931 -0.3279
17354TIP3    H273478   6.683   1.338   1.344 -2.3049  1.4559 -0.6408
17355TIP3   OH273479   3.685   3.578   3.321 -0.4786 -0.3360 -0.1843
17355TIP3    H173480   3.726   3.633   3.255 -1.8858  1.0097  0.0194
17355TIP3    H273481   3.751   3.512   3.343  0.6843  0.3619 -1.5265
17356TIP3   OH273482   4.375   3.743   5.856 -0.0217 -0.2624 -0.2229
17356TIP3    H173483   4.287   3.711   5.837  0.6910 -1.7634 -1.1202
17356TIP3    H273484   4.403   3.785   5.775  0.6720 -1.1876 -0.4758
17357TIP3   OH273485   4.005   3.611  16.662 -0.3126  0.1979 -0.2796
17357TIP3    H173486   3.927   3.667  16.661 -0.6337 -0.2434 -4.0166
17357TIP3    H273487   4.072   3.663  16.619  0.4905 -0.7635 -0.1977
17358TIP3   OH273488   0.556   1.974   4.245 -0.0396  0.1074  0.4801
17358TIP3    H173489   0.541   1.985   4.151  0.5657  0.5374  0.4296
17358TIP3    H273490   0.469   1.982   4.284 -0.1282  1.1987  0.0735
17359TIP3   OH273491   2.529   0.167  17.060 -0.0017  0.0335 -1.1314
17359TIP3    H173492   2.463   0.235  17.070  0.5841  0.9722 -3.2756
17359TIP3    H273493   2.484   0.097  17.012  0.0225 -0.1214 -0.9255
17360TIP3   OH273494   2.299   3.012   5.883 -0.4826 -0.1136  0.1035
17360TIP3    H173495   2.385   2.970   5.876 -0.5383 -0.5450  1.7856
17360TIP3    H273496   2.237   2.941   5.866 -0.5397 -0.3320  1.1805
17361TIP3   OH273497   1.924   5.433  11.389 -0.1915  0.0083  0.0399
17361TIP3    H173498   1.960   5.461  11.305 -1.9330  0.3002 -0.6250
17361TIP3    H273499   1.980   5.475  11.454  0.2193  1.0429 -0.9643
17362TIP3   OH273500   1.897   4.239   6.084 -0.8246 -0.6117 -0.1642
17362TIP3    H173501   1.954   4.205   6.153  1.0039  0.6902 -0.9697
17362TIP3    H273502   1.851   4.312   6.126  1.0190  0.8150 -0.5437
17363TIP3   OH273503   6.737   0.602  12.963  0.1882 -0.4790 -0.2260
17363TIP3    H173504   6.741   0.630  13.055 -0.0705 -0.3651 -0.2464
17363TIP3    H273505   6.661   0.650  12.928  1.4931  1.0359 -1.0382
17364TIP3   OH273506   5.916   1.733   0.334 -0.0450  0.0922  0.0793
17364TIP3    H173507   5.842   1.788   0.360  0.4205  0.4113  0.7409
17364TIP3    H273508   5.984   1.795   0.310 -0.5344 -0.1936 -2.1207
17365TIP3   OH273509   4.257   4.808  11.187  0.2515  0.1716 -0.4696
17365TIP3    H173510   4.271   4.726  11.235 -1.1710  1.3443  2.0570
17365TIP3    H273511   4.337   4.819  11.136  0.1834 -3.1374 -1.4504
17366TIP3   OH273512   5.409   5.975   5.684 -0.3331 -0.4993  0.6359
17366TIP3    H173513   5.407   6.069   5.701 -0.1001 -0.2219 -0.8725
17366TIP3    H273514   5.495   5.947   5.714 -0.4634 -0.2710  1.2392
17367TIP3   OH273515   4.865   5.279   3.532  0.7227  0.0409 -0.5456
17367TIP3    H173516   4.920   5.254   3.458  0.7333  0.2032 -0.5919
17367TIP3    H273517   4.805   5.344   3.497  2.0253  1.5942  0.0511
17368TIP3   OH273518   2.894   4.834   4.107  0.6381  0.3831  0.4071
17368TIP3    H173519   2.806   4.830   4.147 -0.3738  1.5051 -1.6204
17368TIP3    H273520   2.941   4.898   4.160 -0.7404  1.9609 -0.2233
17369TIP3   OH273521   5.037   0.739   1.939  0.1979 -0.4627  0.1479
17369TIP3    H173522   4.977   0.786   1.881  1.1131  0.9978  0.3550
17369TIP3    H273523   4.980   0.689   1.997 -0.8013  0.3955 -0.0795
17370TIP3   OH273524   3.211   2.539  15.362  0.0024 -0.4350 -0.4898
17370TIP3    H173525   3.117   2.529  15.377  0.2451 -0.4474  1.1770
17370TIP3    H273526   3.222   2.531  15.267 -1.3568 -3.0417 -0.4737
17371TIP3   OH273527   2.124   4.890   5.081 -0.1283  0.2188 -0.4805
17371TIP3    H173528   2.218   4.901   5.064  0.3351  0.5642  2.0284
17371TIP3    H273529   2.121   4.843   5.164 -2.1886  0.7144 -0.2604
17372TIP3   OH273530   6.378   0.357   4.741 -0.6947  0.1175 -0.2803
17372TIP3    H173531   6.462   0.394   4.716 -1.0556  1.0076 -0.1996
17372TIP3    H273532   6.399   0.289   4.806 -0.2104  2.0141  1.5985
17373TIP3   OH273533   2.779   6.479  15.984  0.4125  0.1741 -0.1403
17373TIP3    H173534   2.734   6.425  15.918  0.0427  0.4220 -0.0938
17373TIP3    H273535   2.826   6.416  16.039  0.2216 -0.0782 -0.2646
17374TIP3   OH273536   2.002   2.547  11.448 -0.1985 -0.3637 -0.4370
17374TIP3    H173537   1.980   2.460  11.480 -0.8749 -0.7806 -1.9512
17374TIP3    H273538   2.096   2.544  11.431  0.0593 -0.3020  0.9793
17375TIP3   OH273539   5.544   2.572   2.390  0.1385  0.5371  0.1293
17375TIP3    H173540   5.617   2.622   2.355  0.0876 -0.7672 -1.9279
17375TIP3    H273541   5.518   2.619   2.469  1.3035  2.6670 -0.7175
17376TIP3   OH273542   4.833   3.626  12.869 -0.1762 -0.1240  0.6257
17376TIP3    H173543   4.760   3.565  12.859  0.9928 -1.6209  1.1494
17376TIP3    H273544   4.912   3.572  12.859  0.8742  1.5152 -0.1595
17377TIP3   OH273545   1.784   0.197  15.710  0.9487  0.0010 -0.2510
17377TIP3    H173546   1.821   0.142  15.641 -0.2797 -0.2006 -0.7703
17377TIP3    H273547   1.725   0.139  15.758 -0.2257  0.8062 -0.6981
17378TIP3   OH273548   1.294   4.125  16.492  0.2283 -0.2176 -0.1216
17378TIP3    H173549   1.219   4.116  16.552  0.6890 -2.4842  0.1670
17378TIP3    H273550   1.347   4.195  16.530  0.4145 -1.4819  2.0580
17379TIP3   OH273551   6.044   1.425  15.207  0.3182 -0.2197  0.4491
17379TIP3    H173552   6.119   1.366  15.217 -0.2286 -1.6345 -3.1928
17379TIP3    H273553   5.968   1.369  15.228  0.0220  0.1568  0.3749
17380TIP3   OH273554   0.080   6.590   1.125 -0.5639  0.6765  0.1595
17380TIP3    H173555   0.163   6.544   1.137 -0.5501  1.0952  1.9361
17380TIP3    H273556   0.017   6.539   1.178 -0.9195  1.6856  0.7284
17381TIP3   OH273557   0.389   2.193  16.623 -0.4451 -0.0659  0.2036
17381TIP3    H173558   0.388   2.264  16.687 -0.5716  1.7995 -1.8333
17381TIP3    H273559   0.435   2.228  16.547  0.0721 -2.3795 -0.6081
17382TIP3   OH273560   5.472   3.667  12.230  0.1620  0.7775  0.3614
17382TIP3    H173561   5.429   3.735  12.178  2.9142  2.5193  0.2447
17382TIP3    H273562   5.541   3.633  12.172  0.2134 -0.5809  1.1946
17383TIP3   OH273563   0.349   4.730  16.411 -0.3065  0.0880 -0.4450
17383TIP3    H173564   0.259   4.751  16.436  0.4527  1.9028  0.8614
17383TIP3    H273565   0.366   4.785  16.334  0.4413  1.4900  0.7108
17384TIP3   OH273566   6.337   1.068   2.155  0.4318 -0.2924  0.0895
17384TIP3    H173567   6.286   1.147   2.140  1.6078  0.5445  0.4372
17384TIP3    H273568   6.290   1.022   2.225  0.6658  0.9383  1.0655
17385TIP3   OH273569   5.679   2.066   0.043  0.4183 -0.0499 -0.2525
17385TIP3    H173570   5.584   2.057   0.049  0.3306 -0.7858 -2.2824
17385TIP3    H273571   5.709   1.980   0.013  1.6071  0.4966 -0.6561
17386TIP3   OH273572   6.161   0.987  14.122  0.3822  0.0355  0.4282
17386TIP3    H173573   6.108   0.995  14.043  1.0776 -2.0308 -0.2962
17386TIP3    H273574   6.148   0.897  14.151  1.6389  0.1946  1.5780
17387TIP3   OH273575   6.711   0.250   2.311  0.7619 -0.2916 -0.8412
17387TIP3    H173576   6.764   0.304   2.252  0.2060 -0.4164 -1.4507
17387TIP3    H273577   6.631   0.231   2.262 -0.8473  1.7709  0.8776
17388TIP3   OH273578   3.278   2.882   5.887 -0.7012 -0.4238 -0.0631
17388TIP3    H173579   3.245   2.931   5.962  0.4094 -0.8141  0.6923
17388TIP3    H273580   3.290   2.793   5.920  0.7524 -0.3739 -0.4179
17389TIP3   OH273581   5.062   5.953   5.601 -0.5045  0.1758  0.0468
17389TIP3    H173582   5.131   5.894   5.631 -0.5540  0.1861  0.1826
17389TIP3    H273583   5.068   5.951   5.506  0.4271  1.0349  0.0655
17390TIP3   OH273584   2.196   1.757  15.965  0.0248  0.4448  0.0807
17390TIP3    H173585   2.209   1.847  15.995  0.9885 -0.7501  3.5167
17390TIP3    H273586   2.101   1.747  15.961 -0.1585  0.5921  3.1473
17391TIP3   OH273587   6.411   5.536   1.165 -0.5801 -0.4301  0.1561
17391TIP3    H173588   6.485   5.591   1.191  1.2314 -2.5610 -0.3191
17391TIP3    H273589   6.386   5.569   1.079 -0.2909  0.4132  0.3918
17392TIP3   OH273590   2.090   0.471   5.224 -0.6818  0.3969  0.1415
17392TIP3    H173591   2.102   0.389   5.176 -0.6364  0.8483 -0.6286
17392TIP3    H273592   2.170   0.521   5.207 -1.2838  1.1508 -0.4861
17393TIP3   OH273593   3.596   6.222  11.342 -0.2251  0.0481 -0.3955
17393TIP3    H173594   3.531   6.245  11.409  1.7389 -2.2509  2.4200
17393TIP3    H273595   3.544   6.213  11.261 -3.1089  0.0939  1.3648
17394TIP3   OH273596   4.884   3.296   3.158 -0.2012  0.4027  0.0429
17394TIP3    H173597   4.885   3.203   3.134  0.5650  0.9101 -2.0017
17394TIP3    H273598   4.946   3.303   3.230 -0.7820 -0.7786  0.6734
17395TIP3   OH273599   3.850   3.788   1.940  0.0120 -0.0470 -0.1180
17395TIP3    H173600   3.783   3.764   2.004  0.8148 -2.9148 -0.2916
17395TIP3    H273601   3.933   3.761   1.980  0.8637  1.2557 -0.9397
17396TIP3   OH273602   1.175   3.002   0.899  0.1068 -0.5061 -0.6453
17396TIP3    H173603   1.090   2.969   0.871 -0.5439 -0.8942  1.7180
17396TIP3    H273604   1.167   3.097   0.894 -1.1437 -0.4828  1.4698
17397TIP3   OH273605   0.355   2.739   0.955 -0.4558 -0.2039 -0.0362
17397TIP3    H173606   0.274   2.699   0.922 -1.2985  0.2814  1.4144
17397TIP3    H273607   0.367   2.816   0.899 -1.0587 -0.2200 -0.1991
17398TIP3   OH273608   0.315   6.128   0.054 -0.5176 -0.1801 -0.2577
17398TIP3    H173609   0.338   6.166  -0.030 -0.2728 -1.7583 -0.9361
17398TIP3    H273610   0.382   6.160   0.114  0.5143 -0.6789 -1.1218
17399TIP3   OH273611   3.456   6.007  16.320 -0.4031  0.3049  0.4369
17399TIP3    H173612   3.440   5.969  16.233  1.4446 -1.8345  0.9859
17399TIP3    H273613   3.522   6.074  16.304 -1.4892  1.2844 -0.0761
17400TIP3   OH273614   2.279   5.932  17.193 -0.3345  0.2980 -0.7017
17400TIP3    H173615   2.302   5.840  17.205  1.5002  1.1403  3.2723
17400TIP3    H273616   2.183   5.933  17.197 -0.3237 -1.2852  1.0125
17401TIP3   OH273617   4.352   5.351   5.012  0.0699  0.3222 -0.6035
17401TIP3    H173618   4.359   5.276   5.071  0.5814  0.6517 -0.2514
17401TIP3    H273619   4.350   5.312   4.924  3.5446  0.0426 -0.5988
17402TIP3   OH273620   3.837   1.193   4.131 -0.5974  0.1448 -0.4250
17402TIP3    H173621   3.822   1.217   4.222 -1.8398  0.0197 -0.5882
17402TIP3    H273622   3.822   1.098   4.128 -0.9932  0.2191 -0.8446
17403TIP3   OH273623   5.516   4.504   3.193  0.9154 -0.3309  0.6973
17403TIP3    H173624   5.515   4.441   3.264  1.1137 -0.7583  0.3240
17403TIP3    H273625   5.482   4.585   3.231 -1.2045 -1.1919  0.6910
17404TIP3   OH273626   4.876   0.973   4.283  0.8866 -0.5514  0.1157
17404TIP3    H173627   4.781   0.985   4.286  1.0366  1.0535 -0.8014
17404TIP3    H273628   4.903   0.970   4.374 -0.1479 -2.0143  0.3987
17405TIP3   OH273629   3.356   1.239   2.090  0.2286  0.4072 -0.0685
17405TIP3    H173630   3.361   1.213   1.998  0.0952 -1.4423  0.4243
17405TIP3    H273631   3.332   1.332   2.088 -1.0463  0.0564 -1.8725
17406TIP3   OH273632   4.974   4.592   0.762 -0.4669 -0.2023  0.7047
17406TIP3    H173633   5.069   4.579   0.755 -0.6179 -0.9014 -0.2805
17406TIP3    H273634   4.961   4.684   0.738  0.0579  0.1716  1.8388
17407TIP3   OH273635   4.559   6.421  16.180 -0.3904  0.3321  0.5066
17407TIP3    H173636   4.582   6.348  16.238  0.2292  1.8041  2.1875
17407TIP3    H273637   4.642   6.465  16.163 -0.9205  1.3746  0.5710
17408TIP3   OH273638   5.905   3.537  12.038  0.2578  0.2272  0.2986
17408TIP3    H173639   5.926   3.451  12.076  0.9866  0.2983  0.0755
17408TIP3    H273640   5.958   3.599  12.089  0.6080  0.4114 -0.2823
17409TIP3   OH273641   5.338   1.347  15.072  0.0419 -0.5763  0.0821
17409TIP3    H173642   5.368   1.420  15.127  0.7387 -0.6238 -0.2354
17409TIP3    H273643   5.412   1.329  15.014 -0.0111 -1.7418  0.3746
17410TIP3   OH273644   0.750   3.382   2.477 -0.0003  0.7464 -0.0948
17410TIP3    H173645   0.795   3.432   2.408  0.3113  0.1933 -0.2921
17410TIP3    H273646   0.663   3.364   2.440  0.1412  0.5124 -0.3139
17411TIP3   OH273647   4.350   2.036  10.845  0.0322 -0.2206  0.2020
17411TIP3    H173648   4.394   1.998  10.921  0.4747 -1.1931 -0.5194
17411TIP3    H273649   4.402   2.113  10.823  0.2306 -0.2543  0.5468
17412TIP3   OH273650   3.812   6.484  10.737 -0.0850 -0.8686 -0.3853
17412TIP3    H173651   3.733   6.498  10.684  0.4843  0.6052 -0.8638
17412TIP3    H273652   3.864   6.422  10.686  0.2765  0.2296 -1.3744
17413TIP3   OH273653   0.135   4.330   4.770  0.1637  0.1596 -0.1321
17413TIP3    H173654   0.106   4.289   4.689  0.8162 -2.1298  0.7387
17413TIP3    H273655   0.056   4.337   4.824  0.2485 -1.1034  0.1732
17414TIP3   OH273656   1.236   3.922  14.006 -0.6732  0.1957  0.4696
17414TIP3    H173657   1.260   3.873  13.928  0.7411  1.9963 -0.2787
17414TIP3    H273658   1.191   3.859  14.062  2.0431 -2.2208  0.0407
17415TIP3   OH273659   3.271   3.745   1.311 -0.5174  0.0241 -0.0297
17415TIP3    H173660   3.316   3.742   1.395 -2.6475  2.7734  1.2766
17415TIP3    H273661   3.325   3.801   1.256  0.9836 -1.9397 -0.6111
17416TIP3   OH273662   1.194   5.250  13.463 -0.4665 -0.4857 -0.0987
17416TIP3    H173663   1.158   5.329  13.504  2.2738  1.2306 -0.8731
17416TIP3    H273664   1.237   5.202  13.534 -1.8159 -1.1171  0.3035
17417TIP3   OH273665   1.153   4.511  11.290 -0.4789 -0.3875  0.0196
17417TIP3    H173666   1.209   4.436  11.271 -1.2096 -0.9233 -0.0342
17417TIP3    H273667   1.072   4.493  11.243 -1.1919 -0.2535  1.1916
17418TIP3   OH273668   1.322   2.757   2.001 -0.1124  0.3744 -0.2365
17418TIP3    H173669   1.256   2.706   1.954  2.4456 -1.8870 -1.4715
17418TIP3    H273670   1.355   2.819   1.936  0.8785 -0.3260 -0.4103
17419TIP3   OH273671   3.945   3.280  16.601  0.2578 -0.2653  0.5437
17419TIP3    H173672   4.018   3.321  16.648  0.1258  0.7923 -0.1488
17419TIP3    H273673   3.935   3.333  16.522  0.0566 -1.6376 -0.3560
17420TIP3   OH273674   5.564   6.227   4.113 -1.0458 -0.9991 -0.0196
17420TIP3    H173675   5.584   6.277   4.033  0.7541  2.3647  2.4277
17420TIP3    H273676   5.498   6.279   4.158 -1.2050 -2.2981  1.2562
17421TIP3   OH273677   3.630   4.639   2.404  0.5730 -0.3582 -0.0060
17421TIP3    H173678   3.600   4.726   2.379  0.2932 -0.7929 -1.2110
17421TIP3    H273679   3.559   4.581   2.377 -0.1210 -0.7572  2.5869
17422TIP3   OH273680   2.837   2.649   4.826 -0.4035  0.6425  0.7081
17422TIP3    H173681   2.803   2.680   4.742 -1.0957  0.8833  1.0750
17422TIP3    H273682   2.927   2.681   4.828  0.4463 -1.4824 -1.0412
17423TIP3   OH273683   4.502   5.652  16.073  0.3139 -0.7080 -0.2872
17423TIP3    H173684   4.455   5.583  16.119  3.1046 -2.0730  0.6486
17423TIP3    H273685   4.536   5.610  15.994 -0.3352  0.3596 -1.1555
17424TIP3   OH273686   6.261   0.641   2.827 -0.0862  0.2898  0.0721
17424TIP3    H173687   6.202   0.712   2.853  2.7983  2.8917 -0.3610
17424TIP3    H273688   6.319   0.629   2.902  1.4226  0.4976 -1.0515
17425TIP3   OH273689   2.671   2.310  13.738  0.3159 -0.2004 -0.7443
17425TIP3    H173690   2.592   2.283  13.691  0.8614  0.0531 -1.8219
17425TIP3    H273691   2.638   2.356  13.815 -0.5958 -0.8183 -0.7531
17426TIP3   OH273692   4.208   4.360   0.197  0.0361 -0.0363 -1.1811
17426TIP3    H173693   4.139   4.418   0.231  1.5822  0.8276  0.5379
17426TIP3    H273694   4.288   4.412   0.203  1.3117 -2.0290 -0.4956
17427TIP3   OH273695   0.431   2.498  16.295  0.4277  0.5834 -0.2153
17427TIP3    H173696   0.351   2.549  16.311  0.3783  0.9237 -1.4648
17427TIP3    H273697   0.497   2.564  16.275  0.7850  0.2524 -0.1147
17428TIP3   OH273698   0.442   1.960  16.984  0.1029  0.3881 -0.3827
17428TIP3    H173699   0.353   1.951  16.950  0.3338  2.3893 -1.5989
17428TIP3    H273700   0.495   1.905  16.926 -0.5110 -1.9664  1.2312
17429TIP3   OH273701   5.865   5.227  15.980  0.7916 -0.7666  0.0445
17429TIP3    H173702   5.868   5.191  15.892  1.1279 -1.9489  0.5220
17429TIP3    H273703   5.775   5.210  16.009  0.8772 -1.0002  0.1752
17430TIP3   OH273704   5.893   3.118   4.837  0.2533  0.4377  0.1943
17430TIP3    H173705   5.808   3.077   4.856  1.2015 -1.4336  0.5021
17430TIP3    H273706   5.956   3.065   4.886  1.6194  1.7354 -0.1426
17431TIP3   OH273707   0.109   5.647   0.917 -0.3194  0.5823 -0.0406
17431TIP3    H173708   0.185   5.666   0.862 -0.4521  0.9223 -0.1121
17431TIP3    H273709   0.145   5.629   1.004  0.0905 -2.5571 -0.8129
17432TIP3   OH273710   0.467   6.630  14.684  0.0040 -0.0821 -0.3686
17432TIP3    H173711   0.492   6.622  14.592  2.0343 -1.2494  0.2531
17432TIP3    H273712   0.373   6.609  14.685 -0.4421  1.6675 -2.3756
17433TIP3   OH273713   5.639   3.362  16.212  0.1569  0.6242  0.1525
17433TIP3    H173714   5.615   3.435  16.154  0.1584  0.7974  0.3703
17433TIP3    H273715   5.675   3.296  16.153 -0.3800  0.5690 -0.1171
17434TIP3   OH273716   5.493   1.062   0.319  0.1862 -0.1757 -0.3068
17434TIP3    H173717   5.448   0.982   0.293  1.5944 -0.6568 -1.3329
17434TIP3    H273718   5.542   1.089   0.242  2.2935 -0.1279  0.9948
17435TIP3   OH273719   3.298   1.474  17.190 -0.0952  0.3709  0.1511
17435TIP3    H173720   3.383   1.518  17.200 -0.5195  1.8655 -2.4356
17435TIP3    H273721   3.236   1.530  17.235  0.1370 -0.3215  1.3662
17436TIP3   OH273722   5.027   3.816  13.402  0.8475 -0.3277  0.2738
17436TIP3    H173723   5.055   3.776  13.484 -1.4673 -1.6278  0.4957
17436TIP3    H273724   4.953   3.871  13.426  0.5545 -0.2188 -0.8309
17437TIP3   OH273725   1.360   2.501   6.200 -0.2651 -0.1677  0.0971
17437TIP3    H173726   1.357   2.445   6.123 -0.8383 -0.2402  0.1669
17437TIP3    H273727   1.328   2.446   6.271  2.9535 -1.0014  0.9751
17438TIP3   OH273728   1.591   2.136  11.832  0.0803 -0.0529  0.0020
17438TIP3    H173729   1.679   2.154  11.799 -0.2801  0.0203 -0.9240
17438TIP3    H273730   1.556   2.222  11.854 -0.1640  0.0276 -0.6770
17439TIP3   OH273731   2.062   6.198   3.092 -0.1790  0.2662  0.0372
17439TIP3    H173732   2.055   6.276   3.147  0.6959  0.5569 -0.2485
17439TIP3    H273733   1.978   6.192   3.047 -1.3088 -0.5831  2.1836
17440TIP3   OH273734   1.952   6.349  16.985  0.4650  0.5475  0.0891
17440TIP3    H173735   1.868   6.331  17.027  1.0526 -1.6012  0.4454
17440TIP3    H273736   1.991   6.419  17.036  0.2695 -0.6478  1.9167
17441TIP3   OH273737   2.588   1.029   1.803  0.3365 -0.2812 -0.1296
17441TIP3    H173738   2.651   1.083   1.755  0.8120 -1.8662 -1.3604
17441TIP3    H273739   2.514   1.018   1.742 -0.0461 -0.4509  0.3587
17442TIP3   OH273740   4.028   2.361   5.579  0.4291  0.4544 -0.2316
17442TIP3    H173741   4.042   2.378   5.672  1.1915 -0.4698 -0.1670
17442TIP3    H273742   3.955   2.299   5.577  0.0305  0.9204 -0.2844
17443TIP3   OH273743   5.427   3.128   4.921  0.3245  0.1618  0.3121
17443TIP3    H173744   5.419   3.168   5.008 -1.9254  0.3413  0.0443
17443TIP3    H273745   5.337   3.104   4.897  1.0437 -0.7456 -1.5644
17444TIP3   OH273746   4.142   1.928  12.021 -0.2548  0.4003 -0.0111
17444TIP3    H173747   4.054   1.960  12.038  0.2859  1.0607  1.6795
17444TIP3    H273748   4.199   1.992  12.064  0.9495 -1.4310  1.1839
17445TIP3   OH273749   5.475   6.418  17.187  0.0429 -0.3375  0.6090
17445TIP3    H173750   5.543   6.420  17.253  0.1341  0.2864  0.5031
17445TIP3    H273751   5.521   6.434  17.104 -0.3771  1.3372  0.6737
17446TIP3   OH273752   0.415   5.928  11.759  0.3518  0.2710  0.4799
17446TIP3    H173753   0.360   5.978  11.820  0.1987  0.0272  0.5425
17446TIP3    H273754   0.396   5.836  11.779  0.6672  0.1879  0.3943
17447TIP3   OH273755   0.237   3.612   3.068 -0.0125 -0.6488 -0.8617
17447TIP3    H173756   0.297   3.541   3.091  1.9786  2.1026  3.1551
17447TIP3    H273757   0.267   3.642   2.982  2.7539 -1.1132 -0.1278
17448TIP3   OH273758   6.625   3.127  14.216 -0.0498 -0.1158 -0.0972
17448TIP3    H173759   6.674   3.109  14.136 -0.0211 -1.1256  0.1406
17448TIP3    H273760   6.690   3.166  14.275  1.1697 -3.8507  1.1456
17449TIP3   OH273761   1.187   3.772   4.116 -0.5743 -0.1499 -0.4073
17449TIP3    H173762   1.190   3.863   4.086 -2.2946 -0.0265 -0.2261
17449TIP3    H273763   1.259   3.766   4.179 -0.0336  0.8976 -0.9044
17450TIP3   OH273764   2.214   5.864   2.768  0.6874  0.2850 -0.3146
17450TIP3    H173765   2.165   5.913   2.835 -0.4288  0.8741 -1.5354
17450TIP3    H273766   2.251   5.932   2.712  0.7203 -0.2349 -0.9181
17451TIP3   OH273767   2.843   2.960   0.840 -0.2736 -0.1269  0.0696
17451TIP3    H173768   2.910   2.946   0.773 -0.0424  0.7059  0.1203
17451TIP3    H273769   2.841   3.055   0.853 -1.4401 -0.1372  0.0890
17452TIP3   OH273770   0.425   3.868  11.937  0.4956  0.3996  0.2274
17452TIP3    H173771   0.356   3.856  12.002  1.0385 -0.5625  0.6539
17452TIP3    H273772   0.498   3.814  11.970 -0.1235 -2.2800 -2.5169
17453TIP3   OH273773   3.287   3.908  12.716  0.1865  0.3378  0.5203
17453TIP3    H173774   3.313   3.855  12.641 -0.5630  0.2298  0.3246
17453TIP3    H273775   3.359   3.900  12.778  0.8466  0.5031 -0.2259
17454TIP3   OH273776   2.403   2.906   1.099  0.0721 -0.0583 -0.0426
17454TIP3    H173777   2.392   2.996   1.068 -0.1359 -0.0508  0.0525
17454TIP3    H273778   2.351   2.902   1.179  0.9438  0.0376  0.5394
17455TIP3   OH273779   4.864   1.866   1.957  0.2921 -0.7742  0.2237
17455TIP3    H173780   4.832   1.956   1.947 -0.4265 -1.1016 -0.5028
17455TIP3    H273781   4.914   1.849   1.878 -0.9928 -1.5829 -0.4349
17456TIP3   OH273782   5.797   1.003   0.039  0.1931 -0.0848 -0.1534
17456TIP3    H173783   5.812   1.020  -0.054 -0.7310 -1.3625 -0.5512
17456TIP3    H273784   5.828   1.081   0.083  0.0552  0.8012 -1.5976
17457TIP3   OH273785   6.159   5.591   1.509  0.1770 -0.3358 -0.4160
17457TIP3    H173786   6.129   5.654   1.445 -1.9461 -1.0448 -0.1590
17457TIP3    H273787   6.200   5.521   1.458 -0.5139 -0.3676 -0.9265
17458TIP3   OH273788   0.505   0.819   4.484  0.6914  0.2525 -0.1600
17458TIP3    H173789   0.469   0.907   4.496  0.8572  0.2377  0.4724
17458TIP3    H273790   0.573   0.812   4.551  2.0703  0.3798 -1.5105
17459TIP3   OH273791   6.551   0.338   1.240 -0.3769 -0.7797  0.9949
17459TIP3    H173792   6.535   0.247   1.217 -0.3902 -0.4090 -0.4939
17459TIP3    H273793   6.574   0.380   1.157 -0.4571  0.5839  1.6560
17460TIP3   OH273794   4.292   4.242  16.646  0.2031  0.0055 -0.3031
17460TIP3    H173795   4.342   4.261  16.725  0.5822 -0.1517 -0.5004
17460TIP3    H273796   4.330   4.299  16.579  1.3625 -1.4166 -0.8988
17461TIP3   OH273797   5.474   6.025  11.747  0.1898 -0.5914  0.0575
17461TIP3    H173798   5.417   5.964  11.794 -1.1649 -0.5811 -1.5183
17461TIP3    H273799   5.421   6.103  11.734  2.2263  1.4063  2.9141
17462TIP3   OH273800   6.378   1.705  13.422 -0.1478  0.7878 -0.2137
17462TIP3    H173801   6.332   1.728  13.340 -1.9023 -2.3390 -0.1736
17462TIP3    H273802   6.308   1.695  13.486  1.0592  1.0360  1.1609
17463TIP3   OH273803   0.677   3.715   0.337 -0.3902 -0.0601 -0.1695
17463TIP3    H173804   0.670   3.808   0.363 -2.1564 -0.0627 -0.5522
17463TIP3    H273805   0.742   3.679   0.397 -0.0107  1.3277  0.2904
17464TIP3   OH273806   2.673   0.340   2.123 -0.4495 -0.4376  0.2274
17464TIP3    H173807   2.721   0.312   2.045  0.6995 -0.0792  0.7929
17464TIP3    H273808   2.654   0.259   2.170 -0.7524 -0.6149 -0.1931
17465TIP3   OH273809   3.587   6.352   2.552  0.5006  0.5236  0.6506
17465TIP3    H173810   3.597   6.447   2.550 -0.3826  0.6039 -0.5597
17465TIP3    H273811   3.602   6.328   2.643  4.6360  1.3650  0.2521
17466TIP3   OH273812   2.954   2.733  15.616 -0.3765  0.0134  0.0126
17466TIP3    H173813   2.948   2.724  15.520  0.4586 -2.0848  0.1357
17466TIP3    H273814   3.041   2.767  15.631  0.2653 -1.6088  0.1111
17467TIP3   OH273815   4.139   2.507  17.232  0.1471  0.0659 -0.2612
17467TIP3    H173816   4.159   2.463  17.314  0.8732 -0.2569 -0.6103
17467TIP3    H273817   4.221   2.549  17.206 -0.0576  0.0997 -0.8674
17468TIP3   OH273818   1.242   0.232   1.026  0.1498  0.0793 -0.0331
17468TIP3    H173819   1.203   0.319   1.016  1.8154  0.6768 -1.6025
17468TIP3    H273820   1.239   0.195   0.939  0.6010 -0.9564  0.3896
17469TIP3   OH273821   5.822   4.407   3.445  0.2431 -0.6544 -0.1058
17469TIP3    H173822   5.881   4.447   3.509  1.4336  1.6444 -2.5682
17469TIP3    H273823   5.766   4.479   3.416  0.7828 -1.2591 -2.7868
17470TIP3   OH273824   5.454   6.224  11.250 -0.0695  0.0896 -0.1563
17470TIP3    H173825   5.472   6.181  11.166 -1.1118 -1.6603  0.5090
17470TIP3    H273826   5.360   6.241  11.248  0.1672  1.4628  0.0130
17471TIP3   OH273827   6.250   4.939   0.861 -0.3487 -0.5466  0.5189
17471TIP3    H173828   6.256   4.973   0.771  3.9743 -0.4838  0.7253
17471TIP3    H273829   6.220   5.014   0.912 -0.4607  0.1230 -0.5078
17472TIP3   OH273830   5.143   4.043   0.932  0.1862  0.3730 -0.3799
17472TIP3    H173831   5.214   4.105   0.916  0.6247 -0.0056  0.0798
17472TIP3    H273832   5.167   4.000   1.014 -1.2962  1.2498  0.5226
17473TIP3   OH273833   4.864   0.020  10.671 -0.5446 -0.2900  0.1827
17473TIP3    H173834   4.878   0.087  10.739 -0.4748  0.6912 -0.7842
17473TIP3    H273835   4.856   0.070  10.590  0.0029 -1.5092 -0.6278
17474TIP3   OH273836   6.690   4.248  15.653 -0.1564 -0.5259  0.3496
17474TIP3    H173837   6.626   4.263  15.584 -1.4908 -0.5366  1.5458
17474TIP3    H273838   6.675   4.157  15.679  1.7800 -1.1985 -0.7667
17475TIP3   OH273839   4.500   5.713  12.136 -0.4754 -0.6084  0.1849
17475TIP3    H173840   4.465   5.640  12.083  0.8223 -0.0855 -1.4524
17475TIP3    H273841   4.545   5.769  12.072 -3.0646  2.6808  1.1163
17476TIP3   OH273842   0.252   5.626   2.080 -0.3589 -0.6752  0.4508
17476TIP3    H173843   0.286   5.550   2.127  2.2885  0.1241 -0.0530
17476TIP3    H273844   0.251   5.696   2.145  0.8071 -0.2357  0.0258
17477TIP3   OH273845   2.612   2.247   2.292 -0.0537 -0.3137  0.1133
17477TIP3    H173846   2.670   2.278   2.361  1.0562  0.3943 -1.1227
17477TIP3    H273847   2.528   2.290   2.310 -0.0048 -0.7486  1.4564
17478TIP3   OH273848   4.408   0.746  12.738 -0.0669  0.2051 -0.5461
17478TIP3    H173849   4.430   0.726  12.647  1.0016  2.0110 -0.7070
17478TIP3    H273850   4.330   0.801  12.733  1.8104  2.9364 -0.5721
17479TIP3   OH273851   0.835   4.185   1.289  0.2195 -0.0897 -0.1227
17479TIP3    H173852   0.760   4.175   1.348 -1.2381  0.4423 -1.8324
17479TIP3    H273853   0.901   4.229   1.341 -1.5035  1.5370  0.7347
17480TIP3   OH273854   1.140   3.816  15.710 -0.3571  0.2111 -0.1458
17480TIP3    H173855   1.206   3.806  15.642  0.2396 -1.5348  0.6632
17480TIP3    H273856   1.096   3.732  15.713  0.0777  0.0282  2.0767
17481TIP3   OH273857   4.362   5.454   5.282 -0.5614 -0.1137 -0.4556
17481TIP3    H173858   4.379   5.374   5.332  0.5678  0.3778 -0.0306
17481TIP3    H273859   4.359   5.425   5.191 -1.1669 -0.7944 -0.2199
17482TIP3   OH273860   2.036   0.336  14.363  0.2146 -0.2013  0.1969
17482TIP3    H173861   1.971   0.363  14.428  0.2050  2.4652 -0.8416
17482TIP3    H273862   2.116   0.324  14.413 -0.4061 -0.6951  1.0804
17483TIP3   OH273863   1.626   4.327   3.828  0.3297  0.6636 -0.5642
17483TIP3    H173864   1.596   4.347   3.917  0.0177  0.0013 -0.5222
17483TIP3    H273865   1.610   4.234   3.818  1.8178  0.4243 -0.7615
17484TIP3   OH273866   2.369   6.373  12.624 -0.6889 -0.1835 -0.1662
17484TIP3    H173867   2.337   6.441  12.683 -1.0965 -0.5306  0.0183
17484TIP3    H273868   2.413   6.311  12.681 -1.1161 -0.5395 -0.2166
17485TIP3   OH273869   1.461   5.712  15.508 -0.0178  0.0329  0.3745
17485TIP3    H173870   1.446   5.802  15.539  2.9864  2.0000 -3.3640
17485TIP3    H273871   1.552   5.695  15.531  0.6738 -0.4206 -2.5112
17486TIP3   OH273872   2.825   1.925   1.053  0.2406  0.4700 -0.2628
17486TIP3    H173873   2.765   1.987   1.012 -0.6743 -0.4438 -0.3530
17486TIP3    H273874   2.778   1.841   1.050  1.3593 -0.1828  0.0396
17487TIP3   OH273875   2.729   4.368   3.347  0.0222  0.5967 -0.0204
17487TIP3    H173876   2.731   4.443   3.287  0.6647 -0.0291 -0.7880
17487TIP3    H273877   2.719   4.292   3.291  0.6519  0.0031  0.6614
17488TIP3   OH273878   3.277   2.823  11.523 -0.2874  0.1319 -0.2342
17488TIP3    H173879   3.248   2.734  11.544 -1.4076  0.6396  0.3918
17488TIP3    H273880   3.343   2.842  11.590 -0.4251 -0.0376 -0.0488
17489TIP3   OH273881   0.913   6.463   1.703 -0.3578  0.2633 -0.3588
17489TIP3    H173882   0.872   6.538   1.659 -1.5483  0.8753  1.7434
17489TIP3    H273883   0.960   6.501   1.777 -1.5229 -1.0855  1.1233
17490TIP3   OH273884   2.585   5.983  11.513  0.0661 -0.0165 -0.3889
17490TIP3    H173885   2.653   5.999  11.447 -0.8411  0.6098 -1.1770
17490TIP3    H273886   2.562   5.891  11.502  0.2629 -0.0381 -0.6174
17491TIP3   OH273887   6.065   0.888  12.767  0.0926  0.3422 -0.1429
17491TIP3    H173888   5.977   0.862  12.743  0.1903  0.2405 -0.3891
17491TIP3    H273889   6.068   0.880  12.862 -0.4684  1.2956 -0.0386
17492TIP3   OH273890   2.665   0.594   5.111 -0.2036  0.1953  0.0401
17492TIP3    H173891   2.714   0.650   5.051 -0.6975  1.2711  0.6377
17492TIP3    H273892   2.649   0.514   5.061  2.1836 -0.1871 -0.1531
17493TIP3   OH273893   5.601   2.534   3.947 -0.1766  0.3873 -0.1232
17493TIP3    H173894   5.638   2.549   4.034 -1.4133 -0.7069  0.6046
17493TIP3    H273895   5.508   2.520   3.963 -0.5017  0.6891 -1.6848
17494TIP3   OH273896   2.690   4.819  12.436 -0.3638 -0.0564  0.2170
17494TIP3    H173897   2.605   4.821  12.481  0.6269  2.0083  2.0724
17494TIP3    H273898   2.755   4.813  12.506  1.1255  0.5517 -1.0702
17495TIP3   OH273899   5.226   6.126  12.058 -0.1031 -0.4006  0.0616
17495TIP3    H173900   5.155   6.134  12.122 -0.7350 -0.2080 -0.6640
17495TIP3    H273901   5.233   6.213  12.018  2.4130  0.4108  2.0835
17496TIP3   OH273902   2.884   3.830  10.747 -0.0940  0.5156  0.4523
17496TIP3    H173903   2.836   3.782  10.815  0.8826  2.9235  2.9532
17496TIP3    H273904   2.970   3.789  10.745 -1.3466 -2.1178 -2.1943
17497TIP3   OH273905   5.849   4.994   4.788 -0.1169 -0.6362 -0.0706
17497TIP3    H173906   5.846   5.048   4.709 -0.5846 -0.2587  0.2005
17497TIP3    H273907   5.830   4.906   4.757  0.0323 -0.5435 -0.4286
17498TIP3   OH273908   5.621   1.524  15.971 -0.1500 -0.2662 -0.1027
17498TIP3    H173909   5.580   1.476  15.898  0.7833  0.0934 -0.8683
17498TIP3    H273910   5.697   1.472  15.995 -0.1239 -0.0769  0.2289
17499TIP3   OH273911   5.184   5.045  14.716  0.7837 -0.1782  0.1631
17499TIP3    H173912   5.118   5.090  14.769  0.8025  0.5242 -0.3963
17499TIP3    H273913   5.200   4.963  14.762  0.9441  0.5012  1.3454
17500TIP3   OH273914   5.088   0.711   3.636  0.0259 -0.3906  0.2120
17500TIP3    H173915   4.999   0.736   3.662  0.1150 -1.2864  1.4609
17500TIP3    H273916   5.107   0.764   3.559 -1.2867  0.4007  0.4218
17501TIP3   OH273917   1.224   3.174   0.393 -0.6173  0.1442  0.3789
17501TIP3    H173918   1.293   3.221   0.440 -0.8729  1.2293 -0.3241
17501TIP3    H273919   1.200   3.102   0.452  1.3179 -0.4176  0.4919
17502TIP3   OH273920   2.846   0.628   5.322  0.0718 -0.2255 -0.5051
17502TIP3    H173921   2.774   0.622   5.385  1.1101 -1.4827  0.6009
17502TIP3    H273922   2.805   0.608   5.238 -1.1460  0.5154 -0.1048
17503TIP3   OH273923   3.337   0.701  12.824  0.6220 -0.0169 -0.1383
17503TIP3    H173924   3.296   0.768  12.880  0.0348 -0.8558  0.4457
17503TIP3    H273925   3.263   0.657  12.782  1.0746  0.7320 -1.7271
17504TIP3   OH273926   4.998   1.125  14.567 -0.4336  0.0230 -0.1994
17504TIP3    H173927   4.978   1.202  14.513  3.1686  1.0960 -0.1667
17504TIP3    H273928   5.018   1.057  14.503 -3.1500 -0.7900 -0.2253
17505TIP3   OH273929   0.604   3.027   0.632  0.2881  0.0969  0.0240
17505TIP3    H173930   0.571   3.011   0.721 -0.3962  0.0633 -0.2364
17505TIP3    H273931   0.616   2.939   0.595 -0.3709  0.1331 -0.2676
17506TIP3   OH273932   3.230   6.664   4.613 -0.0810 -0.1756 -0.0737
17506TIP3    H173933   3.302   6.671   4.676  0.0485 -0.0103 -0.2425
17506TIP3    H273934   3.160   6.621   4.662  0.2125 -0.5444  0.0233
17507TIP3   OH273935   3.709   4.621   4.891  0.1754 -0.3771  0.0567
17507TIP3    H173936   3.729   4.617   4.797  1.4915 -0.5480  0.3400
17507TIP3    H273937   3.775   4.566   4.932  0.4940  0.8710  1.2348
17508TIP3   OH273938   6.271   6.573   4.244  0.3001 -0.0250 -0.6905
17508TIP3    H173939   6.220   6.492   4.241 -0.9031  0.5068  2.8116
17508TIP3    H273940   6.353   6.549   4.287 -0.5182  0.7819  1.3900
17509TIP3   OH273941   0.874   2.957  12.201 -0.4830 -0.3283 -0.2899
17509TIP3    H173942   0.936   2.982  12.269 -0.6974  0.7292 -0.4795
17509TIP3    H273943   0.796   2.929  12.249 -0.3813 -0.2613 -0.0874
17510TIP3   OH273944   3.567   2.208  14.054  0.5817  0.3615  0.2492
17510TIP3    H173945   3.600   2.231  14.141  1.3081 -0.8980  0.3306
17510TIP3    H273946   3.570   2.112  14.052 -2.6692  0.2295  0.0605
17511TIP3   OH273947   5.781   4.223  15.830  0.1925 -0.1081  0.0713
17511TIP3    H173948   5.767   4.316  15.811  0.4150 -0.3238 -1.2318
17511TIP3    H273949   5.720   4.177  15.771  0.6320 -0.7979  0.1494
17512TIP3   OH273950   2.251   3.152  16.493  0.6592 -0.2422 -0.4284
17512TIP3    H173951   2.345   3.169  16.502  0.3328 -0.3112  3.9533
17512TIP3    H273952   2.220   3.223  16.437  3.1372  0.3329 -1.1502
17513TIP3   OH273953   3.727   6.324   2.296 -0.1877 -0.3047 -0.6492
17513TIP3    H173954   3.677   6.385   2.242 -1.0310 -0.9130 -0.5664
17513TIP3    H273955   3.713   6.355   2.386 -0.5581 -0.5773 -0.6126
17514TIP3   OH273956   1.239   0.776   1.008 -0.0426 -0.1947 -0.6839
17514TIP3    H173957   1.305   0.734   1.063  0.2529  1.6990  0.4432
17514TIP3    H273958   1.218   0.710   0.942  1.0155 -1.7931  0.5348
17515TIP3   OH273959   1.430   1.966  13.028  0.6529  0.2752 -0.3371
17515TIP3    H173960   1.371   1.897  12.998  0.5317  0.3839 -0.3464
17515TIP3    H273961   1.447   1.944  13.120 -1.0087  1.3899  0.2502
17516TIP3   OH273962   0.333   6.159  13.018  0.1391 -0.0751 -0.1654
17516TIP3    H173963   0.397   6.088  13.011  0.1202 -0.3656  2.1935
17516TIP3    H273964   0.248   6.115  13.016  0.0144  0.2140 -2.1787
17517TIP3   OH273965   4.382   0.426   4.492 -0.3369  0.0582 -0.0741
17517TIP3    H173966   4.378   0.521   4.499  0.7555  0.0982  0.0624
17517TIP3    H273967   4.435   0.409   4.414  1.1114 -0.4369  0.9985
17518TIP3   OH273968   6.624   5.626  11.353 -0.1510 -0.3828 -0.1522
17518TIP3    H173969   6.554   5.564  11.333 -1.1242  0.5848  0.2274
17518TIP3    H273970   6.607   5.701  11.296  1.4948 -0.7816 -1.2017
17519TIP3   OH273971   4.063   1.250   3.993 -0.2043  0.1648  0.4176
17519TIP3    H173972   3.990   1.213   4.042 -0.9575 -0.2592 -0.9920
17519TIP3    H273973   4.129   1.181   3.992 -0.6406 -0.2475 -0.1288
17520TIP3   OH273974   4.647   2.506   0.237  0.0489 -0.1029 -0.2041
17520TIP3    H173975   4.615   2.438   0.178 -0.5954 -0.8186  0.9375
17520TIP3    H273976   4.734   2.528   0.204 -0.2797 -0.5310 -1.3689
17521TIP3   OH273977   1.467   4.136   6.682  0.8805  0.3690  0.1556
17521TIP3    H173978   1.496   4.079   6.610 -1.6206  0.2077 -0.7889
17521TIP3    H273979   1.502   4.095   6.761 -0.7726 -2.5180 -0.5018
17522TIP3   OH273980   2.806   5.832   4.084 -0.1648  0.0545 -0.0937
17522TIP3    H173981   2.762   5.831   4.000  1.0346 -3.6823 -0.7735
17522TIP3    H273982   2.892   5.871   4.066 -0.6306  1.0480 -0.1776
17523TIP3   OH273983   4.586   6.095   2.641 -0.3405  0.0789 -0.2201
17523TIP3    H173984   4.491   6.103   2.647 -0.3062  0.9946 -0.8295
17523TIP3    H273985   4.606   6.013   2.688 -1.3445  0.2749  0.5707
17524TIP3   OH273986   0.370   3.351  13.821  0.4257  0.2257 -0.0010
17524TIP3    H173987   0.453   3.390  13.793 -0.0234  1.0853 -0.1289
17524TIP3    H273988   0.392   3.260  13.840  1.4371  0.4878  0.1082
17525TIP3   OH273989   1.239   2.771   4.688  0.0331 -0.2141  0.1557
17525TIP3    H173990   1.219   2.845   4.746 -0.5650 -1.4167  1.5137
17525TIP3    H273991   1.171   2.707   4.708  0.0572 -0.8142 -1.6188
17526TIP3   OH273992   5.283   2.199   4.844 -0.2346 -0.3040  0.0446
17526TIP3    H173993   5.310   2.285   4.811 -1.6064 -0.8644 -2.7639
17526TIP3    H273994   5.196   2.215   4.881 -0.1989 -0.3478  0.1453
17527TIP3   OH273995   0.654   3.345  11.123 -0.2942 -0.0568  0.5880
17527TIP3    H173996   0.676   3.252  11.112 -1.6080 -0.0866 -2.1059
17527TIP3    H273997   0.558   3.347  11.116 -0.2494  1.5434  0.3045
17528TIP3   OH273998   5.586   2.227   0.685  0.3209  0.0218  0.1885
17528TIP3    H173999   5.629   2.312   0.680  2.4880 -0.8287  2.8896
17528TIP3    H274000   5.551   2.223   0.774 -1.7106 -1.0320 -0.6193
17529TIP3   OH274001   4.672   4.558   5.595 -0.0314  0.5582 -0.2621
17529TIP3    H174002   4.595   4.509   5.566  0.4111 -0.5868  0.4490
17529TIP3    H274003   4.744   4.495   5.586  0.3095  0.5759  2.1276
17530TIP3   OH274004   1.376   5.586   3.076  0.0589 -0.7452  0.5456
17530TIP3    H174005   1.364   5.541   3.159  0.8205 -0.8944  0.5726
17530TIP3    H274006   1.360   5.519   3.009 -0.8544 -0.5536  0.5604
17531TIP3   OH274007   5.656   1.542  16.723  0.2323 -0.0099 -0.4460
17531TIP3    H174008   5.594   1.605  16.686  0.5830  0.2179 -0.6513
17531TIP3    H274009   5.741   1.585  16.713  0.4328 -0.3739 -0.2768
17532TIP3   OH274010   0.201   6.138  12.728 -0.1430 -0.4587 -0.7312
17532TIP3    H174011   0.215   6.176  12.641  0.4471 -0.4840 -0.6477
17532TIP3    H274012   0.222   6.208  12.789 -0.1160 -0.5848 -0.5956
17533TIP3   OH274013   4.835   2.777  16.627  0.2141 -0.0808 -0.3140
17533TIP3    H174014   4.929   2.797  16.620  0.3385 -0.1832  1.0176
17533TIP3    H274015   4.810   2.811  16.713 -0.9798 -0.0471 -0.6695
17534TIP3   OH274016   4.310   6.518  12.000 -0.6522 -0.2721 -0.0139
17534TIP3    H174017   4.374   6.588  12.008 -0.8095 -0.0672 -0.5378
17534TIP3    H274018   4.250   6.531  12.073 -2.3170  1.8324 -1.6614
17535TIP3   OH274019   3.158   0.916   3.364 -0.1760 -0.2992 -0.6582
17535TIP3    H174020   3.079   0.941   3.316 -1.4677 -2.6285  0.1499
17535TIP3    H274021   3.170   0.984   3.430 -0.2098  1.2412 -2.2160
17536TIP3   OH274022   4.769   1.080   4.969  0.2019 -0.0342  0.1484
17536TIP3    H174023   4.839   1.073   5.035  1.1327 -0.1048 -0.8345
17536TIP3    H274024   4.743   0.989   4.954  0.8497 -0.1255 -0.4756
17537TIP3   OH274025   3.718   4.035   6.171 -0.2694 -0.4493  0.5013
17537TIP3    H174026   3.667   4.018   6.250 -0.1497 -0.1655  0.6407
17537TIP3    H274027   3.737   3.948   6.136 -0.8443 -0.5545  0.4502
17538TIP3   OH274028   4.777   2.258   2.587  0.2949  0.4531  0.3066
17538TIP3    H174029   4.703   2.281   2.532  1.3079 -0.5519 -1.5026
17538TIP3    H274030   4.766   2.165   2.605  1.1926  0.2713 -0.0812
17539TIP3   OH274031   4.368   4.347   3.993 -0.0147 -0.0754 -0.2234
17539TIP3    H174032   4.310   4.395   4.052  0.5564 -0.5342  0.7409
17539TIP3    H274033   4.451   4.395   3.999  0.9568 -1.8988  1.7888
17540TIP3   OH274034   1.373   0.883  17.066  0.5537 -0.6557  0.6166
17540TIP3    H174035   1.441   0.834  17.020  1.6570  1.5674 -0.1821
17540TIP3    H274036   1.397   0.876  17.159  0.7379 -1.5353  0.5094
17541TIP3   OH274037   1.723   6.690  11.878  0.3790 -0.6743  0.2591
17541TIP3    H174038   1.750   6.643  11.800  1.0966 -3.7794  2.2930
17541TIP3    H274039   1.630   6.709  11.864  0.8604  0.2103 -1.9629
17542TIP3   OH274040   4.434   3.022  12.766 -0.5294 -0.2951  0.3769
17542TIP3    H174041   4.496   3.085  12.803 -2.0652 -0.1995  2.8901
17542TIP3    H274042   4.362   3.076  12.733 -1.4325 -0.6558  1.7245
17543TIP3   OH274043   2.546   2.550   0.301  0.2511 -0.0588  0.1778
17543TIP3    H174044   2.603   2.530   0.227 -1.2183  0.8776 -1.2211
17543TIP3    H274045   2.603   2.597   0.362  2.0085 -2.6235  0.6058
17544TIP3   OH274046   6.068   4.261  13.766 -0.0410 -0.0277 -0.3220
17544TIP3    H174047   6.146   4.254  13.821  0.1587  0.8298 -0.4752
17544TIP3    H274048   6.078   4.346  13.722 -0.1058 -0.7915 -1.8188
17545TIP3   OH274049   1.696   3.396  16.013 -0.3382 -0.0804 -0.0362
17545TIP3    H174050   1.728   3.480  15.979  0.0209 -0.2771 -0.1910
17545TIP3    H274051   1.620   3.376  15.959  1.0898 -1.1126 -1.7290
17546TIP3   OH274052   0.616   4.748  15.226  0.4696  0.1117  0.2082
17546TIP3    H174053   0.671   4.736  15.149 -2.6226  2.9523 -2.5845
17546TIP3    H274054   0.672   4.793  15.289  2.8356 -1.6662 -0.5605
17547TIP3   OH274055   6.080   6.475  14.509  0.2639 -0.4648  0.0836
17547TIP3    H174056   6.026   6.554  14.511 -3.1967 -2.7313  0.6918
17547TIP3    H274057   6.090   6.450  14.601 -0.5529 -1.9107 -0.1971
17548TIP3   OH274058   5.669   5.898   6.359  0.1730 -0.1516 -0.1209
17548TIP3    H174059   5.743   5.935   6.407  0.4233 -1.4959  0.5466
17548TIP3    H274060   5.702   5.814   6.325 -0.9302 -0.5975 -0.1035
17549TIP3   OH274061   1.895   5.534  11.105  0.4782 -0.4098 -0.4711
17549TIP3    H174062   1.853   5.545  11.020  0.3119 -1.0984 -0.4828
17549TIP3    H274063   1.955   5.460  11.093  3.1418  1.7809 -0.9817
17550TIP3   OH274064   6.362   2.500   2.874  0.2059  0.7218 -0.7406
17550TIP3    H174065   6.311   2.426   2.843  0.7279 -0.0038  0.1247
17550TIP3    H274066   6.359   2.563   2.802 -1.6378  0.5698 -0.8341
17551TIP3   OH274067   5.771   5.550  10.746 -0.1648  0.0431  1.1750
17551TIP3    H174068   5.772   5.557  10.841  1.0377 -3.1544  1.4599
17551TIP3    H274069   5.808   5.633  10.715 -1.1228  1.3591  3.4212
17552TIP3   OH274070   2.592   1.415  10.266  0.5140 -0.3573 -0.5247
17552TIP3    H174071   2.532   1.340  10.268 -0.5923  0.4501 -2.8376
17552TIP3    H274072   2.671   1.381  10.225 -0.1600 -0.1694 -2.0176
17553TIP3   OH274073   4.403   6.069  14.004 -0.1082  0.3174  0.0902
17553TIP3    H174074   4.402   5.980  13.968 -1.4901 -1.5458  4.4014
17553TIP3    H274075   4.492   6.081  14.035 -0.0315  0.2800 -0.1146
17554TIP3   OH274076   1.182   1.545   1.653  0.5817 -0.1576  0.2569
17554TIP3    H174077   1.198   1.477   1.588 -0.9944 -2.4360  2.2081
17554TIP3    H274078   1.103   1.590   1.622  0.7581 -0.1676 -0.2231
17555TIP3   OH274079   2.953   5.599   4.167 -0.5905  0.3065 -0.3778
17555TIP3    H174080   2.893   5.674   4.162 -0.2392  0.5275 -1.4761
17555TIP3    H274081   3.033   5.634   4.206 -0.2271  0.6484 -1.4071
17556TIP3   OH274082   0.311   4.620   3.177 -0.0758  0.4403  0.3219
17556TIP3    H174083   0.395   4.629   3.132 -0.2116  1.5450  0.2721
17556TIP3    H274084   0.309   4.692   3.240 -1.1712  0.7125  0.0017
17557TIP3   OH274085   0.390   5.294  16.326  0.0435  0.2199 -0.5366
17557TIP3    H174086   0.334   5.254  16.260  0.2358  0.7936 -1.0565
17557TIP3    H274087   0.402   5.384  16.295 -0.8108  0.8435  0.8779
17558TIP3   OH274088   0.202   2.008   2.467  0.5131 -0.0162  0.0804
17558TIP3    H174089   0.254   2.086   2.449 -0.6369  0.5974 -0.6678
17558TIP3    H274090   0.119   2.042   2.500  0.5356 -0.9758  1.1411
17559TIP3   OH274091   0.036   2.105  11.038  0.3998 -0.1083  0.2338
17559TIP3    H174092   0.038   2.032  10.976 -0.2461  1.2265 -1.3676
17559TIP3    H274093  -0.027   2.077  11.105  0.9242 -1.4523  0.1807
17560TIP3   OH274094   5.715   1.175  12.370  0.3306  0.3640  0.5515
17560TIP3    H174095   5.668   1.208  12.446 -0.7442 -0.7742  0.3884
17560TIP3    H274096   5.662   1.102  12.337  1.4057  0.0456 -0.5550
17561TIP3   OH274097   5.878   3.412   0.442  0.7943 -0.4618 -0.1256
17561TIP3    H174098   5.937   3.432   0.515  1.6265 -0.9878 -0.6467
17561TIP3    H274099   5.837   3.329   0.466 -1.9324  1.3264  1.5865
17562TIP3   OH274100   2.193   2.773  10.871 -0.1682  0.2619 -0.2485
17562TIP3    H174101   2.230   2.691  10.904  1.3076  0.9614 -0.1009
17562TIP3    H274102   2.180   2.758  10.777 -0.2434 -0.2590 -0.1540
17563TIP3   OH274103   5.575   5.473  14.556  0.4368  0.2142 -0.7903
17563TIP3    H174104   5.500   5.415  14.573  0.3019  0.3928 -0.7649
17563TIP3    H274105   5.568   5.494  14.463 -0.6002  1.6864 -0.4031
17564TIP3   OH274106   5.843   4.745   4.320 -0.0186  1.0518 -0.4626
17564TIP3    H174107   5.863   4.836   4.344  2.3013  0.2592  0.8195
17564TIP3    H274108   5.928   4.707   4.300 -1.2106 -0.2698 -3.1463
17565TIP3   OH274109   3.971   3.908   1.739 -0.2525 -0.2707 -0.7321
17565TIP3    H174110   3.901   3.943   1.793 -0.5804  1.3768 -2.1953
17565TIP3    H274111   3.953   3.814   1.734 -1.4247 -0.1037  0.2244
17566TIP3   OH274112   6.642   2.723   5.935 -0.2137 -0.0844  0.0089
17566TIP3    H174113   6.572   2.663   5.963  1.7274 -2.3942  0.0879
17566TIP3    H274114   6.668   2.768   6.016 -0.6707 -0.2330  0.2405
17567TIP3   OH274115   5.782   5.153  15.695  0.1712  0.7488 -0.3726
17567TIP3    H174116   5.865   5.156  15.648  0.4899 -1.2347  0.0124
17567TIP3    H274117   5.742   5.239  15.679  1.0631  0.7589 -2.7872
17568TIP3   OH274118   5.379   6.232   0.141  0.3037 -0.4227  0.3310
17568TIP3    H174119   5.402   6.311   0.189  0.5763 -0.3607  0.1065
17568TIP3    H274120   5.400   6.253   0.050 -1.6322  0.0036 -0.0378
17569TIP3   OH274121   2.691   1.105  11.213  0.0843 -0.1858  0.1517
17569TIP3    H174122   2.726   1.161  11.144 -2.1731 -0.0431 -0.9513
17569TIP3    H274123   2.623   1.053  11.169 -0.2619 -1.2706  1.9076
17570TIP3   OH274124   0.003   3.622   2.063  0.1938  0.2606 -0.8485
17570TIP3    H174125   0.034   3.563   2.132  0.3873  2.4333  1.0157
17570TIP3    H274126  -0.015   3.704   2.109 -2.6904  0.8554 -2.8930
17571TIP3   OH274127   6.767   5.380   2.295 -0.1581 -0.0604  0.3515
17571TIP3    H174128   6.792   5.472   2.294 -1.2563  0.2470  0.5301
17571TIP3    H274129   6.677   5.379   2.263 -0.3546 -1.0091  0.9023
17572TIP3   OH274130   2.463   6.640  15.907 -0.1563 -0.4991  0.0685
17572TIP3    H174131   2.500   6.618  15.822  0.5212 -1.2094  0.5400
17572TIP3    H274132   2.480   6.563  15.961 -1.2973 -0.3731  0.6235
17573TIP3   OH274133   4.981   5.936   1.892 -0.3795 -0.4838 -0.0766
17573TIP3    H174134   4.934   6.011   1.929 -1.2745 -0.7996 -0.5514
17573TIP3    H274135   5.018   5.970   1.810  0.9343 -0.0034  0.7105
17574TIP3   OH274136   3.671   0.613  14.463 -0.5145 -0.1811 -0.0715
17574TIP3    H174137   3.707   0.649  14.544 -0.9913 -1.8666  0.9245
17574TIP3    H274138   3.615   0.683  14.429  0.1976  0.7829  0.7043
17575TIP3   OH274139   2.169   0.992  15.026  0.2371  0.4888  0.1018
17575TIP3    H174140   2.172   1.078  15.069 -1.5359  0.5257  0.1626
17575TIP3    H274141   2.210   0.933  15.090 -0.4960  0.9029  0.9721
17576TIP3   OH274142   3.722   0.232  16.451 -0.3714 -0.7815  0.1588
17576TIP3    H174143   3.786   0.216  16.382 -2.9098 -1.0033 -2.2208
17576TIP3    H274144   3.748   0.316  16.489  0.2670  0.0525 -2.0498
17577TIP3   OH274145   6.312   0.477   1.275  0.0622  0.6454  0.0489
17577TIP3    H174146   6.398   0.439   1.258 -0.0335 -0.2090  1.3591
17577TIP3    H274147   6.252   0.425   1.223  0.0816 -0.2167  0.8742
17578TIP3   OH274148   3.028   3.646  14.690 -0.1364  0.2668  1.2601
17578TIP3    H174149   2.934   3.651  14.671 -0.3114 -1.3409  1.6534
17578TIP3    H274150   3.049   3.553  14.686  1.9770  0.8097 -1.2120
17579TIP3   OH274151   2.362   3.782  14.505  0.3875 -0.7662  0.0961
17579TIP3    H174152   2.320   3.737  14.432  0.1614  0.7405 -0.7341
17579TIP3    H274153   2.313   3.755  14.582 -1.1066 -0.2855 -0.6602
17580TIP3   OH274154   3.672   6.158  16.301 -0.3433 -0.4181  0.0170
17580TIP3    H174155   3.702   6.215  16.230  2.2726 -0.8119  0.7233
17580TIP3    H274156   3.720   6.191  16.378 -3.7232  0.5390  1.8046
17581TIP3   OH274157   5.611   2.645  12.306 -0.5149 -0.2368  0.6394
17581TIP3    H174158   5.691   2.693  12.324 -0.1503 -0.7185  0.3154
17581TIP3    H274159   5.552   2.669  12.377  0.7363 -1.7137  2.2241
17582TIP3   OH274160   6.069   4.778  15.602 -0.0410 -0.4709 -0.1504
17582TIP3    H174161   6.108   4.706  15.651  0.1701 -0.0983  0.2361
17582TIP3    H274162   6.044   4.842  15.669  1.5729  0.6947 -0.6152
17583TIP3   OH274163   4.276   4.835  13.860  0.2280 -0.2201 -0.2040
17583TIP3    H174164   4.224   4.911  13.884  2.0203  0.9492  0.1009
17583TIP3    H274165   4.287   4.842  13.765  2.3515  1.2217  0.1200
17584TIP3   OH274166   2.104   2.729  10.599  0.8899 -0.0289  0.0152
17584TIP3    H174167   2.106   2.695  10.510 -0.3470 -0.4037  0.1287
17584TIP3    H274168   2.041   2.800  10.596 -2.7433 -3.0549  1.6391
17585TIP3   OH274169   4.650   2.194  12.819 -0.5364 -0.4038  0.0220
17585TIP3    H174170   4.732   2.201  12.771 -0.7539 -0.5834 -0.3796
17585TIP3    H274171   4.660   2.253  12.893  0.7707 -1.9746  1.1373
17586TIP3   OH274172   5.399   2.669   0.472 -1.0021 -0.3370  0.7304
17586TIP3    H174173   5.374   2.755   0.439 -1.1956 -0.4418  0.6053
17586TIP3    H274174   5.457   2.688   0.546 -0.7471 -0.0997  0.4718
17587TIP3   OH274175   3.853   4.163  13.870 -0.6174  0.5031  0.4890
17587TIP3    H174176   3.858   4.124  13.782 -0.1284 -1.3861  1.3222
17587TIP3    H274177   3.924   4.227  13.872  1.4194 -1.6857  0.5429
17588TIP3   OH274178   6.031   1.257   1.068  0.1555 -0.2933  0.1724
17588TIP3    H174179   5.959   1.229   1.124 -0.4377  0.1345 -0.3690
17588TIP3    H274180   6.004   1.233   0.980  0.0872  1.0746 -0.1807
17589TIP3   OH274181   3.297   6.011   2.937  0.1986  0.1219  0.4416
17589TIP3    H174182   3.234   6.067   2.982  0.6344 -1.0036  2.5629
17589TIP3    H274183   3.271   5.922   2.963  1.3300 -0.4679 -0.4285
17590TIP3   OH274184   4.661   0.959   2.403 -0.3884 -0.5712 -0.0295
17590TIP3    H174185   4.668   1.054   2.407 -1.7278 -0.4942  0.9250
17590TIP3    H274186   4.645   0.932   2.494 -0.6322 -1.6480 -0.3789
17591TIP3   OH274187   0.522   5.313   1.951  0.0830  0.3725  0.8089
17591TIP3    H174188   0.541   5.403   1.926 -0.1712  0.2488  0.1530
17591TIP3    H274189   0.507   5.268   1.867 -0.9525 -0.0036  1.1894
17592TIP3   OH274190   2.893   0.471  14.516  0.6350 -0.7289  0.6164
17592TIP3    H174191   2.924   0.548  14.469  3.3041 -1.4891  1.0086
17592TIP3    H274192   2.950   0.400  14.485 -0.2580 -2.0685  1.9643
17593TIP3   OH274193   0.216   5.293   4.414 -0.1818 -0.0488  0.2135
17593TIP3    H174194   0.305   5.308   4.380  0.0152  1.0961  1.2257
17593TIP3    H274195   0.225   5.215   4.469  0.3908  0.5773  1.0205
17594TIP3   OH274196   4.413   2.560   5.165  0.1533  0.1813 -0.0233
17594TIP3    H174197   4.369   2.626   5.112 -0.9801 -0.6754 -0.1909
17594TIP3    H274198   4.360   2.481   5.152 -0.0401 -0.0806  2.2517
17595TIP3   OH274199   2.327   6.425  13.065  0.3107  0.0183  0.1099
17595TIP3    H174200   2.355   6.360  13.002 -0.2289  0.8138 -0.9641
17595TIP3    H274201   2.266   6.378  13.123  0.0248 -0.4649 -0.5781
17596TIP3   OH274202   6.124   3.846   4.155 -0.1850  0.0305  0.2501
17596TIP3    H174203   6.140   3.839   4.249 -0.4111 -3.0765  0.0969
17596TIP3    H274204   6.029   3.838   4.146 -0.3937  2.5795 -0.0882
17597TIP3   OH274205   6.177   0.828   3.250  0.9625 -0.4408 -0.9014
17597TIP3    H174206   6.216   0.914   3.261  1.6441 -0.6294 -1.7229
17597TIP3    H274207   6.109   0.840   3.184 -0.5771 -0.0550  0.7412
17598TIP3   OH274208   4.596   2.759  11.662 -0.7038  0.0100 -0.3239
17598TIP3    H174209   4.515   2.794  11.626 -2.1340 -0.2320  2.5248
17598TIP3    H274210   4.568   2.705  11.736  2.1105  0.8114  1.3978
17599TIP3   OH274211   6.499   5.387   3.697 -0.9673  0.7346  0.1643
17599TIP3    H174212   6.406   5.393   3.672 -0.4653  2.3380 -1.3934
17599TIP3    H274213   6.540   5.343   3.622 -0.8054 -2.0649  1.8144
17600TIP3   OH274214   3.805   4.402   0.022 -0.1819  0.8360  0.0097
17600TIP3    H174215   3.844   4.389   0.108 -0.4707  0.0733  0.0343
17600TIP3    H274216   3.753   4.322   0.007 -0.6677  1.2537 -0.5780
17601TIP3   OH274217   1.463   0.586   1.662  0.5930  0.1320  0.3768
17601TIP3    H174218   1.462   0.544   1.577 -2.1637  0.3305  0.2878
17601TIP3    H274219   1.460   0.680   1.642 -0.5459  0.1645  0.6970
17602TIP3   OH274220   4.557   2.744   0.388  0.5628 -0.2513 -0.7651
17602TIP3    H174221   4.495   2.787   0.329 -1.3309  0.1179  1.4251
17602TIP3    H274222   4.563   2.654   0.356  1.0137  0.4303 -2.6303
17603TIP3   OH274223   2.578   5.143   0.775 -0.3981 -0.6594 -0.0505
17603TIP3    H174224   2.652   5.189   0.814 -0.8413  0.3971 -0.4507
17603TIP3    H274225   2.501   5.184   0.814 -0.7844 -1.6353  0.2310
17604TIP3   OH274226   0.244   4.581  11.291 -0.2063  0.3801  0.0255
17604TIP3    H174227   0.215   4.610  11.378 -0.6952  0.8121 -0.2786
17604TIP3    H274228   0.296   4.503  11.308  0.3870  0.9347  0.7814
17605TIP3   OH274229   2.607   0.235  15.236  0.4740  0.1352  0.0366
17605TIP3    H174230   2.680   0.206  15.182 -1.4322 -0.8705 -2.1041
17605TIP3    H274231   2.554   0.289  15.176 -0.8927  0.2698  1.3432
17606TIP3   OH274232   1.821   4.371   6.402 -0.1666 -0.2443 -0.3351
17606TIP3    H174233   1.808   4.281   6.429  0.8839 -0.3742 -0.2370
17606TIP3    H274234   1.894   4.402   6.456 -3.2293  2.0091  2.7342
17607TIP3   OH274235   1.319   4.266   4.212  0.0551 -0.0722 -0.1866
17607TIP3    H174236   1.230   4.300   4.210  0.5800  1.4654  1.2989
17607TIP3    H274237   1.316   4.193   4.274 -0.3945 -0.7044 -0.9527
17608TIP3   OH274238   0.553   3.527  13.682 -0.2905  0.3756 -0.6815
17608TIP3    H174239   0.598   3.464  13.627  0.3988  1.4703 -1.3841
17608TIP3    H274240   0.500   3.578  13.621 -2.7585 -1.0847  0.1563
17609TIP3   OH274241   2.252   2.823   5.371  0.0843  0.2268 -0.2848
17609TIP3    H174242   2.282   2.789   5.455 -1.2413  0.8120  0.4470
17609TIP3    H274243   2.313   2.788   5.307 -0.9692 -3.1557  0.4873
17610TIP3   OH274244   3.951   5.232  12.485 -0.2867 -0.1950  0.1813
17610TIP3    H174245   4.007   5.253  12.410 -1.5164 -0.6099 -0.8694
17610TIP3    H274246   4.012   5.210  12.555  0.8849  0.6113 -0.5735
17611TIP3   OH274247   5.121   2.377  12.264  0.6277 -0.0017 -0.0624
17611TIP3    H174248   5.091   2.287  12.278 -1.2887  0.4807 -0.9802
17611TIP3    H274249   5.151   2.378  12.173  2.0361 -0.0884  0.3953
17612TIP3   OH274250   2.610   0.344   0.819  0.0819  0.1592  0.3251
17612TIP3    H174251   2.640   0.388   0.899 -0.4900  0.8299  0.1745
17612TIP3    H274252   2.652   0.393   0.748  2.0820 -1.5863  0.2676
17613TIP3   OH274253   0.853   4.479  12.889  0.4142  0.8593  0.2615
17613TIP3    H174254   0.763   4.447  12.898  1.0357 -0.5657  1.7476
17613TIP3    H274255   0.873   4.518  12.974  2.3954 -2.0809  1.2246
17614TIP3   OH274256   2.128   2.676   0.722 -0.2267 -0.3830 -0.0946
17614TIP3    H174257   2.044   2.642   0.755  0.0093 -1.0698 -0.1964
17614TIP3    H274258   2.184   2.679   0.800 -0.5794  0.8201  0.1251
17615TIP3   OH274259   0.283   0.610  16.042 -0.2921 -0.0801  0.0630
17615TIP3    H174260   0.370   0.616  16.082 -1.2739 -0.6374  2.3365
17615TIP3    H274261   0.236   0.686  16.075 -1.1504 -0.6007  0.0516
17616TIP3   OH274262   1.499   6.184  12.459 -0.0935  0.1768  0.3025
17616TIP3    H174263   1.447   6.250  12.415 -1.3753 -0.5854  0.6367
17616TIP3    H274264   1.513   6.116  12.393  0.4723  0.3721  0.2174
17617TIP3   OH274265   4.660   0.842   5.233  0.6019 -0.2361 -0.6734
17617TIP3    H174266   4.596   0.798   5.290  1.2569  0.6347  0.7765
17617TIP3    H274267   4.627   0.828   5.145 -0.5493 -1.4745 -0.0729
17618TIP3   OH274268   4.146   6.702   0.466 -0.3690  0.2856 -0.6395
17618TIP3    H174269   4.175   6.646   0.538 -1.1412  1.4023  0.5742
17618TIP3    H274270   4.167   6.791   0.495  3.7552  0.5214 -3.8970
17619TIP3   OH274271   5.058   2.121  16.630 -0.6038  0.6567 -0.5858
17619TIP3    H174272   5.045   2.208  16.592 -1.1297  0.6192 -0.4904
17619TIP3    H274273   4.988   2.068  16.592 -0.8093  0.4866  0.0276
17620TIP3   OH274274   2.698   4.212  12.691  0.2732  0.4402  0.4271
17620TIP3    H174275   2.793   4.204  12.690  0.3182  0.6298  2.0896
17620TIP3    H274276   2.681   4.304  12.672  0.4905  0.7698  1.7933
17621TIP3   OH274277   3.936   5.513   2.267  0.1637 -0.0588  0.5312
17621TIP3    H174278   3.987   5.445   2.310 -0.2202 -1.5214 -1.2885
17621TIP3    H274279   4.000   5.561   2.214 -0.1605 -1.3250 -1.0422
17622TIP3   OH274280   4.375   1.936   2.200 -0.3398  0.3757  0.7508
17622TIP3    H174281   4.320   1.858   2.201  2.3921 -1.6786 -1.3606
17622TIP3    H274282   4.465   1.903   2.198  0.9583  3.5978  1.4413
17623TIP3   OH274283   0.501   5.337   1.034  0.4121  0.5021  0.5644
17623TIP3    H174284   0.475   5.347   1.126 -0.5834 -2.6306  0.6718
17623TIP3    H274285   0.593   5.310   1.038  0.1956 -0.2302  0.6777
17624TIP3   OH274286   2.157   4.959   5.386  0.2277  0.2015  0.1505
17624TIP3    H174287   2.216   4.899   5.432 -1.7609  0.3975  3.1037
17624TIP3    H274288   2.213   5.033   5.362  1.4561 -0.0781  2.0074
17625TIP3   OH274289   5.867   2.911   3.593  0.4420  0.4578 -0.3878
17625TIP3    H174290   5.854   2.831   3.644  1.3280 -1.4851 -3.1207
17625TIP3    H274291   5.962   2.920   3.585  0.5959  4.2343  3.5058
17626TIP3   OH274292   4.941   3.568  13.284  0.1807  0.2495 -0.6441
17626TIP3    H174293   4.964   3.656  13.313 -1.1158  0.5027 -0.3804
17626TIP3    H274294   4.891   3.531  13.356  1.0126 -0.8457 -0.6108
17627TIP3   OH274295   6.082   2.593  12.368 -0.4958 -0.2146 -0.0048
17627TIP3    H174296   6.154   2.536  12.393 -0.9740 -0.8957 -0.1542
17627TIP3    H274297   6.079   2.589  12.273 -0.7739 -0.2382  0.0028
17628TIP3   OH274298   4.469   0.459  12.516 -0.4742 -0.1132  0.2262
17628TIP3    H174299   4.490   0.369  12.492 -1.6205 -0.2539 -0.3012
17628TIP3    H274300   4.430   0.452  12.603  0.6569  0.0357  0.7606
17629TIP3   OH274301   4.819   3.719   3.493  0.0577 -0.6254 -0.3921
17629TIP3    H174302   4.788   3.660   3.424  0.3678  1.5124 -2.4005
17629TIP3    H274303   4.905   3.748   3.464  0.8126 -0.7560  1.5898
17630TIP3   OH274304   4.351   1.967  15.115  0.1660 -0.2587 -0.5707
17630TIP3    H174305   4.445   1.986  15.115  0.0612  0.3140  0.0242
17630TIP3    H274306   4.310   2.051  15.092 -0.2033 -0.4404 -0.5710
17631TIP3   OH274307   2.359   3.494   5.117 -0.0260  0.6101 -0.5134
17631TIP3    H174308   2.360   3.588   5.101 -3.3614  0.6323 -1.0085
17631TIP3    H274309   2.368   3.486   5.212  0.1816  1.4473 -0.4618
17632TIP3   OH274310   0.766   2.546  11.402 -0.4617 -0.3308 -0.3613
17632TIP3    H174311   0.738   2.521  11.314 -1.0202  0.4411 -0.4078
17632TIP3    H274312   0.733   2.476  11.459 -1.4675 -0.0299 -0.5680
17633TIP3   OH274313   3.186   1.909  11.172 -0.0289  0.0394 -0.4457
17633TIP3    H174314   3.260   1.958  11.136  0.1604  0.8033  0.9400
17633TIP3    H274315   3.114   1.971  11.173 -0.6359 -0.6261 -1.5357
17634TIP3   OH274316   3.945   4.882  16.715 -0.1380 -0.6210  0.4178
17634TIP3    H174317   3.926   4.839  16.798  1.2033 -2.7368 -0.3029
17634TIP3    H274318   4.010   4.825  16.673 -1.2892  0.0193 -2.3753
17635TIP3   OH274319   4.716   3.560   0.544 -0.9992  0.3008 -0.2689
17635TIP3    H174320   4.738   3.638   0.595  1.1951 -0.8861  0.6425
17635TIP3    H274321   4.636   3.527   0.585 -0.6660  0.7790  0.7913
17636TIP3   OH274322   2.753   6.360  16.312 -0.1216  0.1925 -0.4168
17636TIP3    H174323   2.817   6.321  16.253 -0.6765 -1.4384  0.0257
17636TIP3    H274324   2.669   6.346  16.268 -0.2574  1.5520 -0.5942
17637TIP3   OH274325   1.188   2.122   3.653  0.1976  0.4968 -0.1324
17637TIP3    H174326   1.102   2.090   3.625  0.1956 -1.5041  1.9135
17637TIP3    H274327   1.251   2.075   3.598  0.0880 -1.3247  1.2160
17638TIP3   OH274328   0.787   2.662   6.433  0.5017  0.1923 -0.2296
17638TIP3    H174329   0.724   2.590   6.426  1.2176 -0.4605 -0.0359
17638TIP3    H274330   0.733   2.741   6.427 -0.2815 -0.3526 -0.5559
17639TIP3   OH274331   3.634   6.662  17.202  0.3827 -0.2463 -0.1636
17639TIP3    H174332   3.556   6.708  17.169  0.9484 -0.5648 -2.0033
17639TIP3    H274333   3.601   6.579  17.235 -0.4337  0.8008  1.7074
17640TIP3   OH274334   3.926   6.150   2.655 -0.5383  0.2634 -0.2076
17640TIP3    H174335   3.992   6.083   2.673 -0.4924  0.4851  0.4758
17640TIP3    H274336   3.905   6.140   2.562  1.4669  1.0889 -0.7798
17641TIP3   OH274337   2.397   3.460  11.118 -0.2512  0.2517 -0.5770
17641TIP3    H174338   2.337   3.396  11.080  0.8527 -0.9639 -0.2973
17641TIP3    H274339   2.443   3.499  11.043 -2.5644  2.4185 -0.9300
17642TIP3   OH274340   1.849   1.318   1.088 -0.8330  0.1078  0.4648
17642TIP3    H174341   1.853   1.414   1.092  0.7107 -0.0105  3.2715
17642TIP3    H274342   1.902   1.295   1.011  3.1128  1.3948  2.6262
17643TIP3   OH274343   2.476   2.894  13.227 -0.3155  0.9024 -0.3485
17643TIP3    H174344   2.563   2.860  13.244 -0.0808  1.2680 -0.7944
17643TIP3    H274345   2.488   2.989  13.221 -0.5135  0.8502 -1.7643
17644TIP3   OH274346   5.951   3.579  12.457  0.3809 -0.8870 -0.0476
17644TIP3    H174347   5.976   3.500  12.410 -0.2689  0.6655 -3.1794
17644TIP3    H274348   5.989   3.650  12.405  1.0735  0.8734  2.7666
17645TIP3   OH274349   5.229   2.226   0.497  0.0836  0.4010  0.7331
17645TIP3    H174350   5.313   2.220   0.452 -0.9474  2.1524 -1.5480
17645TIP3    H274351   5.175   2.158   0.456 -0.3032  0.8200  0.5350
17646TIP3   OH274352   5.119   0.323  17.189  0.1752  0.2018  0.0315
17646TIP3    H174353   5.045   0.383  17.195  0.2819  0.3083  0.3123
17646TIP3    H274354   5.083   0.245  17.146 -0.7007 -0.6597  2.2408
17647TIP3   OH274355   2.017   5.100  13.096 -0.3455  0.6372 -0.1842
17647TIP3    H174356   2.048   5.127  13.010 -1.2973 -0.0431 -0.7433
17647TIP3    H274357   2.082   5.036  13.126  0.1252  1.0702 -0.2860
17648TIP3   OH274358   3.234   4.920   5.641 -0.1667 -0.6092 -0.0412
17648TIP3    H174359   3.247   4.883   5.554  0.5030 -0.6169  0.0558
17648TIP3    H274360   3.296   4.872   5.697  0.1556  0.1223  0.2337
17649TIP3   OH274361   0.223   1.348   3.495 -0.6624  0.0551 -0.1318
17649TIP3    H174362   0.183   1.432   3.518 -0.5005  0.0691  0.0998
17649TIP3    H274363   0.316   1.360   3.513 -0.2388  0.6970 -2.5950
17650TIP3   OH274364   3.192   2.806  10.575  0.2052 -0.1537 -0.0097
17650TIP3    H174365   3.174   2.846  10.660  2.1903 -0.6094  0.6281
17650TIP3    H274366   3.279   2.836  10.551 -0.4486  0.2278 -2.0518
17651TIP3   OH274367   0.311   5.240   3.409 -0.1551  0.1261  0.2073
17651TIP3    H174368   0.383   5.186   3.376  1.1079  1.6677  0.3574
17651TIP3    H274369   0.354   5.318   3.445 -1.9295  1.2345 -0.0016
17652TIP3   OH274370   0.735   5.233   6.172 -0.0431  0.2783 -0.1637
17652TIP3    H174371   0.795   5.202   6.104 -2.4314 -1.0310 -1.7530
17652TIP3    H274372   0.738   5.165   6.239  1.5441  1.0704  0.5890
17653TIP3   OH274373   6.553   5.542  16.587 -0.7330  0.3467  0.4428
17653TIP3    H174374   6.470   5.501  16.567 -0.1710 -0.5315 -0.1129
17653TIP3    H274375   6.546   5.567  16.679 -1.7433  0.6350  0.3002
17654TIP3   OH274376   2.173   4.990  15.308 -0.5355  0.0356 -0.3076
17654TIP3    H174377   2.111   4.945  15.251  0.1720 -0.8710 -0.3629
17654TIP3    H274378   2.250   4.934  15.310 -0.3595  0.3067  1.1347
17655TIP3   OH274379   4.508   0.732  12.456 -0.2164 -0.3354  0.0441
17655TIP3    H174380   4.436   0.769  12.403 -1.2215 -1.5578  0.5205
17655TIP3    H274381   4.491   0.638  12.456  0.7183 -0.5124  1.1678
17656TIP3   OH274382   5.115   2.881   0.353  0.3417  0.0621 -0.1303
17656TIP3    H174383   5.065   2.913   0.278  1.0628 -0.7869 -0.9686
17656TIP3    H274384   5.097   2.787   0.356 -1.7993  0.4640  2.3562
17657TIP3   OH274385   0.775   6.182  12.863 -0.5174  0.3655 -0.3951
17657TIP3    H174386   0.690   6.227  12.862 -0.4032  0.5769 -0.7610
17657TIP3    H274387   0.819   6.213  12.784  0.2077  0.8271  0.1833
17658TIP3   OH274388   6.634   1.068   1.850  0.2943  0.5212  0.0260
17658TIP3    H174389   6.638   1.081   1.945  1.0049 -2.0544  0.3954
17658TIP3    H274390   6.723   1.089   1.820 -0.3172  2.8042 -0.3324
17659TIP3   OH274391   2.523   1.026   5.487 -0.2930 -0.5549  0.6617
17659TIP3    H174392   2.609   1.008   5.450 -0.4120 -1.8679  0.9972
17659TIP3    H274393   2.464   1.026   5.411  0.1637  1.6195  0.2694
17660TIP3   OH274394   5.526   2.869  11.855  0.4775 -0.0093 -0.0663
17660TIP3    H174395   5.469   2.863  11.778  3.1058 -0.5330 -2.0466
17660TIP3    H274396   5.473   2.833  11.926 -1.6495 -0.4997 -1.8224
17661TIP3   OH274397   0.421   6.575   2.646  0.1878  0.0894  0.3439
17661TIP3    H174398   0.495   6.531   2.605  0.0739 -0.3230  0.5781
17661TIP3    H274399   0.461   6.633   2.712  0.3780  0.8395 -0.4133
17662TIP3   OH274400   2.770   3.114  15.911 -0.5342  0.2921  0.8561
17662TIP3    H174401   2.777   3.020  15.894 -0.1957  0.4615  0.0470
17662TIP3    H274402   2.844   3.133  15.969 -0.5266  0.0875  0.9168
17663TIP3   OH274403   4.638   3.427   3.641 -0.8446 -0.1167 -0.4032
17663TIP3    H174404   4.732   3.443   3.637 -0.6196 -0.4755  2.6461
17663TIP3    H274405   4.618   3.423   3.734 -4.0325  0.8141 -0.9831
17664TIP3   OH274406   0.798   6.787  16.666  0.0445 -0.2916 -0.1818
17664TIP3    H174407   0.870   6.848  16.683  1.4003 -1.0314 -2.8875
17664TIP3    H274408   0.790   6.736  16.747  0.7778  1.5670  1.0961
17665TIP3   OH274409   0.116   2.483   3.067  0.0710  0.1590 -0.2485
17665TIP3    H174410   0.028   2.521   3.069  0.5371  1.1976  1.3593
17665TIP3    H274411   0.116   2.417   3.136  0.4785 -0.0026 -0.3976
17666TIP3   OH274412   1.896   4.029  13.501 -0.2301 -0.1328 -0.3164
17666TIP3    H174413   1.886   3.943  13.540 -1.3902 -0.9696 -2.3775
17666TIP3    H274414   1.812   4.073  13.517 -0.0145  0.2391 -0.1813
17667TIP3   OH274415   3.002   2.811  16.168  0.0860 -0.3019  0.0499
17667TIP3    H174416   2.942   2.882  16.189 -1.3832 -0.9107 -1.9378
17667TIP3    H274417   3.086   2.853  16.151 -0.7201  0.9370 -0.8943
17668TIP3   OH274418   3.748   5.505   1.051  0.4214 -0.5182  0.4381
17668TIP3    H174419   3.680   5.567   1.078  0.8905  0.7298 -1.1708
17668TIP3    H274420   3.821   5.522   1.110  1.1609  1.6559 -1.0540
17669TIP3   OH274421   1.964   3.781   0.749  0.2543  0.2063 -0.2838
17669TIP3    H174422   2.034   3.808   0.690 -0.4689  1.4558 -0.5914
17669TIP3    H274423   1.994   3.698   0.787  1.5732  0.3809 -0.9431
17670TIP3   OH274424   5.261   4.576   0.729 -0.1320 -0.6868 -0.1845
17670TIP3    H174425   5.324   4.529   0.674 -1.9377 -3.0253 -0.3026
17670TIP3    H274426   5.290   4.559   0.818 -0.8711 -2.1847 -0.2213
17671TIP3   OH274427   0.017   1.422  11.934 -0.0799  0.5413  0.6752
17671TIP3    H174428  -0.061   1.448  11.983  0.1278 -0.5654  1.5957
17671TIP3    H274429   0.055   1.351  11.985 -0.3204 -1.1980 -1.5098
17672TIP3   OH274430   0.032   2.896  12.027  0.9019 -0.0328 -0.3741
17672TIP3    H174431  -0.002   2.810  12.054  1.0103 -0.0385 -0.2532
17672TIP3    H274432  -0.027   2.959  12.068  0.5500 -0.0573 -0.8363
17673TIP3   OH274433   1.389   3.642   6.348  0.3705 -0.2529  0.1499
17673TIP3    H174434   1.330   3.568   6.333 -0.5271 -0.4788  4.1391
17673TIP3    H274435   1.477   3.605   6.338 -0.0901 -1.4560  0.4690
17674TIP3   OH274436   1.526   2.258   4.258  0.6619 -0.3249  0.7484
17674TIP3    H174437   1.521   2.352   4.274  2.2317  0.2525 -1.8610
17674TIP3    H274438   1.619   2.240   4.247  0.3326 -2.0684  0.5929
17675TIP3   OH274439   0.805   3.589   2.283  0.4436 -0.1189 -0.2518
17675TIP3    H174440   0.769   3.596   2.194 -1.1307 -0.3844  0.3357
17675TIP3    H274441   0.809   3.680   2.315  1.4925  0.0232 -0.7628
17676TIP3   OH274442   6.355   6.743   0.052  0.6372 -0.0267  0.2003
17676TIP3    H174443   6.381   6.806   0.119 -0.4790  0.0095  0.6027
17676TIP3    H274444   6.348   6.660   0.099 -0.1626  0.0022  0.1411
17677TIP3   OH274445   3.661   3.244  16.810  0.3032 -0.1397  0.0824
17677TIP3    H174446   3.683   3.166  16.861 -0.7079 -1.4974 -1.5157
17677TIP3    H274447   3.600   3.213  16.742 -0.2534  2.0609 -0.4801
17678TIP3   OH274448   1.091   5.251  12.773  0.6327  0.0299 -0.1251
17678TIP3    H174449   1.039   5.271  12.695  2.7786  1.4149 -1.2376
17678TIP3    H274450   1.057   5.310  12.841  1.8306  2.0920 -1.2959
17679TIP3   OH274451   1.837   4.395   2.766 -0.6427  0.0980  0.0869
17679TIP3    H174452   1.914   4.383   2.710 -0.8716  0.5023 -0.3286
17679TIP3    H274453   1.860   4.469   2.823 -1.0381  0.7807 -0.6209
17680TIP3   OH274454   2.571   0.277   0.111  0.1857 -0.9806  0.3568
17680TIP3    H174455   2.655   0.264   0.066  0.2804  1.8608 -0.3738
17680TIP3    H274456   2.507   0.283   0.041 -0.2772 -0.6418  0.8072
17681TIP3   OH274457   6.128   6.089  14.637  0.3875  0.5218 -0.3033
17681TIP3    H174458   6.070   6.016  14.656 -1.3858  1.8371 -0.4686
17681TIP3    H274459   6.142   6.132  14.721  0.9881  0.2961 -0.2879
17682TIP3   OH274460   1.633   5.830  11.932  0.2831  0.0630  0.0266
17682TIP3    H174461   1.664   5.896  11.870  1.0566  0.4825  0.8379
17682TIP3    H274462   1.584   5.880  11.998 -0.6499 -0.3920 -0.3150
17683TIP3   OH274463   0.503   3.697  13.116  0.3572 -0.2104 -0.3655
17683TIP3    H174464   0.444   3.697  13.192  2.0264 -0.4412  0.9752
17683TIP3    H274465   0.590   3.699  13.155  1.2930 -2.5344 -2.2731
17684TIP3   OH274466   3.716   6.568  15.179 -0.4278  0.7126  0.3277
17684TIP3    H174467   3.727   6.560  15.273  0.4432 -2.4946  0.0206
17684TIP3    H274468   3.623   6.552  15.164 -0.2844 -0.3738  0.5362
17685TIP3   OH274469   2.680   4.081   2.859  0.3927 -0.0204  0.0411
17685TIP3    H174470   2.767   4.052   2.887  0.6177 -0.1081 -0.7454
17685TIP3    H274471   2.689   4.175   2.848 -0.3301  0.3979  2.5663
17686TIP3   OH274472   6.074   2.278  14.476 -0.4181  0.3805 -0.0778
17686TIP3    H174473   6.067   2.188  14.507 -0.9966  0.3292 -0.3431
17686TIP3    H274474   6.045   2.332  14.549 -0.3682  0.3348 -0.0246
17687TIP3   OH274475   3.178   4.890   3.839 -0.0993 -0.1018  0.8579
17687TIP3    H174476   3.213   4.965   3.887  0.8072 -1.3942  2.2139
17687TIP3    H274477   3.246   4.867   3.776 -1.2437  1.5248 -1.0313
17688TIP3   OH274478   5.974   3.304  15.171  0.2130  0.1596  0.0286
17688TIP3    H174479   5.971   3.233  15.234  2.2423 -0.3912 -0.4722
17688TIP3    H274480   5.980   3.383  15.224 -1.1676 -0.0922  0.5730
17689TIP3   OH274481   5.606   1.015   1.164 -0.6213  0.1737  0.3926
17689TIP3    H174482   5.626   0.927   1.198  2.1484  0.4159 -0.4981
17689TIP3    H274483   5.609   1.005   1.069 -0.6920  1.1559  0.2814
17690TIP3   OH274484   5.562   6.226  14.598 -0.8379 -0.0203  0.1005
17690TIP3    H174485   5.536   6.163  14.665 -0.3287 -0.9170 -0.5352
17690TIP3    H274486   5.612   6.292  14.646 -0.9833 -0.3371  0.6984
17691TIP3   OH274487   1.724   2.802  16.206  0.2607 -0.1342  0.3134
17691TIP3    H174488   1.655   2.830  16.146  0.6056 -1.2787 -0.6537
17691TIP3    H274489   1.711   2.855  16.285 -1.3256  0.1224 -0.0903
17692TIP3   OH274490   0.949   0.990   5.529 -0.2891  0.5032  0.5078
17692TIP3    H174491   0.986   1.057   5.472 -1.5748  0.0807 -0.8503
17692TIP3    H274492   1.018   0.924   5.538  1.1632  2.1999  2.2416
17693TIP3   OH274493   2.409   6.421   0.427 -0.4397  0.1593 -0.7392
17693TIP3    H174494   2.369   6.359   0.366 -1.3884 -0.6587  0.6794
17693TIP3    H274495   2.358   6.501   0.416  0.2455  0.4415 -1.9637
17694TIP3   OH274496   4.659   4.437   1.029 -0.5634  0.4741  0.0816
17694TIP3    H174497   4.641   4.513   1.084 -2.0706  0.4497 -0.3641
17694TIP3    H274498   4.637   4.465   0.940 -0.3067 -0.2082 -0.2034
17695TIP3   OH274499   4.441   1.547   4.562 -0.1229  0.0940 -0.6247
17695TIP3    H174500   4.476   1.636   4.556 -0.7409  0.5487  2.0791
17695TIP3    H274501   4.356   1.553   4.518 -0.3240  0.9447 -0.1448
17696TIP3   OH274502   1.972   5.834   0.684 -0.0031 -0.4690 -0.1929
17696TIP3    H174503   2.005   5.854   0.596  0.5324 -2.2528 -0.4114
17696TIP3    H274504   1.878   5.822   0.672 -0.2065  0.9718 -0.2037
17697TIP3   OH274505   1.194   6.745  15.471 -0.4484  0.3567  0.3980
17697TIP3    H174506   1.187   6.821  15.413 -0.7946 -0.0144 -0.0550
17697TIP3    H274507   1.132   6.763  15.541 -0.1968  0.7022  0.5322
17698TIP3   OH274508   6.537   5.722   0.385 -0.2550  0.1396 -0.1416
17698TIP3    H174509   6.453   5.766   0.398  0.8113  2.8712 -2.1362
17698TIP3    H274510   6.521   5.664   0.310 -0.2746  0.8605 -0.6949
17699TIP3   OH274511   1.072   2.889   6.370  0.1772 -0.1697 -0.6823
17699TIP3    H174512   1.007   2.960   6.371 -0.5362 -0.8089 -1.0016
17699TIP3    H274513   1.128   2.906   6.446 -0.5376  0.2332 -0.2387
17700TIP3   OH274514   6.589   5.814  15.681 -0.4519  0.0359  0.0518
17700TIP3    H174515   6.583   5.905  15.652 -1.4601 -0.8319 -2.5522
17700TIP3    H274516   6.667   5.812  15.737  0.9866  1.9683 -1.8190
17701TIP3   OH274517   5.512   2.802   1.821  0.8647 -0.1188  0.0541
17701TIP3    H174518   5.455   2.846   1.759 -0.1206 -1.0912  0.2438
17701TIP3    H274519   5.505   2.854   1.901 -1.4935 -1.3974  0.7568
17702TIP3   OH274520   2.246   1.560   4.601  0.1336 -0.4266  0.2287
17702TIP3    H174521   2.297   1.489   4.561 -0.0669  0.4889 -1.7341
17702TIP3    H274522   2.306   1.601   4.663  0.8519 -1.1512  0.0268
17703TIP3   OH274523   5.191   5.209  17.175  0.1641  0.2605  0.7034
17703TIP3    H174524   5.255   5.142  17.149  0.5518  0.4783  1.0945
17703TIP3    H274525   5.140   5.225  17.096  1.1849  0.7478  0.1400
17704TIP3   OH274526   2.725   0.039  16.429  0.6505  0.8945 -0.2349
17704TIP3    H174527   2.763   0.115  16.471  2.5461  0.4702 -1.1366
17704TIP3    H274528   2.758  -0.036  16.479 -0.6131  0.6026  0.1962
17705TIP3   OH274529   3.795   1.674   1.799  0.6115 -0.5789  0.5977
17705TIP3    H174530   3.825   1.764   1.791 -0.1787 -0.4991 -1.5631
17705TIP3    H274531   3.699   1.680   1.795  0.5355 -1.4759  0.9531
17706TIP3   OH274532   6.481   0.173  15.981 -0.4768  0.3510  0.0303
17706TIP3    H174533   6.410   0.223  15.940  1.3890  2.6162 -0.5889
17706TIP3    H274534   6.549   0.169  15.914  0.8307  0.1079  1.3436
17707TIP3   OH274535   4.290   1.262   2.951 -0.0368 -0.0926  0.0070
17707TIP3    H174536   4.199   1.276   2.925  0.2917 -0.1523 -1.2276
17707TIP3    H274537   4.337   1.255   2.868  1.2158  0.7366  0.6377
17708TIP3   OH274538   0.973   5.635   0.961  0.3531  0.1519 -0.1013
17708TIP3    H174539   0.990   5.578   0.886  3.5245 -1.0815  1.4329
17708TIP3    H274540   1.057   5.637   1.008 -1.7254  0.3222  3.7761
17709TIP3   OH274541   4.696   5.546  11.665 -0.0837  0.7760 -0.0985
17709TIP3    H174542   4.630   5.479  11.685  1.1817 -0.4911 -0.0242
17709TIP3    H274543   4.728   5.522  11.578 -0.2812  1.8568 -0.4768
17710TIP3   OH274544   1.224   0.844   3.475  0.1872 -0.7166  0.1410
17710TIP3    H174545   1.309   0.887   3.467  0.1734 -0.6696  0.2531
17710TIP3    H274546   1.232   0.789   3.552 -1.6390  3.3673  3.4733
17711TIP3   OH274547   2.463   1.421   5.489  0.1740 -0.0178  0.3223
17711TIP3    H174548   2.554   1.424   5.519  0.9123 -1.3228 -1.6316
17711TIP3    H274549   2.411   1.409   5.568  1.8399 -0.9320  1.2939
17712TIP3   OH274550   4.432   4.147  16.883 -0.1347 -0.0901 -0.6842
17712TIP3    H174551   4.489   4.123  16.956 -0.1577  1.3689 -0.1803
17712TIP3    H274552   4.355   4.090  16.894  0.0872 -0.2420  0.1350
17713TIP3   OH274553   5.491   3.020  14.299 -0.1936  0.2938 -0.0269
17713TIP3    H174554   5.503   3.081  14.226  2.0359  1.8117  1.5471
17713TIP3    H274555   5.396   3.008  14.304 -0.5846  2.6324 -1.1858
17714TIP3   OH274556   0.157   1.738  13.849  0.3851  0.1560  0.2401
17714TIP3    H174557   0.160   1.775  13.937  1.2211  0.1844  0.1966
17714TIP3    H274558   0.233   1.681  13.844  0.1765 -0.0731 -0.3712
17715TIP3   OH274559   6.755   1.901  12.195 -0.5536 -0.2907  0.3540
17715TIP3    H174560   6.846   1.876  12.211 -0.1160  1.8510  1.4178
17715TIP3    H274561   6.748   1.989  12.233 -3.1774 -0.6034  0.6529
17716TIP3   OH274562   2.609   0.411  14.042  0.0015 -0.0717  0.1642
17716TIP3    H174563   2.541   0.387  13.978  0.0869 -0.0048  0.0470
17716TIP3    H274564   2.564   0.408  14.126  0.1349 -1.0810  0.1965
17717TIP3   OH274565   0.867   2.899  10.542 -0.1661 -0.6654  0.6957
17717TIP3    H174566   0.941   2.927  10.596 -0.3664  1.7009 -0.1946
17717TIP3    H274567   0.790   2.912  10.597 -0.1369 -0.8948  0.7931
17718TIP3   OH274568   6.449   2.611   3.683  0.2251  0.0224 -0.2260
17718TIP3    H174569   6.481   2.661   3.608 -0.5366  0.4395 -0.2671
17718TIP3    H274570   6.356   2.632   3.689  0.5558  1.0302  1.6590
17719TIP3   OH274571   6.581   5.281   6.710  0.0845  0.4954 -0.1421
17719TIP3    H174572   6.527   5.360   6.719 -0.3990  0.1389  0.1440
17719TIP3    H274573   6.536   5.229   6.643 -0.7239 -0.4348  1.0888
17720TIP3   OH274574   5.377   0.385   5.483 -0.3408  0.3607  0.5720
17720TIP3    H174575   5.422   0.367   5.565  1.3342 -0.4985 -0.5104
17720TIP3    H274576   5.410   0.470   5.455  1.6811 -0.8433 -0.8747
17721TIP3   OH274577   0.414   5.325  17.196  0.2836  0.1735 -0.3102
17721TIP3    H174578   0.459   5.246  17.167  0.8025  0.7616 -1.1069
17721TIP3    H274579   0.422   5.386  17.123 -2.1300  0.1576 -0.6169
17722TIP3   OH274580   0.125   6.329   0.709  0.4152 -0.3949 -0.1674
17722TIP3    H174581   0.059   6.286   0.654 -1.0646  2.0743 -0.3868
17722TIP3    H274582   0.196   6.350   0.649 -0.5729  1.0039 -0.8490
17723TIP3   OH274583   4.025   2.911   1.083  0.0875  0.1013  0.5471
17723TIP3    H174584   4.016   2.893   0.990  1.0045  0.7223  0.3333
17723TIP3    H274585   4.015   2.825   1.125 -3.3077  0.2167  0.1181
17724TIP3   OH274586   3.655   2.805   3.309  0.4222  0.0851  0.2147
17724TIP3    H174587   3.600   2.738   3.270  0.4527 -0.4038  1.0141
17724TIP3    H274588   3.601   2.884   3.309  0.0474 -0.1745  0.1778
17725TIP3   OH274589   0.005   1.566  10.845  0.1299  0.1966  0.0405
17725TIP3    H174590  -0.071   1.551  10.788 -0.6444  1.6330  0.6675
17725TIP3    H274591   0.018   1.661  10.842  1.5059  0.0218  0.4631
17726TIP3   OH274592   4.968   5.102   0.311  0.2534  0.5960  0.2545
17726TIP3    H174593   4.923   5.035   0.362  4.0250 -0.8659  1.8782
17726TIP3    H274594   5.032   5.052   0.259 -0.2346  2.5237 -2.3066
17727TIP3   OH274595   1.828   3.843   4.121  1.1139  0.1657  0.1877
17727TIP3    H174596   1.843   3.809   4.210 -1.3730 -0.7160  0.3301
17727TIP3    H274597   1.768   3.916   4.134  0.0279 -0.5321 -0.8220
17728TIP3   OH274598   1.548   2.313   5.959  0.5048  0.2433 -0.2113
17728TIP3    H174599   1.457   2.315   5.928 -0.4158 -2.3034  2.0945
17728TIP3    H274600   1.597   2.275   5.887 -0.1961  1.7382 -1.5223
17729TIP3   OH274601   5.001   6.611   2.958 -0.2941 -0.4947  0.3877
17729TIP3    H174602   5.046   6.688   2.924 -1.7011 -0.0039 -0.4325
17729TIP3    H274603   5.070   6.558   2.997  0.4770  1.9167  2.4149
17730TIP3   OH274604   0.096   6.426   5.971  0.3365  0.5214 -0.1375
17730TIP3    H174605   0.006   6.442   5.944 -0.3233 -0.2292  1.5156
17730TIP3    H274606   0.132   6.368   5.904 -0.6915  0.1299 -0.3601
17731TIP3   OH274607   0.135   1.676   2.455  0.3819  0.2106 -1.2717
17731TIP3    H174608   0.056   1.622   2.463  1.7381 -1.5654  0.5004
17731TIP3    H274609   0.105   1.765   2.474 -1.0866 -0.5355  0.0097
17732TIP3   OH274610   3.430   5.038   0.013 -0.3378 -0.1238  0.0170
17732TIP3    H174611   3.371   5.006   0.080  1.1110 -0.5878  1.0933
17732TIP3    H274612   3.373   5.073  -0.055 -1.8911 -2.3995  0.1135
17733TIP3   OH274613   0.129   3.239  11.612 -0.7238  0.3825 -0.4501
17733TIP3    H174614   0.148   3.297  11.686 -0.8892  0.4010 -0.4232
17733TIP3    H274615   0.076   3.292  11.552  1.5878  1.2020 -1.8087
17734TIP3   OH274616   0.309   1.289   1.962  0.5239  0.2406  0.0919
17734TIP3    H174617   0.313   1.312   2.055 -1.1311  0.7261  0.0627
17734TIP3    H274618   0.244   1.218   1.957 -3.0754  3.4157 -1.2180
17735TIP3   OH274619   3.392   5.926  13.522 -0.0695  0.0521  0.6904
17735TIP3    H174620   3.376   5.943  13.429 -2.2641 -0.5252  0.9396
17735TIP3    H274621   3.380   6.010  13.565  1.1717  0.3676  0.4335
17736TIP3   OH274622   2.499   6.192   6.083  0.4759  0.3783  0.5705
17736TIP3    H174623   2.500   6.288   6.084  2.9021  0.3841  0.8226
17736TIP3    H274624   2.471   6.169   5.995  1.6128  1.3445 -0.0572
17737TIP3   OH274625   4.520   2.887   4.537 -0.0785 -0.3776 -0.3574
17737TIP3    H174626   4.554   2.860   4.622 -1.8669 -0.8281  0.2505
17737TIP3    H274627   4.503   2.980   4.546  1.0227 -0.1429 -0.6783
17738TIP3   OH274628   0.259   2.008   0.029  0.2865 -0.5802 -0.2080
17738TIP3    H174629   0.342   2.055   0.025 -0.1791  0.3578  0.9930
17738TIP3    H274630   0.283   1.917   0.008  1.5191 -0.2170 -0.4459
17739TIP3   OH274631   6.460   3.944  17.150  0.1858  0.2111 -0.7759
17739TIP3    H174632   6.393   3.982  17.207  0.5611 -1.2321  0.6637
17739TIP3    H274633   6.537   3.934  17.206  1.0657  0.2408 -1.9544
17740TIP3   OH274634   2.794   1.074  17.189  0.4917  0.1633  0.1114
17740TIP3    H174635   2.747   1.022  17.123 -0.6388  0.3213  0.8001
17740TIP3    H274636   2.828   1.009  17.250 -1.9447  0.2669  1.6456
17741TIP3   OH274637   6.749   4.745   3.013 -0.9394  0.1386  0.4828
17741TIP3    H174638   6.822   4.805   2.999  0.0381 -1.1246  0.0380
17741TIP3    H274639   6.779   4.688   3.084 -1.4464 -0.4824  0.1978
17742TIP3   OH274640   0.434   4.974  13.280  0.0456 -0.4377 -0.0963
17742TIP3    H174641   0.475   4.933  13.356  1.4041 -0.5456 -0.8696
17742TIP3    H274642   0.503   5.028  13.242 -0.1131 -1.6901 -2.2052
17743TIP3   OH274643   6.223   0.934  13.162  0.8995 -0.3256 -0.0731
17743TIP3    H174644   6.286   0.919  13.091  2.4339  1.9224  0.7926
17743TIP3    H274645   6.208   1.028  13.161 -3.0977 -0.8789 -0.7581
17744TIP3   OH274646   4.915   6.447   3.843 -0.5062 -0.2279  0.1447
17744TIP3    H174647   4.941   6.357   3.827 -2.3716 -0.8018  0.2150
17744TIP3    H274648   4.865   6.472   3.765 -2.6716 -0.3211  1.4629
17745TIP3   OH274649   6.553   4.568   1.709  0.6499  0.2892  0.2853
17745TIP3    H174650   6.639   4.549   1.747  0.6337  3.2348  1.9297
17745TIP3    H274651   6.493   4.564   1.783 -0.6041 -1.3008 -0.7804
17746TIP3   OH274652   4.206   3.787   3.892 -0.4413 -0.1128  0.2136
17746TIP3    H174653   4.198   3.698   3.860  0.7100 -0.2129  0.1744
17746TIP3    H274654   4.121   3.827   3.876 -0.5772 -0.8330 -0.9005
17747TIP3   OH274655   6.574   4.397   4.601 -0.0131  0.0700  0.3974
17747TIP3    H174656   6.616   4.383   4.686  0.3799  0.3842  0.2551
17747TIP3    H274657   6.602   4.484   4.575 -0.2795  0.0424  0.0236
17748TIP3   OH274658   6.715   3.522   0.572  0.5712  0.3756  0.5418
17748TIP3    H174659   6.705   3.569   0.489 -1.1386  1.3761  1.2696
17748TIP3    H274660   6.691   3.432   0.553 -1.0321  0.8632  0.2048
17749TIP3   OH274661   0.210   4.649   4.217 -0.2659  0.1341  0.3256
17749TIP3    H174662   0.220   4.576   4.279 -1.5083  0.4817  0.9528
17749TIP3    H274663   0.271   4.629   4.146  0.0434 -1.0680  0.9160
17750TIP3   OH274664   3.127   5.032  11.644 -0.1716 -0.3672  0.1416
17750TIP3    H174665   3.051   5.073  11.685 -1.0340 -1.6752 -0.1344
17750TIP3    H274666   3.156   5.096  11.579 -0.7997  0.3001  0.5148
17751TIP3   OH274667   3.991   6.508  14.451  0.7164  0.2975  0.5453
17751TIP3    H174668   3.902   6.474  14.460  0.7815 -0.1198 -0.2553
17751TIP3    H274669   3.981   6.603  14.446  0.1990  0.1876 -0.7259
17752TIP3   OH274670   3.692   0.566   5.912  0.0389  0.9365  0.0014
17752TIP3    H174671   3.673   0.568   5.818 -0.6083  0.8961  0.1295
17752TIP3    H274672   3.780   0.603   5.920  1.0587 -1.2143 -0.8607
17753TIP3   OH274673   0.145   2.668   5.947  0.4214 -0.1391 -0.1051
17753TIP3    H174674   0.056   2.697   5.927  1.0845  2.3035  0.3796
17753TIP3    H274675   0.140   2.638   6.038  0.0517 -0.2351 -0.1550
17754TIP3   OH274676   0.088   1.912  16.356 -0.2601  0.0854 -0.2269
17754TIP3    H174677   0.005   1.902  16.310 -0.0300 -0.1061 -0.6071
17754TIP3    H274678   0.064   1.914  16.449 -0.7082  0.2796 -0.3482
17755TIP3   OH274679   3.192   5.496   0.705  0.1480 -0.3825  0.2213
17755TIP3    H174680   3.104   5.530   0.724  0.0607 -0.6649  0.3240
17755TIP3    H274681   3.241   5.572   0.675 -0.4885 -0.4589 -1.0331
17756TIP3   OH274682   4.409   5.263   6.173 -0.4574  0.2026 -0.2079
17756TIP3    H174683   4.366   5.191   6.127  0.3169 -1.4123  1.5576
17756TIP3    H274684   4.482   5.222   6.220 -0.4646  2.0113  1.4447
17757TIP3   OH274685   6.358   3.712  14.849  1.1592  0.1210  0.2409
17757TIP3    H174686   6.369   3.806  14.864  0.8616  0.4753 -1.6286
17757TIP3    H274687   6.264   3.697  14.861  1.0636  0.2368 -0.3416
17758TIP3   OH274688   3.623   2.886   2.501  0.3575  0.4458 -0.0861
17758TIP3    H174689   3.628   2.791   2.501 -1.2799  0.3442 -0.1632
17758TIP3    H274690   3.708   2.915   2.534  2.1643 -0.9635 -3.2826
17759TIP3   OH274691   4.590   2.232  13.417  0.3615 -0.4293  0.1192
17759TIP3    H174692   4.598   2.317  13.372  0.3479 -1.1781 -1.3454
17759TIP3    H274693   4.533   2.250  13.492  0.7184  0.9566  0.0740
17760TIP3   OH274694   4.426   4.181  11.334 -0.4139 -0.5080  0.0841
17760TIP3    H174695   4.404   4.099  11.377  0.0143 -0.6174  0.1029
17760TIP3    H274696   4.343   4.227  11.325 -0.7161 -1.1198 -0.2955
17761TIP3   OH274697   0.438   4.254   5.553 -0.1982  0.0579  0.2369
17761TIP3    H174698   0.461   4.206   5.473 -1.4558  0.0761 -0.1416
17761TIP3    H274699   0.355   4.298   5.532 -1.9912 -2.1294  2.4111
17762TIP3   OH274700   0.069   4.559   3.725 -0.0868 -0.4822 -0.6966
17762TIP3    H174701  -0.004   4.508   3.763  1.4205 -1.6786  0.6848
17762TIP3    H274702   0.109   4.500   3.662  0.4609 -0.2988 -0.5220
17763TIP3   OH274703   6.185   3.305   3.324 -0.3203  0.4407 -0.1357
17763TIP3    H174704   6.215   3.363   3.394  0.1346 -0.3807  0.3548
17763TIP3    H274705   6.259   3.299   3.264 -0.3558  0.3361 -0.1692
17764TIP3   OH274706   3.699   1.230   6.163  0.0343 -0.2023 -0.7765
17764TIP3    H174707   3.722   1.318   6.132 -0.3189  0.1850  0.0442
17764TIP3    H274708   3.777   1.200   6.210  1.1600 -1.4309 -3.3638
17765TIP3   OH274709   4.034   4.319   4.123  0.1833 -0.3310  0.2512
17765TIP3    H174710   4.014   4.403   4.081  4.0059  0.5869  0.0754
17765TIP3    H274711   4.006   4.331   4.213  2.2463  1.8509  0.6730
17766TIP3   OH274712   3.064   0.732  15.223  0.3926  0.2298  0.0316
17766TIP3    H174713   3.140   0.766  15.176  0.1129  0.9310  0.0850
17766TIP3    H274714   3.096   0.652  15.265  0.5861 -0.5381 -1.5380
17767TIP3   OH274715   4.506   0.044  14.567  0.0750  0.7073  0.1360
17767TIP3    H174716   4.502   0.139  14.577  1.4536  0.9766 -1.5601
17767TIP3    H274717   4.459   0.026  14.486 -0.7330 -0.1351  0.7861
17768TIP3   OH274718   0.879   5.021   3.064  0.6516  0.3005  0.1310
17768TIP3    H174719   0.865   5.057   3.152  1.2385 -0.7112  0.6470
17768TIP3    H274720   0.794   5.029   3.021  0.3414  0.7401  0.8126
17769TIP3   OH274721   4.501   1.195   1.842 -0.2927  0.0648 -0.4108
17769TIP3    H174722   4.433   1.178   1.906  0.2084  0.7837  0.3174
17769TIP3    H274723   4.576   1.225   1.893  0.4282 -0.2897 -1.2429
17770TIP3   OH274724   0.551   2.402  12.684 -0.4626  0.1295 -0.7560
17770TIP3    H174725   0.541   2.394  12.589  0.2738 -1.8773 -0.6646
17770TIP3    H274726   0.476   2.354  12.720 -0.2515  0.1375 -0.3055
17771TIP3   OH274727   6.031   4.107  15.849  0.1972  0.1402  0.0311
17771TIP3    H174728   5.952   4.135  15.896  0.7899 -0.8358  1.6444
17771TIP3    H274729   6.007   4.022  15.812  0.0298  0.5037 -0.7152
17772TIP3   OH274730   3.714   2.339  16.644  0.3880  0.4357  0.1731
17772TIP3    H174731   3.746   2.340  16.734 -1.5698 -0.2543  0.9196
17772TIP3    H274732   3.783   2.381  16.593 -0.2249  4.6368  2.6032
17773TIP3   OH274733   4.686   2.924   5.321  0.0263  0.5624  0.1277
17773TIP3    H174734   4.595   2.913   5.293 -0.2845  1.7660  0.6316
17773TIP3    H274735   4.703   2.849   5.378 -1.4176  1.5870  1.9612
17774TIP3   OH274736   0.582   0.784   3.466  0.0637  0.2061  0.3982
17774TIP3    H174737   0.543   0.758   3.549 -1.1908  1.5197  0.2459
17774TIP3    H274738   0.652   0.845   3.490 -0.7619  1.1386  0.4723
17775TIP3   OH274739   4.491   5.363  14.368 -0.2983  0.1555  0.7977
17775TIP3    H174740   4.399   5.379  14.346  0.2584  1.5238 -0.6380
17775TIP3    H274741   4.540   5.409  14.300  1.4636  0.3069  2.1330
17776TIP3   OH274742   4.352   2.282   2.100  0.3071  0.1841 -0.5976
17776TIP3    H174743   4.372   2.233   2.179  0.2458  1.0303 -0.0460
17776TIP3    H274744   4.399   2.236   2.030  1.4238  0.1899  0.1393
17777TIP3   OH274745   1.474   0.733   0.080 -0.2922  0.4615  0.0698
17777TIP3    H174746   1.390   0.763   0.114  0.5791  2.3940  0.5699
17777TIP3    H274747   1.515   0.688   0.154 -0.7271 -0.1552 -0.0639
17778TIP3   OH274748   2.503   5.620   4.116 -0.2819 -0.4714 -0.0445
17778TIP3    H174749   2.572   5.632   4.051 -0.4496  0.8498  0.0042
17778TIP3    H274750   2.549   5.604   4.198 -0.0485 -0.5996 -0.2020
17779TIP3   OH274751   6.408   4.970  14.653  0.0748  0.4210 -0.5464
17779TIP3    H174752   6.444   5.052  14.686 -2.0660  1.8932 -1.7736
17779TIP3    H274753   6.450   4.957  14.568 -0.8017  1.0922 -1.0813
17780TIP3   OH274754   1.071   6.373  12.345 -0.0995  0.5102 -0.0400
17780TIP3    H174755   1.002   6.313  12.372 -0.0007  0.1730 -0.5241
17780TIP3    H274756   1.025   6.447  12.306 -0.1698 -0.0327 -0.9985
17781TIP3   OH274757   1.799   3.603  16.717  0.1578  0.1727 -0.1626
17781TIP3    H174758   1.824   3.666  16.649 -1.8389  0.0942 -0.9875
17781TIP3    H274759   1.841   3.521  16.690  2.3181  0.9922  0.6232
17782TIP3   OH274760   1.623   0.792  16.966 -0.6117 -0.3717 -0.8708
17782TIP3    H174761   1.702   0.836  16.999 -1.2911  0.5320 -0.4229
17782TIP3    H274762   1.629   0.703  17.000 -0.1632 -0.0897 -0.1901
17783TIP3   OH274763   1.085   2.547   4.854 -0.2530  0.5713  0.4446
17783TIP3    H174764   1.022   2.605   4.896 -0.3288  0.1840  0.8664
17783TIP3    H274765   1.155   2.537   4.919 -0.9542 -1.0166  0.9763
17784TIP3   OH274766   6.203   4.824   3.292 -0.1854  0.2095  0.1769
17784TIP3    H174767   6.139   4.764   3.253  1.1888 -1.3250  0.2100
17784TIP3    H274768   6.257   4.852   3.218 -0.2335  0.6439  0.3092
17785TIP3   OH274769   0.800   0.558  16.977 -0.6082 -0.0916 -0.3979
17785TIP3    H174770   0.830   0.643  17.008 -1.5535  0.2860 -0.5048
17785TIP3    H274771   0.718   0.543  17.024 -0.1477 -1.2122  0.0636
17786TIP3   OH274772   1.915   6.024  14.782  0.1111  0.2496 -0.1632
17786TIP3    H174773   1.887   5.978  14.862  1.7169 -0.0512  0.2350
17786TIP3    H274774   1.969   5.960  14.735 -2.3999 -0.2863 -2.4908
17787TIP3   OH274775   4.246   1.164  12.177 -0.0423  0.2097 -0.2067
17787TIP3    H174776   4.309   1.195  12.242 -0.0078 -2.2812  1.0291
17787TIP3    H274777   4.168   1.218  12.190  0.3149  0.3807  1.2376
17788TIP3   OH274778   4.799   3.897   1.729 -1.0965 -0.0184 -0.7574
17788TIP3    H174779   4.806   3.802   1.743  1.1343 -0.0703 -1.9250
17788TIP3    H274780   4.808   3.935   1.816 -0.3978 -0.8170 -0.4775
17789TIP3   OH274781   0.556   3.094   1.145  0.0245 -0.0726  0.3350
17789TIP3    H174782   0.557   3.188   1.161  1.7688 -0.3420  1.9310
17789TIP3    H274783   0.531   3.056   1.230  3.6026 -1.2485  0.9311
17790TIP3   OH274784   1.271   2.500   5.073 -0.2323 -1.0239  0.2565
17790TIP3    H174785   1.330   2.456   5.134 -0.4196 -0.4010  0.8960
17790TIP3    H274786   1.330   2.548   5.014  0.1354 -4.7743 -2.5775
17791TIP3   OH274787   0.894   1.538  12.214 -0.3252 -0.2845 -0.2236
17791TIP3    H174788   0.840   1.553  12.291 -0.4457 -0.8077 -0.2030
17791TIP3    H274789   0.973   1.589  12.229  0.1529 -1.2978  0.7838
17792TIP3   OH274790   1.528   2.179   3.787  0.3705 -0.3554 -0.5317
17792TIP3    H174791   1.543   2.249   3.723  2.3835 -1.1291 -0.9818
17792TIP3    H274792   1.448   2.136   3.758 -0.0525  0.8369 -1.1292
17793TIP3   OH274793   4.141   3.766  16.485  0.5800  0.6416 -0.5376
17793TIP3    H174794   4.080   3.797  16.418  2.0297 -0.4537 -2.4136
17793TIP3    H274795   4.178   3.846  16.522 -1.5198  1.2980  0.2147
17794TIP3   OH274796   1.496   2.801   2.638  0.2223 -0.1102 -0.2942
17794TIP3    H174797   1.563   2.760   2.583 -0.6019  1.2328 -2.3755
17794TIP3    H274798   1.538   2.811   2.723  1.0558 -3.5260 -0.2304
17795TIP3   OH274799   6.094   2.890  12.430  0.1572  0.2013 -0.0796
17795TIP3    H174800   6.162   2.865  12.492  0.7657  2.0146  0.0089
17795TIP3    H274801   6.060   2.806  12.397  2.0712 -0.7380  0.2400
17796TIP3   OH274802   4.955   0.027   2.643 -0.0869  0.2597 -0.2752
17796TIP3    H174803   5.044   0.048   2.616  0.3974  1.9395  2.4531
17796TIP3    H274804   4.921   0.108   2.680 -1.6426 -1.1733  1.5471
17797TIP3   OH274805   5.395   2.681  15.724  0.1955  0.3535  0.6642
17797TIP3    H174806   5.311   2.692  15.679 -0.1545  0.5432  1.3433
17797TIP3    H274807   5.455   2.648  15.657  0.3353  2.9212 -0.5303
17798TIP3   OH274808   6.648   4.525   5.077 -0.2686  0.3323  0.3375
17798TIP3    H174809   6.615   4.549   5.163  0.4405 -2.2275  1.3913
17798TIP3    H274810   6.721   4.585   5.062 -1.2156  1.6585  0.9205
17799TIP3   OH274811   1.580   0.775   1.344 -0.0365 -0.4821  0.1808
17799TIP3    H174812   1.509   0.718   1.313  0.2623  0.2442 -1.8901
17799TIP3    H274813   1.560   0.789   1.437 -1.9052 -1.3248 -0.0694
17800TIP3   OH274814   3.804   0.856   3.610  0.1935 -0.2821  0.4684
17800TIP3    H174815   3.746   0.784   3.635 -0.0529 -0.5946 -0.9694
17800TIP3    H274816   3.746   0.929   3.591  0.2332 -0.7306 -1.4151
17801TIP3   OH274817   0.425   0.045   3.309  0.4502 -0.4256 -0.5923
17801TIP3    H174818   0.450   0.010   3.224  0.1217 -0.6446 -0.5993
17801TIP3    H274819   0.459  -0.018   3.373  0.4827 -0.3897 -0.5744
17802TIP3   OH274820   1.794   3.289   3.843 -0.0630 -0.0836  0.8652
17802TIP3    H174821   1.860   3.346   3.804  0.7387  0.4615  2.9523
17802TIP3    H274822   1.719   3.297   3.785  1.4411 -0.1400 -1.1490
17803TIP3   OH274823   1.682   6.523  13.221 -0.5089  0.6051 -0.9648
17803TIP3    H174824   1.683   6.615  13.249  0.0013  0.6606 -1.1697
17803TIP3    H274825   1.769   6.508  13.184 -0.1501 -0.3268  0.2200
17804TIP3   OH274826   1.103   1.002  14.212 -0.3975  0.0703  0.2271
17804TIP3    H174827   1.105   1.096  14.230  1.5530  0.1685 -0.3305
17804TIP3    H274828   1.132   0.961  14.294 -0.7201 -0.0035  0.3025
17805TIP3   OH274829   3.924   0.869   1.430  0.1899  0.1992  0.1234
17805TIP3    H174830   3.853   0.910   1.480 -0.7947  1.2189 -2.0459
17805TIP3    H274831   3.879   0.818   1.363  1.5115  1.4531 -1.7502
17806TIP3   OH274832   5.623   0.518   1.325  0.0627  0.0665  0.4451
17806TIP3    H174833   5.659   0.431   1.308  1.9042  0.7318  0.8646
17806TIP3    H274834   5.576   0.508   1.408  0.7035 -0.4272  0.7562
17807TIP3   OH274835   4.381   4.064   5.443 -0.0405  0.3194  0.1651
17807TIP3    H174836   4.420   4.067   5.355 -0.9700  0.8218 -0.2326
17807TIP3    H274837   4.287   4.062   5.428 -0.2346  1.4107  1.1675
17808TIP3   OH274838   5.778   0.666  11.506 -0.0586 -0.4452 -0.1468
17808TIP3    H174839   5.839   0.658  11.433  1.3337  0.8126  0.8640
17808TIP3    H274840   5.714   0.731  11.477 -0.4692 -1.1646 -0.8838
17809TIP3   OH274841   6.304   6.388  14.375 -0.2602 -0.0239  0.4284
17809TIP3    H174842   6.225   6.412  14.424 -0.9480 -1.1368 -0.1185
17809TIP3    H274843   6.272   6.341  14.298  0.8478  1.3359 -0.8887
17810TIP3   OH274844   5.637   3.795  10.966 -0.2755 -0.0473 -0.5505
17810TIP3    H174845   5.548   3.773  10.993 -0.0033 -1.6173 -0.9134
17810TIP3    H274846   5.657   3.875  11.015 -1.3291 -0.5155  0.6853
17811TIP3   OH274847   5.935   1.797   5.664 -0.2514  0.4661 -0.5129
17811TIP3    H174848   5.961   1.817   5.753 -0.3391 -0.9374 -0.1553
17811TIP3    H274849   5.936   1.881   5.618  3.4276  0.7208 -0.1364
17812TIP3   OH274850   0.130   6.395  10.623  0.1955  0.2964 -0.4932
17812TIP3    H174851   0.054   6.345  10.594 -1.3867  1.8143  0.9143
17812TIP3    H274852   0.202   6.332  10.625 -1.7363 -1.9258  1.2069
17813TIP3   OH274853   2.412   6.309   2.696 -0.2448  0.1640  0.1987
17813TIP3    H174854   2.378   6.234   2.744 -0.0660 -1.5200 -2.2569
17813TIP3    H274855   2.504   6.288   2.679 -0.6184  0.1622 -1.9501
17814TIP3   OH274856   4.167   5.900   1.657  0.0420 -0.0433  0.3961
17814TIP3    H174857   4.170   5.868   1.567  1.3961  2.8004 -0.6497
17814TIP3    H274858   4.075   5.922   1.671  0.0215  0.7127 -0.7903
17815TIP3   OH274859   2.230   5.035   1.911 -0.8563  0.4994 -0.4221
17815TIP3    H174860   2.183   4.971   1.965 -0.7100  0.8922  0.1770
17815TIP3    H274861   2.169   5.108   1.903 -0.1891  1.2131  0.7577
17816TIP3   OH274862   3.296   4.263   3.611  0.5651  0.6829 -1.0860
17816TIP3    H174863   3.266   4.312   3.688 -2.7550 -0.7528 -1.3734
17816TIP3    H274864   3.310   4.174   3.644 -1.0081  0.0294 -2.1228
17817TIP3   OH274865   6.611   2.472   4.072 -0.7085 -0.2679  0.5109
17817TIP3    H174866   6.627   2.378   4.085  0.7236 -0.2924 -1.2725
17817TIP3    H274867   6.522   2.476   4.037 -0.4893 -1.0277 -0.1592
17818TIP3   OH274868   4.861   5.279   1.230 -0.6039  0.0104  0.1030
17818TIP3    H174869   4.941   5.282   1.282  0.1673 -0.4178 -1.0236
17818TIP3    H274870   4.868   5.198   1.180 -2.3294 -0.6407  0.8930
17819TIP3   OH274871   6.634   3.279   1.308  0.6173 -0.1184  0.1478
17819TIP3    H174872   6.626   3.202   1.251 -0.9254  0.1877 -0.0516
17819TIP3    H274873   6.725   3.308   1.295  0.4997 -0.4834 -1.5958
17820TIP3   OH274874   4.174   3.078   5.322  0.2467  0.2033 -0.0572
17820TIP3    H174875   4.227   3.121   5.254  0.5409 -0.9846 -0.5857
17820TIP3    H274876   4.185   3.134   5.399  1.8592  0.2588 -0.3096
17821TIP3   OH274877   2.419   3.027   2.257  0.0626 -0.2912 -0.2458
17821TIP3    H174878   2.405   3.056   2.167 -1.5129 -0.0431  0.0588
17821TIP3    H274879   2.489   3.084   2.289 -0.3148  0.5669 -0.8902
17822TIP3   OH274880   6.026   6.461  16.582  0.6848  0.3216  0.1120
17822TIP3    H174881   6.045   6.523  16.512  0.2993  0.3671  0.0480
17822TIP3    H274882   6.102   6.404  16.586  1.5873  1.5547  0.9835
17823TIP3   OH274883   4.598   2.413   2.845  0.5458 -0.2030 -0.0261
17823TIP3    H174884   4.622   2.360   2.921  3.8681 -1.0975 -1.6223
17823TIP3    H274885   4.672   2.404   2.785 -1.0868  2.1693 -2.4996
17824TIP3   OH274886   0.835   1.933   1.623  0.5366  0.1193 -0.4360
17824TIP3    H174887   0.883   2.015   1.610 -2.2366  1.8873  0.1121
17824TIP3    H274888   0.747   1.951   1.590  0.5566 -3.4906 -2.6634
17825TIP3   OH274889   3.502   1.990  12.814  0.5004 -0.3420  0.8929
17825TIP3    H174890   3.583   1.992  12.865  1.4854 -0.1226 -0.6364
17825TIP3    H274891   3.458   1.910  12.844  1.3623 -0.5595  1.6282
17826TIP3   OH274892   4.636   6.034   5.784  0.3702  0.5334  0.2386
17826TIP3    H174893   4.703   5.967   5.798  0.5013  0.7359  0.6200
17826TIP3    H274894   4.677   6.114   5.817  0.5625  0.9788 -1.0580
17827TIP3   OH274895   1.306   3.216  14.797  0.7601 -0.0397  0.2686
17827TIP3    H174896   1.325   3.210  14.704  2.7632 -2.1035  0.7635
17827TIP3    H274897   1.217   3.250  14.801 -0.0253 -1.6057 -2.4590
17828TIP3   OH274898   1.985   1.731  12.137  0.1118 -0.1365  0.1824
17828TIP3    H174899   2.058   1.696  12.189 -1.1874 -1.2950  1.2630
17828TIP3    H274900   1.914   1.742  12.200 -0.6580  0.9783 -0.8720
17829TIP3   OH274901   4.502   1.695   4.988  0.5530  0.7719  0.0785
17829TIP3    H174902   4.479   1.746   5.067 -1.5434  1.2141 -0.7937
17829TIP3    H274903   4.562   1.752   4.940  1.3581  0.7567  1.0463
17830TIP3   OH274904   4.824   2.301   3.169 -0.3441  0.1448  0.1852
17830TIP3    H174905   4.770   2.378   3.190 -0.6244 -0.1862  0.6916
17830TIP3    H274906   4.878   2.288   3.247  0.0267  0.0925 -0.0768
17831TIP3   OH274907   4.449   5.442   2.736 -0.4710 -0.0274 -0.3391
17831TIP3    H174908   4.403   5.378   2.682 -0.6460  1.3661 -1.8835
17831TIP3    H274909   4.380   5.494   2.776 -0.2924  1.2684 -1.6764
17832TIP3   OH274910   2.551   3.832   1.802 -0.3320 -0.2692 -0.3095
17832TIP3    H174911   2.523   3.867   1.887 -0.2790  0.8060 -0.7322
17832TIP3    H274912   2.488   3.869   1.740 -0.1980 -0.8337 -0.7770
17833TIP3   OH274913   3.132   6.391  12.095  0.0746 -0.2507 -0.1673
17833TIP3    H174914   3.106   6.299  12.086 -1.5084  0.3564 -2.1294
17833TIP3    H274915   3.116   6.412  12.187  0.2769 -1.8837  0.2521
17834TIP3   OH274916   3.694   0.725   2.708 -0.4914 -0.3586  0.2259
17834TIP3    H174917   3.623   0.789   2.696 -1.1242 -1.2816 -1.0511
17834TIP3    H274918   3.704   0.684   2.622  1.5605 -0.2915  0.4067
17835TIP3   OH274919   1.096   4.992   1.928 -0.1732 -0.0913  0.4675
17835TIP3    H174920   1.161   4.929   1.898  0.6791  1.1617 -0.3388
17835TIP3    H274921   1.122   5.012   2.018 -1.4939 -2.2331  1.3586
17836TIP3   OH274922   4.026   3.598  13.357 -0.0126 -0.1341  0.6115
17836TIP3    H174923   3.983   3.515  13.335  0.9944 -0.8192  1.1141
17836TIP3    H274924   3.973   3.634  13.428 -2.6770  1.5855 -2.1633
17837TIP3   OH274925   2.013   2.524   1.549  0.1923  0.4979 -0.0447
17837TIP3    H174926   1.924   2.554   1.530  0.7896  2.0531 -0.4014
17837TIP3    H274927   2.003   2.469   1.627 -1.1805  0.0833 -0.4988
17838TIP3   OH274928   2.304   4.665   1.421  0.8784  0.4197 -0.1900
17838TIP3    H174929   2.384   4.619   1.448  0.9884  0.6778 -0.0708
17838TIP3    H274930   2.233   4.606   1.445  0.9776  0.6309  0.6339
17839TIP3   OH274931   1.368   3.278   3.472  0.2230  0.5264 -0.4067
17839TIP3    H174932   1.317   3.272   3.392 -0.2530 -0.1171 -0.0560
17839TIP3    H274933   1.306   3.311   3.537 -0.4010 -2.4565  0.5939
17840TIP3   OH274934   4.970   0.237   5.008 -0.1838  0.0299 -0.2716
17840TIP3    H174935   5.028   0.222   4.934 -1.3461  0.0033 -1.2019
17840TIP3    H274936   4.937   0.150   5.030 -0.9492  0.2110 -0.6687
17841TIP3   OH274937   1.255   4.469  15.682  0.0170  0.5144 -0.2222
17841TIP3    H174938   1.306   4.472  15.601 -0.4265 -2.0824 -0.6459
17841TIP3    H274939   1.176   4.519  15.662  0.0585  0.1721 -1.2949
17842TIP3   OH274940   2.297   4.238   1.487  0.1787  0.1993  0.2099
17842TIP3    H174941   2.214   4.260   1.445  0.4661  1.3547  0.2462
17842TIP3    H274942   2.282   4.151   1.526 -1.0705  0.4889  0.3862
17843TIP3   OH274943   5.920   1.858  12.437 -0.4445 -0.3944  0.0890
17843TIP3    H174944   5.880   1.915  12.502 -1.0515  0.0357 -0.6569
17843TIP3    H274945   5.902   1.769  12.467  0.0203 -0.2012  0.9573
17844TIP3   OH274946   1.562   1.842   1.349 -0.4256  0.0452  0.0921
17844TIP3    H174947   1.471   1.864   1.330 -0.7756 -0.6531  0.9285
17844TIP3    H274948   1.590   1.911   1.410  0.2883  1.5101 -1.8334
17845TIP3   OH274949   2.603   6.754   1.639  0.4625  0.0249 -0.5977
17845TIP3    H174950   2.618   6.699   1.562  1.4472  0.9025 -1.0458
17845TIP3    H274951   2.691   6.779   1.667 -0.0189  2.8527 -1.4891
17846TIP3   OH274952   4.291   2.792   4.396  0.1419  0.0442 -0.2828
17846TIP3    H174953   4.258   2.745   4.320  2.2555  0.6864 -1.6462
17846TIP3    H274954   4.361   2.847   4.362  2.4397 -1.0581  2.3963
17847TIP3   OH274955   3.712   1.274  15.504 -0.5897 -0.1916  0.8835
17847TIP3    H174956   3.715   1.207  15.435 -3.0326 -1.9524  2.4450
17847TIP3    H274957   3.646   1.336  15.475  1.1352  1.2159 -0.1878
17848TIP3   OH274958   0.947   2.729   5.665 -0.1701 -0.0235  0.1776
17848TIP3    H174959   0.925   2.764   5.751 -3.7062  0.7470 -0.9395
17848TIP3    H274960   0.929   2.635   5.672  2.1663 -0.4381  1.0194
17849TIP3   OH274961   1.858   0.354  14.155 -0.3943 -0.4947 -0.6306
17849TIP3    H174962   1.843   0.262  14.173 -0.0310 -0.1368  1.6410
17849TIP3    H274963   1.942   0.374  14.197 -0.8218  1.0248 -0.4668
17850TIP3   OH274964   4.477   4.945  16.287  0.3719 -0.7718 -0.4470
17850TIP3    H174965   4.522   5.012  16.338  1.8657 -1.6319 -0.6089
17850TIP3    H274966   4.485   4.865  16.339 -3.1928 -0.4602  0.7500
17851TIP3   OH274967   3.627   6.128  13.557 -0.0329 -0.3252 -0.0708
17851TIP3    H174968   3.570   6.159  13.627  1.2650  0.9255  0.4546
17851TIP3    H274969   3.660   6.044  13.588  0.3515  0.1154  0.7340
17852TIP3   OH274970   5.322   2.133  16.107  0.5125  0.2239  0.5764
17852TIP3    H174971   5.284   2.128  16.020 -0.7085  2.5220  0.9503
17852TIP3    H274972   5.247   2.122  16.167  1.1672 -0.2128  1.3275
17853TIP3   OH274973   3.307   1.308  10.264  0.1206  0.2100  0.9208
17853TIP3    H174974   3.215   1.316  10.237 -0.5212  2.0145  3.4346
17853TIP3    H274975   3.305   1.250  10.340  1.0614  0.3190  1.0327
17854TIP3   OH274976   1.780   4.380   5.317 -0.0290 -0.1228  0.2653
17854TIP3    H174977   1.742   4.453   5.364  1.7856  1.1404 -0.1599
17854TIP3    H274978   1.807   4.417   5.233  0.4714 -1.3883 -0.1505
17855TIP3   OH274979   4.258   2.685   1.985 -0.0049  0.3955  0.1114
17855TIP3    H174980   4.294   2.664   2.072 -1.4318  1.5347  1.0105
17855TIP3    H274981   4.183   2.626   1.976  0.8036 -0.4951 -0.8382
17856TIP3   OH274982   2.392   2.747   3.075  0.9614 -0.3845 -0.0288
17856TIP3    H174983   2.324   2.810   3.101  0.4731 -1.1033  0.4761
17856TIP3    H274984   2.397   2.755   2.980  0.2756 -0.2128 -0.0568
17857TIP3   OH274985   4.302   3.085   0.817  0.7686 -0.5974 -0.5388
17857TIP3    H174986   4.319   3.027   0.891  1.3072  0.0605 -0.1397
17857TIP3    H274987   4.264   3.163   0.857  1.0556 -0.2429 -0.9641
17858TIP3   OH274988   4.952   5.181  11.312 -0.1952 -0.3473  0.2001
17858TIP3    H174989   4.880   5.136  11.268  0.1468 -0.1485 -0.5582
17858TIP3    H274990   4.917   5.204  11.398 -1.6917  1.5427 -0.9053
17859TIP3   OH274991   3.855   5.844  11.303 -0.0574 -0.1688  0.5145
17859TIP3    H174992   3.855   5.920  11.245  1.8408  0.1043  0.8411
17859TIP3    H274993   3.803   5.779  11.257 -3.0381  1.8150  0.9181
17860TIP3   OH274994   5.080   3.095  13.684  0.3671 -0.4984 -0.2635
17860TIP3    H174995   5.107   3.119  13.773 -0.6100 -1.1981  0.2195
17860TIP3    H274996   5.118   3.164  13.629  2.9174 -1.3074  0.4269
17861TIP3   OH274997   2.525   5.309   4.781 -0.5427 -0.4604  0.5210
17861TIP3    H174998   2.439   5.284   4.747 -0.4596  0.0121 -0.0534
17861TIP3    H274999   2.575   5.227   4.781 -1.4752 -1.0472  2.3609
17862TIP3   OH275000   1.840   1.709   5.900 -0.1067  0.3961  0.1962
17862TIP3    H175001   1.804   1.793   5.929 -2.1540 -0.6749  0.8146
17862TIP3    H275002   1.871   1.667   5.980 -0.8256 -0.2375  0.1511
17863TIP3   OH275003   2.495   4.269   3.153 -0.0921 -0.0059 -0.0852
17863TIP3    H175004   2.407   4.282   3.117  0.3341  0.6650 -0.8923
17863TIP3    H275005   2.553   4.314   3.091  0.6690  0.9732  1.3290
17864TIP3   OH275006   1.993   4.584  13.074 -0.5386  0.5190 -0.1126
17864TIP3    H175007   1.983   4.677  13.095  1.8568  1.2539 -2.0698
17864TIP3    H275008   1.942   4.572  12.994  0.8388  0.6413 -1.0268
17865TIP3   OH275009   1.604   5.627  11.056  0.3578  0.1311  0.1801
17865TIP3    H175010   1.554   5.547  11.041  1.1587 -0.4930  0.8343
17865TIP3    H275011   1.616   5.665  10.969  0.4565 -0.7396 -0.1846
17866TIP3   OH275012   6.364   3.371  11.219 -0.2531  0.5348  0.1146
17866TIP3    H175013   6.378   3.449  11.167  1.0005  0.5857  0.5151
17866TIP3    H275014   6.357   3.300  11.155  1.3244  0.5887 -0.1301
17867TIP3   OH275015   5.936   3.513  16.918  0.0236 -0.4738 -0.5508
17867TIP3    H175016   6.014   3.486  16.868 -0.1919 -2.5045  0.1390
17867TIP3    H275017   5.866   3.515  16.854  0.2109 -0.8165 -0.7709
17868TIP3   OH275018   6.315   3.018   1.889  0.4368  0.4225  0.3400
17868TIP3    H175019   6.345   2.956   1.823 -1.1362 -0.9456  0.8529
17868TIP3    H275020   6.374   3.004   1.963  1.4824  1.1389 -0.3525
17869TIP3   OH275021   6.479   1.051  16.785  0.1538  0.3310 -0.0127
17869TIP3    H175022   6.508   1.130  16.831  1.4027 -1.0932  1.7130
17869TIP3    H275023   6.539   0.983  16.815 -0.8398 -1.2694 -1.5637
17870TIP3   OH275024   2.540   6.493  14.142 -0.3942  0.3404  0.0712
17870TIP3    H175025   2.489   6.537  14.210 -0.4295 -0.0507  0.2964
17870TIP3    H275026   2.621   6.469  14.185 -0.0406  0.9042 -0.2695
17871TIP3   OH275027   4.309   2.431   3.108 -0.4953 -0.1823  0.1463
17871TIP3    H175028   4.214   2.423   3.099 -0.8609  1.4547  2.1212
17871TIP3    H275029   4.332   2.509   3.058 -0.4948  0.5749  1.3034
17872TIP3   OH275030   3.698   5.139   2.227  0.7005  0.0358 -0.1036
17872TIP3    H175031   3.708   5.105   2.138 -1.2209 -1.1565  0.1167
17872TIP3    H275032   3.653   5.069   2.274  0.4144  1.2473  1.4376
17873TIP3   OH275033   6.396   6.061   3.942 -0.0080  0.7322  0.2497
17873TIP3    H175034   6.319   6.021   3.983 -0.0055  2.3182  1.8749
17873TIP3    H275035   6.463   5.992   3.945 -0.6327  0.1439  1.0577
17874TIP3   OH275036   3.873   6.526   4.281 -0.1554  0.4085 -0.2623
17874TIP3    H175037   3.840   6.603   4.326  0.6152 -0.0555  1.1104
17874TIP3    H275038   3.923   6.561   4.208 -1.6254  1.1526 -0.9398
17875TIP3   OH275039   3.013   3.957  15.612  0.1805  0.7906  0.3891
17875TIP3    H175040   3.015   3.862  15.625  0.8428  0.5074 -1.5465
17875TIP3    H275041   2.922   3.976  15.589  0.3812  0.3842 -0.7718
17876TIP3   OH275042   6.032   1.638   4.330 -0.2393 -0.6187 -0.0859
17876TIP3    H175043   5.987   1.554   4.319 -0.5170 -0.3993 -0.7048
17876TIP3    H275044   5.968   1.693   4.376 -0.2382 -0.6043 -0.1024
17877TIP3   OH275045   4.803   5.248  15.872 -0.7613 -0.0036 -0.1177
17877TIP3    H175046   4.717   5.248  15.913 -0.7240 -1.3201 -0.0045
17877TIP3    H275047   4.853   5.314  15.920 -1.0150 -0.8218  1.2979
17878TIP3   OH275048   5.817   2.655  12.942 -0.0501  0.3084 -0.2335
17878TIP3    H175049   5.739   2.706  12.921 -0.3482 -0.1802 -0.3142
17878TIP3    H275050   5.790   2.598  13.013  0.1324 -0.1138 -0.5036
17879TIP3   OH275051   0.471   6.699   5.001 -0.6856  0.1255 -0.2721
17879TIP3    H175052   0.466   6.713   4.907  0.5632  0.1019 -0.3553
17879TIP3    H275053   0.382   6.710   5.032 -0.9534  1.0367 -1.3372
17880TIP3   OH275054   5.566   1.732   3.340 -0.3763  0.0245 -0.6506
17880TIP3    H175055   5.497   1.694   3.286 -1.6233 -1.5990  1.9862
17880TIP3    H275056   5.628   1.660   3.353  0.2466  0.5916 -0.4532
17881TIP3   OH275057   6.199   5.581  13.562 -0.2371 -0.0282 -0.3423
17881TIP3    H175058   6.175   5.620  13.646 -1.6027 -3.3913  0.9356
17881TIP3    H275059   6.130   5.610  13.502 -0.6480  0.3773  0.3207
17882TIP3   OH275060   2.498   4.832  10.430 -0.0527 -0.3950  0.3323
17882TIP3    H175061   2.543   4.888  10.366 -1.2244  0.8568  0.5861
17882TIP3    H275062   2.422   4.883  10.457  0.3556 -0.9596  2.6346
17883TIP3   OH275063   5.772   2.279   4.575 -0.3754  0.2739 -0.4596
17883TIP3    H175064   5.821   2.201   4.549 -2.0938 -0.5080 -1.4446
17883TIP3    H275065   5.704   2.247   4.634 -0.7423  1.0988 -0.4163
17884TIP3   OH275066   5.053   4.436  12.006  0.0728 -0.1564  0.3535
17884TIP3    H175067   5.144   4.437  12.035 -0.1265 -1.1889  1.0338
17884TIP3    H275068   5.042   4.350  11.966 -0.4156  0.2343 -0.3631
17885TIP3   OH275069   0.524   3.100   1.871 -0.2382  0.2326 -0.3779
17885TIP3    H175070   0.459   3.046   1.827 -0.2535  0.8330 -1.1114
17885TIP3    H275071   0.608   3.058   1.853 -0.2345  0.5409 -1.0801
17886TIP3   OH275072   3.889   3.349  13.319 -0.2554 -0.1944 -0.3553
17886TIP3    H175073   3.930   3.280  13.267 -0.2647 -1.4705  1.2591
17886TIP3    H275074   3.816   3.381  13.266  1.0729  0.0962 -2.0346
17887TIP3   OH275075   5.700   5.024  11.295  0.3292 -0.1699 -0.0727
17887TIP3    H175076   5.697   5.018  11.390  1.3656 -0.0528 -0.0202
17887TIP3    H275077   5.668   5.112  11.275 -1.9756 -0.9549  0.0123
17888TIP3   OH275078   1.289   1.809   6.772  0.6445  0.5138 -0.2475
17888TIP3    H175079   1.248   1.840   6.692 -0.4743 -1.4649 -0.4610
17888TIP3    H275080   1.381   1.795   6.749 -0.1162 -2.1180 -1.7950
17889TIP3   OH275081   6.165   5.661   2.831 -0.4772 -0.0803 -0.1977
17889TIP3    H175082   6.191   5.719   2.759  1.4678 -1.8153 -0.9409
17889TIP3    H275083   6.222   5.686   2.903  0.0074 -0.7092 -0.3606
17890TIP3   OH275084   0.597   1.493  14.462  0.4394  0.1180  0.1613
17890TIP3    H175085   0.677   1.442  14.451 -0.1493 -0.8976  0.4560
17890TIP3    H275086   0.580   1.491  14.557 -1.3522 -1.9388 -0.1486
17891TIP3   OH275087   2.306   5.157  16.556  0.4535 -0.5443  0.3629
17891TIP3    H175088   2.381   5.098  16.547 -0.8552 -2.5786  2.2550
17891TIP3    H275089   2.233   5.108  16.519 -0.3762  0.5163  0.5846
17892TIP3   OH275090   2.684   4.912   1.055 -0.3265  0.1571 -0.8075
17892TIP3    H175091   2.672   4.963   1.135 -0.3933 -2.1336  0.6944
17892TIP3    H275092   2.595   4.888   1.029 -0.2277 -0.1920 -0.8267
17893TIP3   OH275093   5.841   1.262   0.114  0.2669 -0.6725  0.1155
17893TIP3    H175094   5.913   1.314   0.078 -1.1125  1.0980 -0.1365
17893TIP3    H275095   5.857   1.262   0.208  0.7150 -0.4707  0.0421
17894TIP3   OH275096   0.741   4.605   4.022 -0.2270 -0.0293 -0.2073
17894TIP3    H175097   0.653   4.638   4.004 -0.7117 -0.2940  1.6219
17894TIP3    H275098   0.773   4.661   4.093  0.2164 -1.3544  0.6574
17895TIP3   OH275099   2.146   6.544   4.604  0.0807 -0.0653  0.3382
17895TIP3    H175100   2.063   6.581   4.575  0.8652  0.3458 -1.4319
17895TIP3    H275101   2.131   6.519   4.695 -2.6521 -1.9384 -0.5646
17896TIP3   OH275102   4.097   0.881   0.528 -0.5305 -0.3881 -0.3643
17896TIP3    H175103   4.148   0.895   0.447  2.1625  0.5080  1.4089
17896TIP3    H275104   4.105   0.787   0.546  1.5802 -0.0720  0.5300
17897TIP3   OH275105   3.164   6.659  12.229  0.2840  0.3117 -0.1121
17897TIP3    H175106   3.252   6.656  12.192 -0.0474  1.1996 -1.0015
17897TIP3    H275107   3.152   6.574  12.270  1.1189 -0.2505 -1.0085
17898TIP3   OH275108   1.563   3.569   5.018  0.5462  0.1198  0.1604
17898TIP3    H175109   1.478   3.534   4.994 -0.2538  1.9352  0.2338
17898TIP3    H275110   1.559   3.661   4.991  2.4480  0.2378  0.2339
17899TIP3   OH275111   6.263   4.053   1.131  0.4742 -0.3690  0.2213
17899TIP3    H175112   6.299   4.141   1.118 -0.0270 -0.3799 -1.4601
17899TIP3    H275113   6.331   4.005   1.178  1.5019  0.4171 -0.4365
17900TIP3   OH275114   3.603   2.421   2.787  0.8707  0.0731  0.6022
17900TIP3    H175115   3.519   2.441   2.747  1.2331  3.3727  1.3263
17900TIP3    H275116   3.584   2.353   2.851 -1.4993  1.6171  1.5828
17901TIP3   OH275117   2.013   5.937   3.597  0.2038  0.0776  0.0723
17901TIP3    H175118   2.021   5.879   3.672  1.7834 -0.1736 -0.2716
17901TIP3    H275119   1.946   6.001   3.623 -0.2009 -0.7726  1.1642
17902TIP3   OH275120   1.442   6.275  15.728 -0.1249  0.0705 -0.2532
17902TIP3    H175121   1.444   6.199  15.670 -0.5891  0.6083 -0.9814
17902TIP3    H275122   1.369   6.258  15.788 -0.5138  0.1473 -0.7021
17903TIP3   OH275123   2.933   6.533   5.951 -0.0981  0.6210 -0.3076
17903TIP3    H175124   2.871   6.461   5.966 -0.7278  1.1570 -0.3148
17903TIP3    H275125   2.921   6.591   6.026 -0.1040  1.0795 -0.6615
17904TIP3   OH275126   4.331   0.088  12.839 -0.6885 -0.3505 -0.4156
17904TIP3    H175127   4.337   0.111  12.746 -2.6637  1.3974 -0.1600
17904TIP3    H275128   4.391   0.148  12.882 -1.2869  0.2299 -0.3758
17905TIP3   OH275129   2.702   2.453  11.994 -0.1890  0.3944  0.7207
17905TIP3    H175130   2.783   2.412  11.964  0.2376 -0.2099  2.7032
17905TIP3    H275131   2.729   2.538  12.028 -0.4894  0.4596  0.8038
17906TIP3   OH275132   2.378   6.600  14.349 -0.1488 -0.2006 -0.4594
17906TIP3    H175133   2.422   6.520  14.378 -0.1338  0.4027  1.2480
17906TIP3    H275134   2.299   6.570  14.305 -0.6631 -1.1489  1.0567
17907TIP3   OH275135   2.503   0.763   5.271 -0.0862 -0.0728 -0.6167
17907TIP3    H175136   2.547   0.690   5.226 -0.4393 -0.5822 -0.1390
17907TIP3    H275137   2.459   0.722   5.345 -0.0954  0.6693 -0.2149
17908TIP3   OH275138   0.975   2.726   3.764 -0.0625  0.5735 -0.3799
17908TIP3    H175139   0.911   2.682   3.708 -0.0870 -0.0133  0.1063
17908TIP3    H275140   0.933   2.729   3.850  0.1546  1.0848 -0.2917
17909TIP3   OH275141   1.571   2.668   5.942  0.5436 -0.1244 -0.3418
17909TIP3    H175142   1.606   2.608   6.007  0.7235 -0.6205 -0.8896
17909TIP3    H275143   1.514   2.727   5.992  1.7735  0.3943  0.4779
17910TIP3   OH275144   4.918   0.937  13.658 -0.6637  0.2081 -0.2556
17910TIP3    H175145   4.911   0.990  13.738  1.9820 -3.2697  2.4516
17910TIP3    H275146   5.009   0.948  13.631 -1.1962  0.2848 -2.0431
17911TIP3   OH275147   1.485   3.594   1.145  0.0166  0.4018 -0.7011
17911TIP3    H175148   1.393   3.593   1.171  0.7530  1.2326  2.2259
17911TIP3    H275149   1.517   3.506   1.164 -0.4226 -0.2277 -2.7981
17912TIP3   OH275150   3.685   3.472  15.024  0.2337  0.4859  0.8735
17912TIP3    H175151   3.742   3.548  15.014  0.1765  0.4946  0.6011
17912TIP3    H275152   3.710   3.413  14.952  0.4629  0.1308  1.2471
17913TIP3   OH275153   1.816   2.967  14.915  0.2110  0.0924 -0.7729
17913TIP3    H175154   1.892   3.019  14.889  0.4901 -1.5879 -3.5488
17913TIP3    H275155   1.741   3.019  14.887  0.2373  1.9469  2.3400
17914TIP3   OH275156   6.392   2.540  11.243 -0.3798 -0.3847  0.5539
17914TIP3    H175157   6.366   2.565  11.154 -0.1863  2.8035  1.3707
17914TIP3    H275158   6.484   2.517  11.236 -0.0852  0.9245  0.1361
17915TIP3   OH275159   0.269   3.540  10.814  0.3906 -0.3939 -0.1066
17915TIP3    H175160   0.223   3.616  10.848  1.0314 -0.3410  0.6694
17915TIP3    H275161   0.200   3.478  10.792 -0.1451  0.4923 -0.9588
17916TIP3   OH275162   1.260   0.745  12.592 -0.5991  0.3657  0.6969
17916TIP3    H175163   1.179   0.764  12.545  0.1466 -0.5199 -0.9873
17916TIP3    H275164   1.289   0.661  12.556 -0.0848 -0.4042  2.8541
17917TIP3   OH275165   6.752   6.333  12.530 -0.0536  0.1737 -0.0308
17917TIP3    H175166   6.842   6.304  12.517  0.2062  0.6316  0.6909
17917TIP3    H275167   6.754   6.427  12.512 -0.1317  0.4082  1.1123
17918TIP3   OH275168   1.523   0.464  14.778 -0.6485  0.2203  0.1781
17918TIP3    H175169   1.536   0.370  14.762  2.5600  0.3358  1.9270
17918TIP3    H275170   1.460   0.467  14.850 -0.7542 -0.5563  0.1299
17919TIP3   OH275171   5.181   6.232   6.029  0.5566 -0.3154 -0.0008
17919TIP3    H175172   5.103   6.191   5.992  1.1047 -1.5462  0.1488
17919TIP3    H275173   5.149   6.310   6.075 -0.8136 -1.7432  1.5492
17920TIP3   OH275174   5.633   2.556   1.194  0.6409 -0.1390  0.1462
17920TIP3    H175175   5.583   2.498   1.252  2.8090 -1.5451  0.6786
17920TIP3    H275176   5.566   2.601   1.142 -1.1832 -1.8937  0.8776
17921TIP3   OH275177   0.158   3.945   5.558 -0.3788  0.6775  0.0370
17921TIP3    H175178   0.124   3.871   5.509 -1.1104  0.7811  0.3743
17921TIP3    H275179   0.142   3.923   5.650 -0.3885  1.1459  0.1517
17922TIP3   OH275180   4.423   1.184   2.725  0.3875  0.0336 -0.2309
17922TIP3    H175181   4.461   1.105   2.686  0.6587  0.7327 -1.4055
17922TIP3    H275182   4.494   1.220   2.779  0.8914  0.4704 -1.1632
17923TIP3   OH275183   1.001   1.564  12.585 -0.6312  0.0894 -0.1658
17923TIP3    H175184   1.013   1.659  12.579 -0.0439 -0.0626 -1.5014
17923TIP3    H275185   1.087   1.528  12.565 -0.7374 -0.7222  0.8154
17924TIP3   OH275186   4.798   2.581   3.764  0.9205 -0.6005 -0.0356
17924TIP3    H175187   4.817   2.490   3.741 -0.5428 -1.0550  0.4858
17924TIP3    H275188   4.849   2.596   3.844  0.6234 -1.2071  0.2796
17925TIP3   OH275189   0.851   5.070   1.828  0.0720  0.3572  0.1712
17925TIP3    H175190   0.791   5.078   1.902 -0.2802 -3.2671  0.3597
17925TIP3    H275191   0.936   5.052   1.868  0.1798 -0.1207 -0.2723
17926TIP3   OH275192   3.254   5.449   4.782  0.5501  0.3510 -0.5044
17926TIP3    H175193   3.261   5.360   4.748  1.8100  0.0660  0.4657
17926TIP3    H275194   3.321   5.454   4.850 -1.0583  1.3017  1.0470
17927TIP3   OH275195   2.155   4.873   0.390 -0.0266 -0.3926  0.7316
17927TIP3    H175196   2.098   4.822   0.331  1.2604 -1.5357  0.4498
17927TIP3    H275197   2.185   4.946   0.336  1.6433 -1.7711 -0.2697
17928TIP3   OH275198   1.031   6.066  17.057 -0.1007 -0.0155  0.1617
17928TIP3    H175199   1.031   5.976  17.090  0.4363 -0.4030 -0.8984
17928TIP3    H275200   0.981   6.114  17.123 -1.3770 -1.2981  0.1804
17929TIP3   OH275201   4.726   2.332  10.969 -0.1593  0.4653 -0.5477
17929TIP3    H175202   4.788   2.275  11.015 -0.4287 -1.6985 -2.7244
17929TIP3    H275203   4.773   2.413  10.954  1.0939 -0.0617  0.4885
17930TIP3   OH275204   2.148   5.590  15.358 -0.4929 -0.0442 -0.3259
17930TIP3    H175205   2.078   5.639  15.401 -0.2574  1.5577 -1.7133
17930TIP3    H275206   2.115   5.501  15.350 -1.7831  0.3716  0.3283
17931TIP3   OH275207   6.595   6.118  12.464  0.4472 -0.5574 -0.1691
17931TIP3    H175208   6.519   6.145  12.412  0.7382 -0.3321 -0.4794
17931TIP3    H275209   6.637   6.200  12.488 -0.0921 -0.6235  1.0408
17932TIP3   OH275210   2.881   4.550   4.728 -0.4390 -0.5424 -0.3797
17932TIP3    H175211   2.927   4.629   4.700  0.2824 -0.5490  0.7748
17932TIP3    H275212   2.949   4.484   4.737 -0.5779 -0.4379  1.7517
17933TIP3   OH275213   5.490   1.305  13.499  0.3962 -0.0100 -0.0039
17933TIP3    H175214   5.425   1.373  13.516 -0.8586 -1.3056  0.5249
17933TIP3    H275215   5.534   1.293  13.583  0.9396  0.4833 -0.2194
17934TIP3   OH275216   4.902   5.507   5.289  0.1384  0.2769 -0.4184
17934TIP3    H175217   4.866   5.516   5.378 -1.2741  0.4734 -0.9946
17934TIP3    H275218   4.992   5.477   5.302 -0.5738 -1.2690  1.0372
17935TIP3   OH275219   2.422   0.332  16.743 -0.3405 -0.6608  0.2766
17935TIP3    H175220   2.490   0.399  16.735 -0.3649 -0.9595 -3.3034
17935TIP3    H275221   2.469   0.249  16.734 -0.6742 -1.0148  1.7892
17936TIP3   OH275222   1.412   5.090  16.648 -0.5656 -0.6490  0.1289
17936TIP3    H175223   1.453   5.141  16.718  1.0727  0.1424 -1.3747
17936TIP3    H275224   1.339   5.143  16.618  0.2270  0.1391 -0.4183
17937TIP3   OH275225   1.409   5.398   1.876  0.0614  0.4214  0.3467
17937TIP3    H175226   1.372   5.324   1.925  0.0757  0.7148  0.7984
17937TIP3    H275227   1.425   5.362   1.789 -1.0281  0.2071  0.2195
17938TIP3   OH275228   1.137   3.057  12.827 -0.9035 -0.1276  0.0542
17938TIP3    H175229   1.229   3.047  12.801 -1.1538  1.0171 -1.3602
17938TIP3    H275230   1.110   2.969  12.853  0.6738 -0.4214  0.7997
17939TIP3   OH275231   4.880   3.184  12.989  0.3347 -0.4591 -0.6398
17939TIP3    H175232   4.874   3.126  13.065  3.2771  1.2766  1.0076
17939TIP3    H275233   4.849   3.268  13.020  3.0192  0.6611 -0.8416
17940TIP3   OH275234   2.337   4.730   5.651  0.5375  0.1084 -0.0169
17940TIP3    H175235   2.411   4.712   5.708  1.1143  1.8867 -0.1725
17940TIP3    H275236   2.376   4.753   5.567 -0.1939  0.7480 -0.1927
17941TIP3   OH275237   0.471   1.176   0.847  0.0450 -0.7086 -0.8610
17941TIP3    H175238   0.547   1.224   0.878  0.2191 -0.7584 -1.2082
17941TIP3    H275239   0.409   1.179   0.920 -0.3427  0.8972 -1.2553
17942TIP3   OH275240   1.939   0.464   4.655 -0.0171 -0.0288  0.1476
17942TIP3    H175241   1.993   0.411   4.714  0.5964 -0.3961 -0.7384
17942TIP3    H275242   1.851   0.456   4.691  0.6473  1.3275  2.1339
17943TIP3   OH275243   2.181   4.758  12.262 -0.0276 -0.7519 -0.3660
17943TIP3    H175244   2.088   4.747  12.281  0.4275 -0.1540  2.3069
17943TIP3    H275245   2.219   4.671  12.275 -0.0679 -0.8254 -0.7232
17944TIP3   OH275246   2.586   0.282  16.071  0.5412  0.2151 -0.1752
17944TIP3    H175247   2.639   0.282  15.992  0.1932  1.6122 -0.4242
17944TIP3    H275248   2.505   0.238  16.046  1.5815 -1.9724  0.2209
17945TIP3   OH275249   2.943   6.605  14.088 -0.2179 -0.3476 -0.4112
17945TIP3    H175250   2.978   6.688  14.057  0.1730 -0.0026  0.9377
17945TIP3    H275251   2.941   6.549  14.010  2.5575 -0.1137 -0.6793
17946TIP3   OH275252   1.077   6.362  11.770 -0.5147  0.6351 -0.2333
17946TIP3    H175253   1.098   6.440  11.719  0.3973  0.1140 -0.6700
17946TIP3    H275254   0.989   6.338  11.742 -1.0060  1.8190  0.2985
17947TIP3   OH275255   0.937   2.536   2.708  0.0828 -0.5207 -0.2766
17947TIP3    H175256   0.954   2.502   2.796  2.6144  0.9236 -0.1821
17947TIP3    H275257   0.997   2.487   2.652  0.6974  0.7439 -0.7405
17948TIP3   OH275258   5.769   3.177  16.067  0.0690 -0.1572 -0.2518
17948TIP3    H175259   5.856   3.216  16.070  0.2978 -0.4937 -2.0424
17948TIP3    H275260   5.782   3.088  16.099  0.3102 -0.0691 -0.1065
17949TIP3   OH275261   4.622   2.203   4.250  0.2271 -0.3120 -0.3138
17949TIP3    H175262   4.609   2.250   4.168  0.0625  1.1146  0.5267
17949TIP3    H275263   4.547   2.226   4.304 -0.2536 -2.1528 -0.1687
17950TIP3   OH275264   4.133   3.893  13.646 -0.5520 -0.0261 -0.3400
17950TIP3    H175265   4.130   3.890  13.551 -0.0678 -1.8069 -0.3284
17950TIP3    H275266   4.164   3.981  13.667  0.0818  0.1165 -1.8541
17951TIP3   OH275267   0.855   4.987   5.042 -0.7505  0.1758 -0.4312
17951TIP3    H175268   0.931   4.953   4.993 -0.2298  0.7203 -0.0074
17951TIP3    H275269   0.791   5.008   4.974  0.7058  2.7889 -1.0700
17952TIP3   OH275270   5.287   2.382  12.019  0.1547  0.0966  0.6644
17952TIP3    H175271   5.241   2.337  11.948  1.2963  0.6029 -0.4112
17952TIP3    H275272   5.360   2.323  12.041  2.0548  1.6783 -1.2083
17953TIP3   OH275273   1.110   1.462   2.897 -0.0738  0.0981 -0.7791
17953TIP3    H175274   1.178   1.417   2.947 -0.6460 -0.7658 -0.7620
17953TIP3    H275275   1.067   1.519   2.961 -0.9563 -1.1791 -0.2159
17954TIP3   OH275276   5.594   3.583  16.074 -0.1215  0.0719  0.5247
17954TIP3    H175277   5.653   3.621  16.009  0.9102 -0.4569  1.1213
17954TIP3    H275278   5.506   3.597  16.039  0.3446  1.1206 -0.2578
17955TIP3   OH275279   1.428   6.780  16.720  1.0224  0.9036 -0.7162
17955TIP3    H175280   1.419   6.810  16.811  0.1634 -0.0030 -0.4832
17955TIP3    H275281   1.515   6.740  16.716  0.8926  0.5678 -0.1791
17956TIP3   OH275282   6.634   6.651   3.174 -0.2500  0.4700 -0.3719
17956TIP3    H175283   6.604   6.734   3.210 -0.4295 -0.1814  1.0274
17956TIP3    H275284   6.729   6.653   3.184 -0.2726  0.4228 -0.1416
17957TIP3   OH275285   2.583   1.159   3.179 -0.1577  0.3614  0.2263
17957TIP3    H175286   2.641   1.141   3.104 -1.2637  1.5301 -0.9498
17957TIP3    H275287   2.523   1.085   3.181  1.5789 -1.0378  1.6777
17958TIP3   OH275288   1.658   6.168   2.333  0.1987  0.6252  0.0909
17958TIP3    H175289   1.714   6.106   2.285  1.3621  1.5874  0.1838
17958TIP3    H275290   1.579   6.118   2.353  1.6834 -1.3088  1.4020
17959TIP3   OH275291   3.366   6.328   3.327  0.0799  0.7681 -0.4153
17959TIP3    H175292   3.421   6.292   3.258 -0.6236 -1.2153  0.0215
17959TIP3    H275293   3.417   6.315   3.408 -0.3337  0.3844 -0.2109
17960TIP3   OH275294   1.959   0.088   0.978 -0.2489 -1.0270 -0.4805
17960TIP3    H175295   1.964   0.003   0.934 -1.0035 -0.4271 -1.7319
17960TIP3    H275296   1.938   0.066   1.069  0.7711 -2.2366 -0.5101
17961TIP3   OH275297   4.870   4.722  13.845  0.5172  0.2724 -0.1715
17961TIP3    H175298   4.799   4.779  13.815  0.3429  0.2711  0.2325
17961TIP3    H275299   4.926   4.780  13.898  0.0061 -0.0772  0.7525
17962TIP3   OH275300   5.834   2.513   1.680  0.3067 -0.4716 -0.1120
17962TIP3    H175301   5.799   2.424   1.688  2.0189 -1.0823  0.8116
17962TIP3    H275302   5.919   2.501   1.637  1.7374  0.4453  2.4082
17963TIP3   OH275303   3.933   1.054   2.310 -0.6308 -0.3017  0.6290
17963TIP3    H175304   3.940   1.114   2.236  2.5860  0.8451  1.7444
17963TIP3    H275305   3.912   1.111   2.385 -0.2344 -0.9254  1.2238
17964TIP3   OH275306   6.675   0.338   5.390  0.6550  0.3288  0.0422
17964TIP3    H175307   6.581   0.350   5.379  0.4726 -0.5161  0.6039
17964TIP3    H275308   6.713   0.423   5.370 -0.2659  0.7900  0.2431
17965TIP3   OH275309   6.314   1.737  15.040 -0.1412 -0.4124  0.5451
17965TIP3    H175310   6.220   1.717  15.039 -0.4477  1.0173 -0.6750
17965TIP3    H275311   6.332   1.773  14.953  1.5463 -0.6633  0.7702
17966TIP3   OH275312   1.575   6.356   3.066 -0.1603  0.6678 -0.4742
17966TIP3    H175313   1.495   6.304   3.058 -0.0591  0.3848  0.3190
17966TIP3    H275314   1.572   6.392   3.155 -0.3852  2.2743 -1.1037
17967TIP3   OH275315   1.991   3.973   1.722 -0.0474  0.1309 -0.4726
17967TIP3    H175316   2.017   3.934   1.805  0.7983 -2.0411 -1.7185
17967TIP3    H275317   1.895   3.970   1.723 -0.0091 -1.4388 -0.2670
17968TIP3   OH275318   5.202   1.860   5.665  0.1176 -0.3932 -0.5049
17968TIP3    H175319   5.238   1.914   5.735 -1.1879 -0.4179  0.1976
17968TIP3    H275320   5.110   1.888   5.658 -0.2314 -1.6443 -0.9916
17969TIP3   OH275321   1.730   4.914   4.857 -0.3364  0.1812  0.1168
17969TIP3    H175322   1.646   4.913   4.904 -0.8393 -1.3026 -0.7919
17969TIP3    H275323   1.714   4.970   4.781 -0.4236  0.1037  0.0783
17970TIP3   OH275324   5.723   6.168   6.245  0.1653 -0.6079 -0.4171
17970TIP3    H175325   5.799   6.118   6.274 -0.6006 -0.2082  2.4461
17970TIP3    H275326   5.652   6.104   6.238  0.0662 -0.5167 -0.2601
17971TIP3   OH275327   1.587   5.597   4.202  0.3022  0.2099 -0.3085
17971TIP3    H175328   1.499   5.571   4.229  0.1309 -1.1198 -2.0485
17971TIP3    H275329   1.576   5.631   4.114  1.4593  0.5481 -0.3308
17972TIP3   OH275330   2.910   3.270  11.475  0.3943 -0.3660 -0.5063
17972TIP3    H175331   2.930   3.358  11.442 -0.3615  0.5985  1.4649
17972TIP3    H275332   2.984   3.249  11.532 -0.1461 -0.3557  0.2066
17973TIP3   OH275333   6.785   1.744   2.996 -0.2025 -0.3481 -0.1854
17973TIP3    H175334   6.836   1.678   2.949  1.0769 -0.3919  1.2316
17973TIP3    H275335   6.761   1.701   3.079  0.6146  0.9513  0.7312
17974TIP3   OH275336   3.454   1.044   0.262  0.0502 -0.3760  0.0359
17974TIP3    H175337   3.457   1.042   0.166  1.3479  1.6615  0.0046
17974TIP3    H275338   3.539   1.078   0.288  0.3571 -2.5697  2.0162
17975TIP3   OH275339   6.428   5.075   6.578  0.0242  0.1580 -0.0164
17975TIP3    H175340   6.463   5.125   6.505 -1.2714  0.8312 -0.1896
17975TIP3    H275341   6.440   4.983   6.553  0.0856  0.3850 -0.8304
17976TIP3   OH275342   5.692   0.526   3.091  0.3231 -0.1977 -0.2806
17976TIP3    H175343   5.745   0.489   3.021  0.0031  0.1485 -0.7068
17976TIP3    H275344   5.617   0.566   3.047  0.1878  0.1399  0.2426
17977TIP3   OH275345   6.726   1.481   0.768 -0.2374 -0.6179  0.3662
17977TIP3    H175346   6.756   1.446   0.684  0.5941  0.0319  0.3914
17977TIP3    H275347   6.735   1.576   0.760 -0.9053 -0.4994  0.9122
17978TIP3   OH275348   1.220   5.150  14.316  0.4455 -0.2756 -0.0908
17978TIP3    H175349   1.196   5.220  14.256 -1.0165  0.1097  0.9281
17978TIP3    H275350   1.220   5.071  14.262 -1.4090 -0.0158 -0.4750
17979TIP3   OH275351   6.589   4.938  15.685  0.5661 -0.6398  0.0684
17979TIP3    H175352   6.626   4.850  15.681 -0.4251 -1.1254  1.2052
17979TIP3    H275353   6.506   4.931  15.638 -0.0846 -0.6093  1.2147
17980TIP3   OH275354   2.558   2.838   2.571  0.0672 -0.1833 -0.2971
17980TIP3    H175355   2.555   2.933   2.585  1.9974  0.2577 -2.6094
17980TIP3    H275356   2.565   2.801   2.659  2.3719  1.9727  0.4710
17981TIP3   OH275357   4.697   1.975   4.139 -0.2891 -0.1851  0.5021
17981TIP3    H175358   4.755   1.939   4.206  0.7727  0.1876 -0.1972
17981TIP3    H275359   4.666   2.058   4.176 -1.4617 -1.0389  1.4439
17982TIP3   OH275360   3.730   5.412  15.855  0.0068  0.1850 -0.5112
17982TIP3    H175361   3.665   5.358  15.900 -0.7466  1.5898  0.1274
17982TIP3    H275362   3.784   5.350  15.807 -1.9934 -0.9860 -1.2837
17983TIP3   OH275363   3.422   4.395  13.350  0.2555 -0.1279 -0.0710
17983TIP3    H175364   3.491   4.457  13.373  1.8259 -1.7349 -0.3219
17983TIP3    H275365   3.446   4.364  13.262 -1.2352 -0.0940 -0.4979
17984TIP3   OH275366   4.994   3.651  17.059  0.3136 -0.3037  0.5143
17984TIP3    H175367   5.041   3.724  17.019 -0.8965 -0.2997 -0.9062
17984TIP3    H275368   4.902   3.672  17.049 -0.0248 -0.3712  3.2154
17985TIP3   OH275369   4.250   6.032   0.660  0.3101 -0.1616 -0.5248
17985TIP3    H175370   4.308   6.100   0.625 -0.7657  0.2035 -1.6052
17985TIP3    H275371   4.164   6.073   0.662  0.0605 -0.7375  1.0055
17986TIP3   OH275372   6.194   4.493  13.691  0.0683  0.0060  0.1534
17986TIP3    H175373   6.135   4.567  13.678 -0.4696 -0.5104 -0.4390
17986TIP3    H275374   6.235   4.480  13.605 -0.8694 -1.2358 -0.1262
17987TIP3   OH275375   4.010   1.900  13.525 -0.1381 -0.1422  0.2822
17987TIP3    H175376   4.001   1.964  13.455 -0.7358  0.4918  0.9241
17987TIP3    H275377   4.063   1.829  13.488  0.0227  0.4540 -0.6147
17988TIP3   OH275378   0.166   2.646  16.313 -0.1276  0.4616  0.1979
17988TIP3    H175379   0.120   2.583  16.257  0.9421 -1.0110  0.9400
17988TIP3    H275380   0.106   2.719  16.321 -0.3738  0.6474 -2.7673
17989TIP3   OH275381   4.099   3.241  14.318  0.3567 -0.1489  0.1583
17989TIP3    H175382   4.139   3.291  14.390 -0.0224 -0.4526  0.5795
17989TIP3    H275383   4.007   3.267  14.319  0.1770 -0.7902  0.3194
17990TIP3   OH275384   0.449   1.573   4.624 -0.1622 -0.7055 -0.5668
17990TIP3    H175385   0.455   1.482   4.595  1.8654 -0.7590 -0.0775
17990TIP3    H275386   0.414   1.567   4.713  0.3657 -1.0655 -0.3739
17991TIP3   OH275387   4.595   4.580  15.001 -0.2147 -0.1978 -0.6423
17991TIP3    H175388   4.560   4.659  15.041 -1.0665 -1.4669  1.2168
17991TIP3    H275389   4.532   4.556  14.934 -2.1750 -1.5942  1.6215
17992TIP3   OH275390   2.555   2.308   5.378  0.2499 -0.3177 -0.7431
17992TIP3    H175391   2.521   2.225   5.410 -2.1883 -0.0603 -2.4789
17992TIP3    H275392   2.578   2.290   5.287  0.6409  0.6394 -0.8340
17993TIP3   OH275393   2.852   1.823   4.436 -0.2801  1.2651 -0.2134
17993TIP3    H175394   2.798   1.790   4.508 -0.5460  1.2596 -0.4133
17993TIP3    H275395   2.884   1.744   4.392  1.5018  1.2342  1.0768
17994TIP3   OH275396   3.267   5.832  14.426  0.4062  0.1019  0.2794
17994TIP3    H175397   3.357   5.823  14.395  0.3338  0.4330 -0.0378
17994TIP3    H275398   3.275   5.871  14.512  0.5303  0.9943 -0.1295
17995TIP3   OH275399   5.107   6.658  14.859  0.4740  0.3826 -0.2020
17995TIP3    H175400   5.110   6.577  14.808  0.2407  0.2679 -0.0354
17995TIP3    H275401   5.169   6.716  14.815  2.9512 -0.9235  1.4708
17996TIP3   OH275402   1.230   1.650  15.895  0.0017  0.0598  1.0093
17996TIP3    H175403   1.140   1.665  15.925 -1.1951 -0.0712 -2.2754
17996TIP3    H275404   1.234   1.556  15.879 -0.0424  0.3712 -0.9880
17997TIP3   OH275405   3.913   5.514  13.570  0.0719  0.0124 -0.1871
17997TIP3    H175406   3.870   5.437  13.533  0.2384  1.2161 -3.0823
17997TIP3    H275407   3.854   5.544  13.639  0.2985 -3.0039  1.3673
17998TIP3   OH275408   4.996   4.609  17.183  0.1757  0.2520  0.0226
17998TIP3    H175409   4.916   4.619  17.131  0.8520 -0.6137 -1.2020
17998TIP3    H275410   5.052   4.681  17.155  0.2857  0.1696  0.0322
17999TIP3   OH275411   0.281   3.923  16.822  0.0640  0.5098 -0.0802
17999TIP3    H175412   0.200   3.954  16.782  0.5758 -1.2736 -2.6095
17999TIP3    H275413   0.350   3.980  16.787  0.2208  0.4201  0.0793
18000TIP3   OH275414   3.962   4.602   1.699  0.0070  1.1470 -0.1108
18000TIP3    H175415   3.960   4.587   1.604  0.5554  1.7834 -0.2257
18000TIP3    H275416   4.042   4.558   1.728 -1.3847 -1.1094  0.4253
18001TIP3   OH275417   2.318   3.167  10.522 -0.0212 -0.1987 -0.1023
18001TIP3    H175418   2.309   3.262  10.510 -0.3341 -0.4122 -1.5592
18001TIP3    H275419   2.266   3.128  10.452 -2.8012 -1.4942  2.5327
18002TIP3   OH275420   6.441   4.644   3.698 -0.0472  0.0972  0.2539
18002TIP3    H175421   6.365   4.701   3.690 -1.0456 -1.3307 -0.5065
18002TIP3    H275422   6.406   4.559   3.724  1.3104 -0.4905  0.2226
18003TIP3   OH275423   2.585   4.252   1.917  0.9128  0.2383  0.0701
18003TIP3    H175424   2.520   4.198   1.962  1.3097 -0.0045  0.3575
18003TIP3    H275425   2.558   4.342   1.935 -0.0105  0.1383 -0.7879
18004TIP3   OH275426   1.586   6.083   5.715 -0.0950 -0.4957  0.2699
18004TIP3    H175427   1.490   6.078   5.712  0.0043 -1.2842 -2.3088
18004TIP3    H275428   1.614   5.993   5.727  0.3512 -0.2323  1.3196
18005TIP3   OH275429   2.531   6.205  10.785  0.2641 -0.1721 -0.0027
18005TIP3    H175430   2.548   6.285  10.835  0.1217 -0.1260 -0.0266
18005TIP3    H275431   2.616   6.181  10.748  0.3418 -0.1253  0.1424
18006TIP3   OH275432   1.180   4.278   0.386  0.0566 -0.1061 -0.3221
18006TIP3    H175433   1.228   4.242   0.460 -0.3503 -1.8555 -0.8962
18006TIP3    H275434   1.137   4.203   0.346 -0.3503  0.9302 -1.8782
18007TIP3   OH275435   2.970   2.134   1.740 -0.1839  0.0876 -0.6174
18007TIP3    H175436   2.959   2.110   1.832  3.5441  1.9849  0.4242
18007TIP3    H275437   3.026   2.065   1.705 -0.6788 -0.0231 -1.1985
18008TIP3   OH275438   6.036   4.380   1.056 -0.6901  0.1437 -0.4727
18008TIP3    H175439   5.956   4.413   1.097 -0.6290  1.9470 -1.7594
18008TIP3    H275440   6.014   4.369   0.964  0.4015  0.1554 -0.7476
18009TIP3   OH275441   0.318   6.461   1.781 -0.3817 -0.4254  0.1266
18009TIP3    H175442   0.334   6.536   1.723 -1.2379  0.9837  1.6621
18009TIP3    H275443   0.260   6.496   1.849 -2.3933 -3.0168 -0.2086
18010TIP3   OH275444   2.831   1.332  11.022  0.3012 -0.3337  0.2496
18010TIP3    H175445   2.766   1.271  10.988  1.4583 -1.7606  0.5273
18010TIP3    H275446   2.914   1.284  11.015  0.8840  0.2240  2.8653
18011TIP3   OH275447   6.561   0.670  16.383 -1.0110 -0.2497  0.1667
18011TIP3    H175448   6.557   0.579  16.353 -0.7729 -0.2461  0.1240
18011TIP3    H275449   6.508   0.718  16.319 -0.5000 -0.2414 -0.2546
18012TIP3   OH275450   2.958   3.521  11.368  0.3538  0.0381  0.0951
18012TIP3    H175451   3.051   3.535  11.349  0.1643 -0.0003 -0.9156
18012TIP3    H275452   2.913   3.554  11.291 -0.4259 -0.6826  0.2293
18013TIP3   OH275453   0.851   0.628   3.657 -0.0100 -0.3159  0.3610
18013TIP3    H175454   0.845   0.533   3.664 -0.3412 -0.1898  2.0285
18013TIP3    H275455   0.872   0.644   3.565 -0.2121 -1.9824  0.0048
18014TIP3   OH275456   5.951   2.336  12.085 -0.3086 -0.2444  0.5710
18014TIP3    H175457   6.027   2.320  12.142  2.0094 -0.5546 -2.4541
18014TIP3    H275458   5.909   2.251  12.077 -0.1483 -0.3799  1.1511
18015TIP3   OH275459   3.379   1.155  14.920  0.2229  0.1448  0.0191
18015TIP3    H175460   3.447   1.144  14.854  0.2107  0.0889  0.0155
18015TIP3    H275461   3.420   1.124  15.001  0.0444 -0.3438 -0.0737
18016TIP3   OH275462   0.217   1.417  15.263 -0.7581  0.1021 -0.3989
18016TIP3    H175463   0.253   1.340  15.307  1.3778  0.1624 -1.9421
18016TIP3    H275464   0.292   1.475  15.252 -1.7363  1.1091 -1.9385
18017TIP3   OH275465   4.589   3.653  16.702 -0.1413 -0.3802 -0.7295
18017TIP3    H175466   4.619   3.708  16.629  1.1425  0.6975  0.5884
18017TIP3    H275467   4.520   3.704  16.744  1.5371  0.5697  0.9257
18018TIP3   OH275468   0.952   4.534  11.874 -0.0100  0.3595  0.2595
18018TIP3    H175469   0.947   4.438  11.879 -1.9085  0.2645 -2.4210
18018TIP3    H275470   0.997   4.551  11.792  1.6212  1.7824  1.4349
18019TIP3   OH275471   3.606   2.826  13.980  0.2219  0.4968 -0.4853
18019TIP3    H175472   3.553   2.852  13.905 -1.2499 -0.5403  0.1802
18019TIP3    H275473   3.597   2.731  13.984  0.0795  0.5713  1.1580
18020TIP3   OH275474   2.989   5.793  15.024 -0.1311 -0.2369  0.2440
18020TIP3    H175475   3.074   5.791  14.980 -1.7447  0.1999 -3.0777
18020TIP3    H275476   3.000   5.856  15.095  1.9420  0.9525 -1.0769
18021TIP3   OH275477   0.523   3.214   5.630 -0.0064  0.3463  0.2155
18021TIP3    H175478   0.545   3.287   5.688  0.8258 -1.2154  1.9063
18021TIP3    H275479   0.438   3.183   5.662 -0.7888  1.1015 -1.0674
18022TIP3   OH275480   1.192   1.970  17.192  1.0228 -0.1946  0.3954
18022TIP3    H175481   1.204   2.048  17.138 -2.1947  1.0813  1.4196
18022TIP3    H275482   1.258   1.979  17.261  1.7482  0.7674 -0.3985
18023TIP3   OH275483   5.223   1.109  13.570 -0.5665  0.1363 -0.2073
18023TIP3    H175484   5.243   1.190  13.523 -0.8700  0.9960  1.1507
18023TIP3    H275485   5.309   1.075  13.596 -0.5081  0.7200  0.3815
18024TIP3   OH275486   6.407   3.902   4.900 -0.4245 -0.0937 -0.0476
18024TIP3    H175487   6.314   3.922   4.898 -1.1159 -3.0621  0.4520
18024TIP3    H275488   6.438   3.925   4.812 -1.9462 -0.4724 -0.7047
18025TIP3   OH275489   4.035   2.581  12.845 -1.1023 -0.1374 -0.3567
18025TIP3    H175490   4.071   2.629  12.920  0.9905  0.8134 -1.9387
18025TIP3    H275491   4.042   2.642  12.772  0.9677 -2.5953 -2.2863
18026TIP3   OH275492   5.041   5.807  12.314 -0.5083 -0.9348  0.3374
18026TIP3    H175493   5.097   5.787  12.238 -0.0854 -1.7116  0.8465
18026TIP3    H275494   4.978   5.734  12.316 -1.1024 -0.4264  0.1807
18027TIP3   OH275495   4.539   6.729  14.082 -0.0370 -0.2248 -0.7057
18027TIP3    H175496   4.579   6.655  14.127 -1.7207  0.3606  1.8607
18027TIP3    H275497   4.544   6.801  14.145 -3.0134  0.4639 -1.1868
18028TIP3   OH275498   5.098   0.448  12.716 -0.0430 -0.3090 -0.0225
18028TIP3    H175499   5.092   0.543  12.725 -0.2912 -0.1381 -1.8307
18028TIP3    H275500   5.007   0.418  12.720  0.0036 -0.4347  0.0958
18029TIP3   OH275501   0.037   4.334  16.685 -0.2778  0.0165 -0.1944
18029TIP3    H175502   0.043   4.241  16.664  1.2046  0.0907 -0.1962
18029TIP3    H275503   0.107   4.374  16.634 -1.7335  1.3296 -1.1889
18030TIP3   OH275504   2.691   5.100   0.505  0.1376 -0.4551  0.1384
18030TIP3    H175505   2.638   5.093   0.584 -0.2812  0.2563 -0.0769
18030TIP3    H275506   2.732   5.186   0.511 -0.8359  0.1126 -0.9902
18031TIP3   OH275507   1.076   3.942   4.870 -0.0540  0.0005 -0.2416
18031TIP3    H175508   1.139   3.999   4.914 -0.5864  0.3448  0.0663
18031TIP3    H275509   1.122   3.913   4.791  1.1028 -1.0492  0.8030
18032TIP3   OH275510   1.805   4.902   1.375  0.1419  0.1645 -0.2777
18032TIP3    H175511   1.858   4.981   1.381  0.0857  0.3809 -2.4047
18032TIP3    H275512   1.770   4.890   1.464  0.5284  2.2378  0.1762
18033TIP3   OH275513   2.933   3.345   0.221  0.0696  0.3773 -0.1146
18033TIP3    H175514   2.886   3.387   0.149 -0.3098  0.6761  0.2996
18033TIP3    H275515   2.871   3.283   0.258  0.7017 -0.7153 -0.8550
18034TIP3   OH275516   5.086   5.783  15.027 -0.1410 -0.1802  0.6980
18034TIP3    H175517   5.180   5.766  15.027  0.6986  3.7439 -1.5019
18034TIP3    H275518   5.071   5.836  15.106 -0.5070 -0.7082  0.9881
18035TIP3   OH275519   2.909   2.367  14.113 -0.6935 -0.7019 -0.5497
18035TIP3    H175520   2.976   2.300  14.105 -1.4020 -1.7945  2.0101
18035TIP3    H275521   2.827   2.318  14.118 -1.4076  0.4565 -0.6627
18036TIP3   OH275522   0.011   3.987   3.794  0.3302  0.2718  0.2348
18036TIP3    H175523  -0.014   4.063   3.847  1.2577  0.0195  1.0445
18036TIP3    H275524   0.090   4.015   3.747 -0.0712  0.2446 -0.4623
18037TIP3   OH275525   2.836   5.356   5.491  0.0366 -0.0402  0.4514
18037TIP3    H175526   2.894   5.328   5.420 -0.9361 -0.0537 -0.3498
18037TIP3    H275527   2.888   5.344   5.570  2.1906  2.7316 -0.4749
18038TIP3   OH275528   4.051   1.756   0.371 -0.5730 -0.0063  0.6842
18038TIP3    H175529   3.962   1.729   0.350  0.2102 -1.6148 -0.7744
18038TIP3    H275530   4.058   1.745   0.466 -1.6067 -0.8562  0.6672
18039TIP3   OH275531   4.399   5.972   3.166  0.6212 -0.3026 -0.1168
18039TIP3    H175532   4.355   6.023   3.098  2.3659 -0.4625 -1.3816
18039TIP3    H275533   4.334   5.907   3.192 -0.4597  0.4703 -0.8179
18040TIP3   OH275534   6.744   2.416  16.779  0.4105 -0.1296  0.5599
18040TIP3    H175535   6.829   2.431  16.739  0.9645 -0.8598  1.4392
18040TIP3    H275536   6.683   2.410  16.706  0.9265  1.5579 -0.0170
18041TIP3   OH275537   2.254   1.332   1.590  0.6993  0.8894  0.5038
18041TIP3    H175538   2.230   1.258   1.646 -0.0721  0.4141 -0.4456
18041TIP3    H275539   2.278   1.401   1.652 -1.7714  0.9459  1.4691
18042TIP3   OH275540   1.042   0.541  13.674  0.6586  0.5971 -0.5118
18042TIP3    H175541   1.033   0.635  13.690  0.6184  0.4417  0.4303
18042TIP3    H275542   1.131   0.531  13.642 -0.6721  1.4826 -4.7956
18043TIP3   OH275543   3.322   1.775   2.549  0.1071 -0.3814  0.0308
18043TIP3    H175544   3.416   1.779   2.533  0.3482  0.3434  1.4642
18043TIP3    H275545   3.289   1.859   2.517  0.0559 -0.3513  0.1626
18044TIP3   OH275546   3.906   3.642   1.518  0.4787 -0.0474 -0.6914
18044TIP3    H175547   3.904   3.735   1.495  2.0242  0.6631  1.8071
18044TIP3    H275548   3.842   3.633   1.588  0.5724 -0.7949 -0.6973
18045TIP3   OH275549   1.523   1.336   0.877  0.5005  0.3033 -0.7181
18045TIP3    H175550   1.566   1.397   0.818  0.5121  0.3681 -0.6431
18045TIP3    H275551   1.516   1.255   0.827  1.7034 -0.0366 -0.3521
18046TIP3   OH275552   6.110   2.021   0.064 -0.4858  0.0772  0.2897
18046TIP3    H175553   6.051   2.096   0.067  0.3658  0.7611  0.2046
18046TIP3    H275554   6.198   2.059   0.067 -0.0479 -0.9602  1.1718
18047TIP3   OH275555   6.041   6.758   1.867  0.1082 -0.4393 -0.4737
18047TIP3    H175556   6.117   6.701   1.878  0.0532 -0.7755 -1.7922
18047TIP3    H275557   6.029   6.798   1.953  3.2266  1.4235 -0.8136
18048TIP3   OH275558   1.653   6.656  16.843  0.0895  0.0784 -0.4343
18048TIP3    H175559   1.681   6.731  16.896  1.8837 -1.1437  0.3635
18048TIP3    H275560   1.618   6.594  16.906  2.2487 -1.3957 -0.6533
18049TIP3   OH275561   5.215   3.288  16.909  0.0897 -0.2383  0.1323
18049TIP3    H175562   5.185   3.220  16.969  1.0351 -0.6566  0.1301
18049TIP3    H275563   5.152   3.285  16.837  0.1672 -1.1667  0.0951
18050TIP3   OH275564   2.165   3.612   2.342 -0.1110 -0.1955 -0.2505
18050TIP3    H175565   2.168   3.526   2.384  0.8229  0.5937  1.3705
18050TIP3    H275566   2.255   3.644   2.348 -0.6627  1.3102  0.0846
18051TIP3   OH275567   1.455   4.482  10.941  0.6723  0.2300  0.5702
18051TIP3    H175568   1.452   4.541  10.866  1.3102  0.9083  1.0825
18051TIP3    H275569   1.381   4.422  10.926 -0.7051  1.8526  0.6428
18052TIP3   OH275570   6.622   2.435  13.826 -0.0685 -0.4141  0.3352
18052TIP3    H175571   6.649   2.473  13.909 -0.8703 -1.6786  1.1946
18052TIP3    H275572   6.601   2.344  13.847 -0.4565 -0.6944 -1.2125
18053TIP3   OH275573   4.065   5.864  16.134 -0.0628  0.2408 -0.1457
18053TIP3    H175574   3.990   5.804  16.130 -0.9202  1.2294  0.7992
18053TIP3    H275575   4.095   5.858  16.225  1.9372 -1.2472 -0.8677
18054TIP3   OH275576   1.285   0.835   5.170 -0.2920 -0.3621 -0.4781
18054TIP3    H175577   1.257   0.922   5.198 -0.7510 -0.0905 -1.7441
18054TIP3    H275578   1.246   0.775   5.234 -0.5459  0.3107  0.0007
18055TIP3   OH275579   1.087   0.139  14.563 -0.2951 -0.3924  0.4862
18055TIP3    H175580   1.080   0.183  14.479 -2.0849  0.4482  1.0617
18055TIP3    H275581   1.177   0.156  14.591 -0.1731  0.6684 -0.5083
18056TIP3   OH275582   1.688   0.152  12.781 -0.2120  0.4238  0.3438
18056TIP3    H175583   1.716   0.065  12.753 -0.2779  0.4032  0.3428
18056TIP3    H275584   1.755   0.211  12.747 -1.3985  0.6391 -1.6637
18057TIP3   OH275585   4.570   5.549  15.048 -0.2246 -0.6876 -0.3728
18057TIP3    H175586   4.481   5.570  15.075 -0.0039  1.0213 -0.8559
18057TIP3    H275587   4.623   5.620  15.085  0.3959  0.3875 -3.1749
18058TIP3   OH275588   4.000   1.522   4.374  0.2735  0.4481 -0.2896
18058TIP3    H175589   3.939   1.595   4.371  0.4250  0.5661 -0.5433
18058TIP3    H275590   3.980   1.476   4.455  0.2682  0.8494 -0.0669
18059TIP3   OH275591   2.495   2.121  13.967  0.0478  0.9579  0.2395
18059TIP3    H175592   2.454   2.162  13.890 -0.5437  0.6841  0.4055
18059TIP3    H275593   2.421   2.084  14.016  0.6262 -0.9151 -0.2644
18060TIP3   OH275594   2.632   3.890   5.741  0.1922  0.0515 -0.2141
18060TIP3    H175595   2.600   3.929   5.823  1.3997  0.3133  0.1520
18060TIP3    H275596   2.661   3.802   5.766 -0.1527 -0.1496 -0.5202
18061TIP3   OH275597   0.959   2.683  15.795  0.1671 -0.1200 -0.4877
18061TIP3    H175598   0.917   2.769  15.791  0.0775 -0.1624 -0.4544
18061TIP3    H275599   1.005   2.683  15.879  0.4912  0.0459 -0.6618
18062TIP3   OH275600   2.269   1.615  12.394 -0.0558 -0.3343  0.4434
18062TIP3    H175601   2.312   1.687  12.441  0.3633  0.6201 -1.3610
18062TIP3    H275602   2.326   1.598  12.319 -0.1737 -2.5444  0.8311
18063TIP3   OH275603   4.117   5.807  14.536  0.2146  0.2059 -0.4804
18063TIP3    H175604   4.103   5.728  14.483  1.1695  0.8037 -1.6626
18063TIP3    H275605   4.101   5.779  14.626 -2.8624 -0.4981 -1.1773
18064TIP3   OH275606   5.700   4.414  14.259 -0.0383  0.3899 -0.0977
18064TIP3    H175607   5.641   4.428  14.333 -0.7830 -1.4077 -0.3108
18064TIP3    H275608   5.785   4.397  14.298 -0.1992  0.4956  0.3048
18065TIP3   OH275609   3.122   5.778  12.261 -0.4122 -0.9768  0.1270
18065TIP3    H175610   3.183   5.727  12.208 -0.3740  0.2355 -1.0305
18065TIP3    H275611   3.046   5.791  12.204 -0.0006  1.1164  0.0220
18066TIP3   OH275612   5.285   2.881  13.894 -0.0332 -0.5455 -0.5099
18066TIP3    H175613   5.228   2.805  13.885  1.0685 -1.2177 -1.9749
18066TIP3    H275614   5.352   2.854  13.957  0.7091 -1.0239 -1.4879
18067TIP3   OH275615   2.814   4.625   0.365 -0.0368 -0.2730 -0.2543
18067TIP3    H175616   2.757   4.662   0.298 -2.2164 -0.0810  1.6435
18067TIP3    H275617   2.809   4.530   0.351 -1.0392 -0.2710  0.0675
18068TIP3   OH275618   2.603   4.935   0.004 -0.4529  0.8742  0.2443
18068TIP3    H175619   2.603   4.841   0.025 -1.0574  0.5609 -1.1088
18068TIP3    H275620   2.666   4.973   0.065 -0.0685 -0.4446  0.6911
18069TIP3   OH275621   1.250   4.235  15.015 -0.2352 -0.4340 -0.2237
18069TIP3    H175622   1.191   4.175  14.970  1.2555 -2.0183 -0.1277
18069TIP3    H275623   1.197   4.270  15.088 -0.7715 -2.5946  0.4744
18070TIP3   OH275624   6.014   0.153   6.417  0.3883  0.2700  0.5476
18070TIP3    H175625   6.002   0.220   6.484 -1.2605  0.2303  0.3245
18070TIP3    H275626   5.973   0.190   6.339 -0.7326 -1.0641  0.4712
18071TIP3   OH275627   4.437   1.146   1.005 -0.5681  0.5316  0.4814
18071TIP3    H175628   4.387   1.228   1.001 -0.3883  0.5693 -1.3870
18071TIP3    H275629   4.477   1.138   0.918  1.9851  0.0467  1.6573
18072TIP3   OH275630   1.233   4.738   3.971  0.1266 -0.4390 -1.2959
18072TIP3    H175631   1.311   4.683   3.965  0.7440  0.4854 -2.0959
18072TIP3    H275632   1.160   4.679   3.953  0.7477 -1.0711 -1.7637
18073TIP3   OH275633   0.274   6.150  16.165  0.2100 -0.1711  0.3459
18073TIP3    H175634   0.350   6.208  16.172  0.5007 -0.3537 -1.2585
18073TIP3    H275635   0.310   6.063  16.182  0.8088 -0.5417 -2.6147
18074TIP3   OH275636   3.464   0.928   4.503  0.1615  0.6101  0.7641
18074TIP3    H175637   3.399   0.865   4.535 -0.8518  0.9933 -0.4760
18074TIP3    H275638   3.475   0.990   4.575 -2.7002  1.9416  0.1675
18075TIP3   OH275639   6.143   4.999  15.247 -0.3463 -0.5615 -0.6217
18075TIP3    H175640   6.071   5.060  15.258  0.0210  0.0882 -1.7505
18075TIP3    H275641   6.115   4.942  15.175  1.1301  0.9912 -2.4491
18076TIP3   OH275642   4.207   0.470  12.966 -0.6750 -0.6274 -0.3239
18076TIP3    H175643   4.255   0.545  13.002 -0.8984 -0.4271 -0.4404
18076TIP3    H275644   4.117   0.484  12.994 -0.7995 -0.6218 -0.7197
18077TIP3   OH275645   6.695   1.280   3.336 -0.2508 -0.0240  0.6604
18077TIP3    H175646   6.787   1.254   3.348  0.2196  1.2949  0.1140
18077TIP3    H275647   6.646   1.225   3.396  0.6803 -2.2108 -0.5357
18078TIP3   OH275648   0.161   6.273  13.937 -0.1984 -0.0350 -0.2304
18078TIP3    H175649   0.194   6.257  13.848 -0.2962  0.9167 -0.4430
18078TIP3    H275650   0.172   6.367  13.950 -2.6475  0.2730 -0.2276
18079TIP3   OH275651   5.569   4.878  13.224  0.6638 -0.2550 -0.1298
18079TIP3    H175652   5.560   4.893  13.130 -2.6471 -0.3872  0.1028
18079TIP3    H275653   5.589   4.785  13.232 -2.0717 -0.9252 -0.6265
18080TIP3   OH275654   4.859   0.733  17.035 -0.0304 -0.1952 -0.4728
18080TIP3    H175655   4.920   0.799  17.067 -0.3789 -0.1130  0.0196
18080TIP3    H275656   4.916   0.663  17.001  0.3553 -0.9443  1.6539
18081TIP3   OH275657   1.228   0.480  12.468 -0.0034 -0.0434 -0.6921
18081TIP3    H175658   1.147   0.438  12.498 -0.8003  1.6768 -0.3941
18081TIP3    H275659   1.203   0.527  12.388  0.9020 -0.1975 -1.0760
18082TIP3   OH275660   1.404   6.290  14.181  0.4494 -1.3353  0.0474
18082TIP3    H175661   1.348   6.282  14.259  1.2803 -2.9319  0.5077
18082TIP3    H275662   1.358   6.352  14.125  0.4161  0.7717  2.3197
18083TIP3   OH275663   6.229   0.262   2.261  0.0218 -0.6689 -0.5702
18083TIP3    H175664   6.180   0.234   2.338  1.9727 -2.4998  0.0524
18083TIP3    H275665   6.235   0.357   2.269 -0.5184 -0.7690  1.1024
18084TIP3   OH275666   0.695   5.792  12.650  0.1093 -0.2898 -0.4436
18084TIP3    H175667   0.790   5.783  12.662  0.1389 -2.3982 -2.0563
18084TIP3    H275668   0.663   5.702  12.644 -1.8419  0.4315 -1.1673
18085TIP3   OH275669   1.408   0.957   3.145 -0.0628 -0.6544  0.1609
18085TIP3    H175670   1.324   1.003   3.141  0.3332  0.3488  2.6939
18085TIP3    H275671   1.432   0.944   3.053 -1.2542  2.3081 -0.6321
18086TIP3   OH275672   0.280   6.089  13.577  0.0599  0.0728 -0.3244
18086TIP3    H175673   0.266   6.177  13.613  3.4285  1.1401 -1.4088
18086TIP3    H275674   0.248   6.030  13.645  1.0061  2.0913  1.9593
18087TIP3   OH275675   4.228   5.974  17.038 -0.0767 -0.0879 -0.0235
18087TIP3    H175676   4.147   5.941  17.076  1.8968 -2.8505  2.0612
18087TIP3    H275677   4.278   6.006  17.114  1.4426 -0.0293 -1.0284
18088TIP3   OH275678   3.875   2.040  11.760 -0.8329  0.7415 -0.8008
18088TIP3    H175679   3.936   1.970  11.739 -0.1296  0.5671  1.6755
18088TIP3    H275680   3.867   2.090  11.679  0.7135 -0.6358 -1.8347
18089TIP3   OH275681   1.093   6.442   3.292  0.4669 -0.5795  0.2845
18089TIP3    H175682   1.052   6.469   3.374  0.6113  1.3882 -0.2565
18089TIP3    H275683   1.021   6.443   3.228  0.8893  0.6068 -0.1797
18090TIP3   OH275684   4.355   5.144  11.996 -0.5123  0.4328 -0.2156
18090TIP3    H175685   4.322   5.089  11.925  1.3671 -0.6549 -0.2802
18090TIP3    H275686   4.280   5.152  12.056 -1.4192 -0.5395 -1.1780
18091TIP3   OH275687   3.376   6.709   6.639 -0.9264 -0.2064  0.1036
18091TIP3    H175688   3.407   6.627   6.678 -2.5914 -1.0065 -0.1973
18091TIP3    H275689   3.294   6.727   6.683  0.2653  2.2758  1.4069
18092TIP3   OH275690   5.030   3.181   1.989 -0.3739 -0.1095 -0.2474
18092TIP3    H175691   5.003   3.259   2.037  1.2423 -0.3654  1.1490
18092TIP3    H275692   4.993   3.108   2.038  2.2910 -0.4374  1.4001
18093TIP3   OH275693   0.707   4.216   5.694 -0.1786  0.4462 -0.1155
18093TIP3    H175694   0.619   4.254   5.686 -1.5987 -2.4700  1.0998
18093TIP3    H275695   0.735   4.204   5.603 -0.8908  1.6989 -0.5195
18094TIP3   OH275696   2.955   2.646   3.160  0.4040 -0.2523 -0.6686
18094TIP3    H175697   2.962   2.554   3.185  0.3881 -0.3900 -1.1623
18094TIP3    H275698   2.866   2.654   3.126  0.7424 -0.2903 -1.5722
18095TIP3   OH275699   4.371   6.575   0.565 -0.2416 -0.5174  0.0704
18095TIP3    H175700   4.398   6.667   0.559 -0.6642 -0.5073 -2.1976
18095TIP3    H275701   4.359   6.559   0.658 -5.3195  3.2756  0.3216
18096TIP3   OH275702   0.158   4.911   2.096  0.6803 -0.0133  0.4380
18096TIP3    H175703   0.099   4.863   2.154  0.2011 -0.8454 -0.7173
18096TIP3    H275704   0.155   5.002   2.128 -2.4900  0.2971 -0.5637
18097TIP3   OH275705   6.478   0.678  12.882  0.1642  0.4900  0.4421
18097TIP3    H175706   6.480   0.613  12.813  1.2344  1.7735 -0.7814
18097TIP3    H275707   6.390   0.674  12.918  0.0360 -1.1681 -0.0311
18098TIP3   OH275708   4.893   5.333  17.078  0.4420  0.4111  0.0378
18098TIP3    H175709   4.918   5.311  17.168  0.9344 -0.3159 -0.2636
18098TIP3    H275710   4.840   5.412  17.086  0.0860  0.0862  1.0135
18099TIP3   OH275711   1.007   2.558  11.530 -0.5303  0.5034  0.0257
18099TIP3    H175712   0.992   2.637  11.582 -1.1338 -0.8646  2.0008
18099TIP3    H275713   0.931   2.552  11.473 -0.7500  1.0417  0.2599
18100TIP3   OH275714   2.046   2.522  13.455  0.0934  0.5685  0.5313
18100TIP3    H175715   2.042   2.609  13.417  1.9898  0.3608 -0.1897
18100TIP3    H275716   2.133   2.490  13.434 -1.0699 -2.0883 -0.4819
18101TIP3   OH275717   2.698   0.085   2.621 -0.2667 -0.0011  0.5113
18101TIP3    H175718   2.786   0.117   2.642 -0.3098  0.2044  0.3779
18101TIP3    H275719   2.660   0.061   2.705 -0.2512  0.3406  0.6165
18102TIP3   OH275720   1.667   5.448   3.889 -0.2331  0.6408 -0.2322
18102TIP3    H175721   1.595   5.401   3.931  1.0284 -0.6368  0.5723
18102TIP3    H275722   1.671   5.532   3.934  0.6128 -0.4129  1.7207
18103TIP3   OH275723   0.439   0.978  15.466  0.1244  0.1582  0.7116
18103TIP3    H175724   0.471   0.970  15.376  1.3787  2.9747  0.8550
18103TIP3    H275725   0.498   0.922  15.517 -0.2359 -0.9966 -0.1295
18104TIP3   OH275726   2.087   4.286  14.693  0.3960 -0.4681  0.0086
18104TIP3    H175727   2.138   4.360  14.727 -1.1133 -0.1145  1.5619
18104TIP3    H275728   2.101   4.290  14.598 -1.1134  2.9571 -0.1423
18105TIP3   OH275729   2.442   1.396  16.967  0.0438  0.1335  0.0686
18105TIP3    H175730   2.373   1.432  16.911  0.2904 -1.2656 -1.1482
18105TIP3    H275731   2.439   1.451  17.046 -1.2180  1.2549 -0.7342
18106TIP3   OH275732   0.042   0.794   3.734 -0.2999 -0.1032 -0.2913
18106TIP3    H175733   0.116   0.775   3.676  0.9511  2.4521  0.4197
18106TIP3    H275734   0.082   0.813   3.818 -1.5881  3.3105 -0.3695
18107TIP3   OH275735   6.374   3.672   2.694 -0.2302 -0.0214 -0.1608
18107TIP3    H175736   6.281   3.660   2.676 -0.0845  2.0166 -2.4542
18107TIP3    H275737   6.410   3.583   2.690 -1.9077 -0.7355 -0.0915
18108TIP3   OH275738   0.165   4.091   4.343 -0.4630 -0.0495 -0.2605
18108TIP3    H175739   0.077   4.108   4.379 -0.4007 -0.3071  0.0140
18108TIP3    H275740   0.224   4.120   4.413 -0.3345 -0.2183 -0.3023
18109TIP3   OH275741   2.110   0.803  15.856  0.5406  0.0062 -0.2333
18109TIP3    H175742   2.165   0.851  15.918 -1.1525  0.3494  1.0298
18109TIP3    H275743   2.163   0.727  15.831  1.5244  0.2499  1.0700
18110TIP3   OH275744   1.047   2.569   2.198 -0.0291 -0.1130  0.8532
18110TIP3    H175745   1.059   2.664   2.196 -1.6698  0.1294  1.5840
18110TIP3    H275746   0.978   2.552   2.133 -1.2920 -0.5323  2.2683
18111TIP3   OH275747   1.847   4.927  15.632  0.2727  0.0071  0.1345
18111TIP3    H175748   1.938   4.955  15.622 -0.1729  1.1272 -0.9085
18111TIP3    H275749   1.835   4.858  15.567  1.2446 -2.3607  2.4010
18112TIP3   OH275750   3.251   5.487   0.053  0.1923  0.1417  0.1581
18112TIP3    H175751   3.253   5.549  -0.021  0.6986  0.7273  0.6516
18112TIP3    H275752   3.194   5.416   0.023  0.0016  0.6059 -0.6119
18113TIP3   OH275753   0.775   3.207  15.718  0.2121 -0.1289 -0.4401
18113TIP3    H175754   0.695   3.259  15.731  1.2053  1.1301  0.8554
18113TIP3    H275755   0.798   3.177  15.806  0.8944 -0.9081 -0.8840
18114TIP3   OH275756   4.896   1.611  14.534  0.2674 -0.1329  0.4779
18114TIP3    H175757   4.881   1.671  14.461 -2.4254  0.6203  1.5975
18114TIP3    H275758   4.983   1.634  14.567  0.5862  0.9832 -1.1211
18115TIP3   OH275759   3.024   4.752  12.291 -0.4440 -0.3726 -0.0822
18115TIP3    H175760   2.941   4.799  12.285  0.1004  0.6679  0.4125
18115TIP3    H275761   3.044   4.727  12.200  0.8767  3.2527 -0.9064
18116TIP3   OH275762   4.394   2.696  13.993  0.6426 -0.4854 -0.1778
18116TIP3    H175763   4.304   2.728  13.996  0.2518 -1.6768  1.5527
18116TIP3    H275764   4.439   2.744  14.062  1.4738  0.4847 -1.3863
18117TIP3   OH275765   6.520   5.780   2.388 -0.1070  0.5750 -0.2595
18117TIP3    H175766   6.574   5.821   2.321 -0.8965  0.3712 -1.0189
18117TIP3    H275767   6.583   5.738   2.447  0.5473 -0.2798 -1.5480
18118TIP3   OH275768   2.191   4.068  15.964 -0.0422 -0.6814 -0.3832
18118TIP3    H175769   2.262   4.038  15.907 -0.3587  1.4389 -1.9271
18118TIP3    H275770   2.231   4.074  16.051  1.8459  1.0807 -1.3561
18119TIP3   OH275771   5.382   5.296   2.955  1.1434  0.5407 -0.2623
18119TIP3    H175772   5.403   5.354   2.882  0.8205 -0.2757 -1.0125
18119TIP3    H275773   5.331   5.226   2.916  0.4223  0.4185  0.8591
18120TIP3   OH275774   5.936   6.460  15.197 -0.2379 -0.0658 -0.7775
18120TIP3    H175775   5.846   6.493  15.192  0.5863  2.1070 -2.3124
18120TIP3    H275776   5.976   6.511  15.267  0.0213 -0.4900 -0.6137
18121TIP3   OH275777   3.858   3.031  13.706  0.2085  0.0578  0.4249
18121TIP3    H175778   3.770   2.998  13.691  0.1834  0.3495 -0.0884
18121TIP3    H275779   3.913   2.984  13.643  0.3134  0.3431  0.3000
18122TIP3   OH275780   3.887   4.874   4.044  0.2463  0.1129  0.1316
18122TIP3    H175781   3.838   4.947   4.081 -0.9891 -0.8809  0.5142
18122TIP3    H275782   3.928   4.909   3.964  0.8467  1.5803  1.0766
18123TIP3   OH275783   0.122   5.034   0.856  0.4894 -0.0639  0.4248
18123TIP3    H175784   0.027   5.029   0.868  0.9291 -1.7831  3.3931
18123TIP3    H275785   0.153   5.091   0.926  1.8914 -1.1521  0.7129
18124TIP3   OH275786   6.224   6.448  15.423 -0.1446  0.5773 -0.1684
18124TIP3    H175787   6.241   6.395  15.501 -0.7456  0.9306  0.2004
18124TIP3    H275788   6.133   6.476  15.432 -0.3440  0.2652 -1.2092
18125TIP3   OH275789   1.398   0.152   4.721  0.1344 -0.1547  0.0310
18125TIP3    H175790   1.476   0.108   4.754 -0.5003 -1.1572  0.2016
18125TIP3    H275791   1.335   0.082   4.706 -1.0970  0.7424  0.8819
18126TIP3   OH275792   0.650   5.278  14.694  0.0442  0.0718  0.2419
18126TIP3    H175793   0.737   5.318  14.695  0.9172 -1.8076  0.0302
18126TIP3    H275794   0.632   5.261  14.602 -1.0618  1.4863  0.1682
18127TIP3   OH275795   5.518   4.841   4.831  0.6810 -0.8918  0.0545
18127TIP3    H175796   5.531   4.925   4.874 -0.6055  0.9522 -3.0181
18127TIP3    H275797   5.425   4.822   4.842  0.4643 -0.6922 -1.3814
18128TIP3   OH275798   4.916   5.265  16.223  0.0542  0.0934 -0.3567
18128TIP3    H175799   4.931   5.272  16.317 -1.0981  0.5590 -0.1986
18128TIP3    H275800   4.834   5.215  16.216  0.0883  0.1402 -1.1112
18129TIP3   OH275801   6.560   1.440  12.067 -0.2751 -0.0041  0.3597
18129TIP3    H175802   6.593   1.371  12.125  2.0883  0.9112  0.1751
18129TIP3    H275803   6.515   1.501  12.125 -2.6940 -1.8076  0.4814
18130TIP3   OH275804   3.745   5.793  11.549  0.0398  0.6878 -0.5403
18130TIP3    H175805   3.771   5.810  11.458 -0.4572 -0.5411 -0.9119
18130TIP3    H275806   3.650   5.793  11.547  0.0244  1.1735  0.0874
18131TIP3   OH275807   0.630   2.492  14.450  0.0247 -0.2497 -0.2254
18131TIP3    H175808   0.680   2.570  14.475  1.4363 -2.0039  2.6914
18131TIP3    H275809   0.682   2.451  14.381 -0.0866  0.7499 -0.8978
18132TIP3   OH275810   0.927   0.761  15.590 -0.0369  0.6336  0.0564
18132TIP3    H175811   0.926   0.808  15.506 -0.7907  2.9200  1.2958
18132TIP3    H275812   0.848   0.707  15.587  1.6076 -1.7405 -1.9983
18133TIP3   OH275813   6.084   3.799  13.314  0.7211  0.4283 -0.1061
18133TIP3    H175814   6.158   3.849  13.345  0.5930  0.1305  0.6778
18133TIP3    H275815   6.048   3.852  13.242  0.6368  1.4073  0.6496
18134TIP3   OH275816   1.270   5.141   1.533  0.0435  0.3336 -0.4413
18134TIP3    H175817   1.362   5.114   1.527 -0.1377 -0.2656 -0.4929
18134TIP3    H275818   1.271   5.215   1.593  0.6599  0.7861 -0.9951
18135TIP3   OH275819   5.418   1.517   1.596  0.2133  0.2204  0.8667
18135TIP3    H175820   5.396   1.513   1.689  0.9430  1.2859  1.1043
18135TIP3    H275821   5.433   1.611   1.579 -1.6390  0.2757 -0.7281
18136TIP3   OH275822   6.566   2.349  13.341 -0.1657 -0.3960  0.6211
18136TIP3    H175823   6.588   2.388  13.426  1.1330 -0.7442  0.4534
18136TIP3    H275824   6.505   2.411  13.301  0.7061  0.7173  0.9921
18137TIP3   OH275825   1.681   3.974   0.593  0.1277  0.5305  0.2060
18137TIP3    H175826   1.737   3.929   0.531 -1.8770 -1.2217 -0.4009
18137TIP3    H275827   1.670   4.062   0.556  2.1214  0.7582  0.1461
18138TIP3   OH275828   4.606   6.389   0.792 -0.4882 -0.3012  0.0371
18138TIP3    H175829   4.671   6.430   0.849 -0.4943  0.7923 -0.7131
18138TIP3    H275830   4.577   6.460   0.735 -1.4432 -1.0708 -0.4509
18139TIP3   OH275831   5.644   3.279   2.642 -0.4156 -0.0450 -0.5875
18139TIP3    H175832   5.562   3.326   2.631 -0.1610  0.1148 -1.8055
18139TIP3    H275833   5.693   3.295   2.562  0.2410 -1.2579 -0.4498
18140TIP3   OH275834   1.438   6.383  13.223  0.9407  0.2646  0.5600
18140TIP3    H175835   1.522   6.427  13.238  0.0979  1.2800  2.5280
18140TIP3    H275836   1.400   6.429  13.149  0.0804  2.9357  2.5810
18141TIP3   OH275837   0.655   0.857   4.756  0.0420  0.1765  0.0248
18141TIP3    H175838   0.701   0.776   4.733 -0.7454 -0.2644 -0.0305
18141TIP3    H275839   0.705   0.894   4.828  1.3533  0.5007 -1.0398
18142TIP3   OH275840   4.897   2.047   3.958  0.2656 -0.0357 -0.1942
18142TIP3    H175841   4.947   2.068   4.037  1.6093  2.4287 -1.6217
18142TIP3    H275842   4.808   2.076   3.977 -0.3366 -2.9455  1.7611
18143TIP3   OH275843   1.411   5.048   5.278  0.3566 -0.6425 -0.0516
18143TIP3    H175844   1.453   5.050   5.364  1.6577 -1.6990 -0.6511
18143TIP3    H275845   1.477   5.085   5.219 -0.5516  0.1251 -0.6024
18144TIP3   OH275846   4.583   3.495  12.826 -0.6136  0.2163 -0.1683
18144TIP3    H175847   4.547   3.504  12.738  0.8755  0.0443 -0.8086
18144TIP3    H275848   4.557   3.407  12.853 -0.1869 -0.1180 -0.8428
18145TIP3   OH275849   1.360   6.650   0.452  0.2300 -0.3179  0.2337
18145TIP3    H175850   1.336   6.659   0.360 -0.5334 -0.6880  0.3950
18145TIP3    H275851   1.280   6.669   0.500  0.9255  1.0512  0.8707
18146TIP3   OH275852   3.694   5.453   5.071 -0.0700 -0.0996  0.4306
18146TIP3    H175853   3.764   5.420   5.128  1.1899 -0.0570 -1.0563
18146TIP3    H275854   3.642   5.375   5.050 -1.3511  0.0938  2.6739
18147TIP3   OH275855   3.844   4.761   5.970 -0.0381  0.6487 -0.0478
18147TIP3    H175856   3.814   4.794   6.055 -0.9878 -2.7151  0.9852
18147TIP3    H275857   3.923   4.812   5.951 -1.0794  3.0077  1.7486
18148TIP3   OH275858   5.960   3.551   2.242 -0.6541 -0.2158  0.5510
18148TIP3    H175859   6.047   3.556   2.202 -0.7404  0.2064  0.4105
18148TIP3    H275860   5.966   3.478   2.303  0.4214  1.0832  2.0267
18149TIP3   OH275861   5.354   4.124   3.479  0.8691 -0.4095  0.1421
18149TIP3    H175862   5.294   4.127   3.405  0.3210  0.1299  0.5984
18149TIP3    H275863   5.297   4.123   3.556  1.4419  0.6412  0.5937
18150TIP3   OH275864   1.498   2.471  17.170 -0.2685  0.4781  0.4050
18150TIP3    H175865   1.509   2.388  17.124  0.2994  0.4683  0.5577
18150TIP3    H275866   1.422   2.457  17.226 -0.1404  0.0380  0.4748
18151TIP3   OH275867   0.694   2.130  13.352 -0.2648 -0.4682  0.0878
18151TIP3    H175868   0.689   2.149  13.258 -1.8025 -2.1364 -0.1956
18151TIP3    H275869   0.712   2.036  13.356  2.5091  0.0763  1.4632
18152TIP3   OH275870   2.743   0.962   4.305  0.0986 -0.2384  0.0051
18152TIP3    H175871   2.724   0.999   4.219  1.6105 -0.6431 -0.5262
18152TIP3    H275872   2.802   1.026   4.346  0.4246 -0.6714  0.2192
18153TIP3   OH275873   2.867   1.914  11.673 -0.0462  0.1127  0.5864
18153TIP3    H175874   2.842   1.878  11.588 -0.0915 -0.1302  0.7023
18153TIP3    H275875   2.898   1.839  11.723  0.2729  0.3046  0.6775
18154TIP3   OH275876   4.354   6.215  16.586  0.7099  0.2791  0.2632
18154TIP3    H175877   4.342   6.206  16.681  1.4514  1.5954  0.5023
18154TIP3    H275878   4.267   6.199  16.549  0.5810 -1.0124  1.1024
18155TIP3   OH275879   6.131   4.353   3.052 -0.2575  0.7028  0.4336
18155TIP3    H175880   6.085   4.395   2.979 -0.3659  0.6685  0.4818
18155TIP3    H275881   6.063   4.301   3.096  0.6095 -2.6391 -1.9324
18156TIP3   OH275882   3.603   6.021  13.315 -0.1666 -0.5808 -0.2140
18156TIP3    H175883   3.607   6.060  13.402  1.5600 -0.5175 -0.3104
18156TIP3    H275884   3.621   6.094  13.256  2.2107 -1.3100 -0.4395
18157TIP3   OH275885   0.224   3.112   3.000 -0.0170  1.1434  0.3301
18157TIP3    H175886   0.298   3.053   3.015 -0.3637  1.1242  1.9815
18157TIP3    H275887   0.148   3.062   3.028 -0.9452  0.3360 -3.3761
18158TIP3   OH275888   6.519   4.570   2.965 -0.0884  0.3321  0.2477
18158TIP3    H175889   6.599   4.622   2.959 -0.0813  0.2927 -0.0237
18158TIP3    H275890   6.449   4.629   2.938  0.1321 -0.3000 -1.7970
18159TIP3   OH275891   2.134   5.637  16.696 -0.0767  0.3744  0.3770
18159TIP3    H175892   2.197   5.572  16.664 -1.5162 -0.2963 -1.1621
18159TIP3    H275893   2.052   5.613  16.654 -1.1629  1.7973  1.6494
18160TIP3   OH275894   3.647   5.321  16.380  0.3573 -0.1930  0.0428
18160TIP3    H175895   3.726   5.375  16.389  1.2831 -1.6584  0.9656
18160TIP3    H275896   3.610   5.319  16.468 -0.7540  0.5545 -0.4081
18161TIP3   OH275897   2.221   1.315  10.314 -0.2401  0.2552 -0.1005
18161TIP3    H175898   2.291   1.293  10.252  1.6608  1.8581  1.4111
18161TIP3    H275899   2.247   1.272  10.396 -2.1270 -0.8625 -0.0505
18162TIP3   OH275900   3.704   5.354  12.474 -0.1891  0.2186  0.5387
18162TIP3    H175901   3.673   5.377  12.562 -0.2934  0.2874  0.4849
18162TIP3    H275902   3.788   5.310  12.489 -0.1945  0.2515  0.6719
18163TIP3   OH275903   6.774   0.667  17.003 -0.0661 -0.0589  0.2894
18163TIP3    H175904   6.775   0.699  17.093  0.3365 -0.6775  0.5132
18163TIP3    H275905   6.760   0.572  17.012 -0.1957 -0.0975 -0.3033
18164TIP3   OH275906   6.213   0.494  15.337  0.0649 -0.1558  0.3454
18164TIP3    H175907   6.255   0.445  15.407  0.9387  1.2172  0.8107
18164TIP3    H275908   6.286   0.532  15.287 -0.5718 -0.2523 -0.6777
18165TIP3   OH275909   6.109   4.011   5.999 -0.8428  0.1052  0.0668
18165TIP3    H175910   6.120   4.105   6.013 -1.1176 -0.2089  2.6640
18165TIP3    H275911   6.161   3.970   6.069  0.4339 -1.7138 -1.8622
18166TIP3   OH275912   1.595   3.143   5.536 -0.0584 -0.5267  0.1361
18166TIP3    H175913   1.589   3.165   5.443  3.1736 -0.5514 -0.1155
18166TIP3    H275914   1.576   3.049   5.540 -0.5872 -0.4484 -0.4173
18167TIP3   OH275915   1.673   2.862   1.476 -0.2302 -0.2675  0.1312
18167TIP3    H175916   1.744   2.919   1.509 -0.8795  0.5736  0.0951
18167TIP3    H275917   1.717   2.802   1.416  0.2884  0.9361 -0.7146
18168TIP3   OH275918   5.744   5.838  13.622 -0.2613 -0.1887  0.3425
18168TIP3    H175919   5.680   5.774  13.652  2.6707 -3.1788  0.6045
18168TIP3    H275920   5.757   5.818  13.530  1.3471 -0.6611  0.6393
18169TIP3   OH275921   3.308   6.032   0.939  0.1776  0.7158  0.3026
18169TIP3    H175922   3.377   5.982   0.895 -0.5912  0.5074 -0.6658
18169TIP3    H275923   3.311   6.118   0.897  0.4285  0.9815  0.8646
18170TIP3   OH275924   4.313   4.282  12.194 -0.0071  0.4803  0.0133
18170TIP3    H175925   4.241   4.260  12.253  0.9260 -0.1686  0.9144
18170TIP3    H275926   4.270   4.303  12.111 -1.2100 -0.2689  0.4366
18171TIP3   OH275927   6.717   1.053  14.188  0.3147  0.0140 -0.4244
18171TIP3    H175928   6.688   0.970  14.149  0.1097  0.0006 -0.2423
18171TIP3    H275929   6.678   1.120  14.131 -2.3942  0.0607  1.3993
18172TIP3   OH275930   0.407   3.390  11.020  0.3573 -0.0612 -0.4425
18172TIP3    H175931   0.323   3.394  11.067  2.9873  0.0187  4.5226
18172TIP3    H275932   0.403   3.463  10.959 -2.0768  1.6682  1.6766
18173TIP3   OH275933   6.770   1.923   5.715  0.4264 -0.0615 -0.4522
18173TIP3    H175934   6.796   1.886   5.800  0.1044  0.7636  0.0204
18173TIP3    H275935   6.683   1.887   5.699  0.7518 -0.7282 -0.7500
18174TIP3   OH275936   5.752   0.784  16.934 -0.1887  0.0334 -0.1073
18174TIP3    H175937   5.820   0.756  16.995 -1.2839 -0.4740  0.9171
18174TIP3    H275938   5.795   0.789  16.849  0.2720 -3.9978 -0.2025
18175TIP3   OH275939   1.362   1.767   0.805 -0.0438 -0.0157 -0.0926
18175TIP3    H175940   1.279   1.804   0.835  0.3970  1.4505 -0.6241
18175TIP3    H275941   1.426   1.837   0.819  0.8073 -0.5544 -1.1825
18176TIP3   OH275942   1.716   5.679   1.594 -0.3163  0.2077  0.0420
18176TIP3    H175943   1.708   5.761   1.642 -0.0260  1.9012 -2.6744
18176TIP3    H275944   1.810   5.661   1.590 -0.3510 -0.0277  0.2641
18177TIP3   OH275945   2.017   3.107  14.816 -0.4258 -0.1797  0.0028
18177TIP3    H175946   2.078   3.042  14.780 -0.4062  0.0645 -0.4095
18177TIP3    H275947   2.015   3.177  14.751 -0.9876 -0.0886  0.1179
18178TIP3   OH275948   4.960   6.241   3.132  0.0475 -0.0566 -0.4826
18178TIP3    H175949   4.937   6.313   3.191  0.0336  0.0226 -0.5845
18178TIP3    H275950   4.892   6.175   3.148  0.5866 -0.4306  0.2852
18179TIP3   OH275951   0.526   4.989  10.698  0.4315  0.5267 -0.1133
18179TIP3    H175952   0.484   5.075  10.706  1.2513  0.8904  0.4365
18179TIP3    H275953   0.454   4.926  10.698 -0.1125  1.1417  0.8047
18180TIP3   OH275954   4.945   1.513  15.407 -0.0672  0.1423  0.1264
18180TIP3    H175955   5.021   1.455  15.410 -0.6324 -0.6170 -0.1862
18180TIP3    H275956   4.922   1.527  15.499  0.1244 -0.0568  0.2062
18181TIP3   OH275957   0.479   3.123   3.326  0.0525 -0.2572  0.3105
18181TIP3    H175958   0.461   3.066   3.251  1.5020 -1.0723  0.5730
18181TIP3    H275959   0.435   3.080   3.399  0.2875 -0.4916  0.3131
18182TIP3   OH275960   0.982   4.715   5.186 -0.5324  0.1884  0.3747
18182TIP3    H175961   1.036   4.791   5.169 -0.5396 -0.4771 -2.8995
18182TIP3    H275962   0.896   4.751   5.210  0.3296  1.1911  2.0202
18183TIP3   OH275963   6.192   1.705   2.266  0.2739  0.2789  0.0434
18183TIP3    H175964   6.239   1.658   2.335  0.4498  0.9212  0.3635
18183TIP3    H275965   6.185   1.794   2.299 -1.0322  0.2258 -0.0701
18184TIP3   OH275966   6.105   2.563  15.821  0.4540 -0.3016  0.5357
18184TIP3    H175967   6.098   2.472  15.791  0.5916 -0.3248  0.5742
18184TIP3    H275968   6.048   2.612  15.762  1.9705 -0.1058 -0.7797
18185TIP3   OH275969   4.384   2.217  12.766 -0.4905 -0.5168 -0.4204
18185TIP3    H175970   4.387   2.310  12.747 -0.7351 -0.2022  1.0438
18185TIP3    H275971   4.469   2.198  12.807 -0.2018 -1.0607 -1.2634
18186TIP3   OH275972   3.721   5.624  17.075  0.3579 -0.1702 -0.7184
18186TIP3    H175973   3.732   5.686  17.147  0.1925  0.8061 -1.5226
18186TIP3    H275974   3.635   5.644  17.039 -0.9533 -2.7578  0.7732
18187TIP3   OH275975   6.079   0.860   5.004 -0.4470  0.5098  0.0459
18187TIP3    H175976   5.998   0.891   4.964 -1.5388  1.1165  2.5833
18187TIP3    H275977   6.147   0.884   4.942 -1.8466  3.2942 -0.4966
18188TIP3   OH275978   1.634   1.571   2.792 -0.1399 -0.8302  0.3339
18188TIP3    H175979   1.677   1.627   2.857  0.3684 -1.6105  0.6867
18188TIP3    H275980   1.669   1.483   2.810  0.7595 -0.8986 -1.6394
18189TIP3   OH275981   3.068   2.887  11.168  0.0519  0.5096  0.1808
18189TIP3    H175982   3.139   2.900  11.231 -2.3967  3.1241  2.5852
18189TIP3    H275983   3.039   2.976  11.146 -1.4940 -0.4782 -1.9094
18190TIP3   OH275984   1.730   2.908   4.120 -0.0667  0.4855 -0.5821
18190TIP3    H175985   1.654   2.867   4.161  0.1445  0.2931 -0.3787
18190TIP3    H275986   1.695   2.982   4.072 -0.6510 -0.7968 -2.1906
18191TIP3   OH275987   1.470   5.760  11.296  0.2236 -0.6417 -0.0296
18191TIP3    H175988   1.392   5.775  11.243  0.0445 -2.2683 -0.2442
18191TIP3    H275989   1.519   5.693  11.248  1.4895 -0.0309  0.3834
18192TIP3   OH275990   5.844   3.873  15.359  0.0389  0.0989  0.3678
18192TIP3    H175991   5.780   3.811  15.324 -0.4766 -0.2953  1.9847
18192TIP3    H275992   5.794   3.953  15.374  0.9520  1.3801 -2.8877
18193TIP3   OH275993   3.189   6.628   0.278 -0.8603 -0.2435 -0.8440
18193TIP3    H175994   3.145   6.590   0.354  0.2428 -2.2111 -1.1575
18193TIP3    H275995   3.226   6.710   0.310  1.4583 -2.0910  1.3570
18194TIP3   OH275996   4.523   5.107   1.029 -0.1786 -0.1245 -0.0885
18194TIP3    H175997   4.580   5.179   1.003 -1.2881  0.2811 -1.4694
18194TIP3    H275998   4.450   5.151   1.073  0.8900 -0.6856  2.3128
18195TIP3   OH275999   0.174   4.144  15.491 -0.6851 -0.1183 -0.7772
18195TIP3    H176000   0.222   4.211  15.442 -1.6249 -0.0315 -1.6073
18195TIP3    H276001   0.086   4.146  15.453 -1.8268  0.8839  1.8178
18196TIP3   OH276002   5.058   1.180  13.174 -0.7418 -0.5302 -0.0426
18196TIP3    H176003   5.005   1.149  13.100  1.6753 -2.1196 -1.1791
18196TIP3    H276004   5.056   1.108  13.237  1.4292 -1.3453 -0.8513
18197TIP3   OH276005   1.691   3.829   5.345 -0.4183  0.0481  0.1169
18197TIP3    H176006   1.701   3.829   5.440  0.8916  1.4783 -0.0031
18197TIP3    H276007   1.704   3.921   5.319  2.1870 -0.7816 -1.7141
18198TIP3   OH276008   3.066   4.535   5.504  0.0495 -0.5245 -0.3547
18198TIP3    H176009   3.117   4.603   5.461  0.6129 -0.4550  0.4062
18198TIP3    H276010   3.051   4.470   5.436 -0.2449  0.2255 -1.0079
18199TIP3   OH276011   3.025   5.809   1.563 -0.0973  0.0044  0.6328
18199TIP3    H176012   3.076   5.788   1.641 -2.1071 -2.0912  1.4359
18199TIP3    H276013   3.024   5.729   1.512  0.6515  1.1708 -1.2636
18200TIP3   OH276014   0.409   6.230   4.654 -0.1968  0.2571 -0.6480
18200TIP3    H176015   0.486   6.175   4.667  0.1744  0.8763 -0.2587
18200TIP3    H276016   0.354   6.179   4.594  0.9030  0.2043 -1.6340
18201TIP3   OH276017   6.514   1.475   4.466  1.0403 -0.5986  0.0400
18201TIP3    H176018   6.422   1.493   4.481  0.6611 -1.3316 -1.3683
18201TIP3    H276019   6.549   1.557   4.430  1.0065 -0.2421  0.8057
18202TIP3   OH276020   6.583   4.645  13.151  0.2882  0.8335 -0.0691
18202TIP3    H176021   6.497   4.685  13.147  0.2482  0.8130  0.5913
18202TIP3    H276022   6.567   4.554  13.173  0.4794  0.8358  0.0857
18203TIP3   OH276023   0.650   4.295   4.790 -0.1804 -0.5398 -0.2099
18203TIP3    H176024   0.661   4.239   4.867  0.4774 -2.2343 -1.4937
18203TIP3    H276025   0.556   4.295   4.774 -0.1731 -1.4022 -0.2745
18204TIP3   OH276026   6.581   6.432  11.278 -0.0824 -0.1586  0.3197
18204TIP3    H176027   6.501   6.407  11.325  0.0897  0.4930  0.9833
18204TIP3    H276028   6.616   6.350  11.244 -1.0906 -0.4384 -0.0741
18205TIP3   OH276029   5.266   0.604   2.396 -0.3235  0.0543  0.1271
18205TIP3    H176030   5.358   0.581   2.402 -0.4856  0.0340  3.0531
18205TIP3    H276031   5.249   0.611   2.302  2.5763 -0.1802 -0.4480
18206TIP3   OH276032   5.983   0.078   1.008  0.9379 -0.0932 -0.3897
18206TIP3    H176033   6.038   0.151   0.979  1.3692 -1.0078 -1.9410
18206TIP3    H276034   5.899   0.092   0.963 -0.8251  2.3037  3.3546
18207TIP3   OH276035   2.246   1.445   5.138  0.1736 -0.1824  0.3398
18207TIP3    H176036   2.177   1.402   5.188  0.9751 -0.2259  1.4203
18207TIP3    H276037   2.319   1.384   5.140  0.7501  0.5109  0.4612
18208TIP3   OH276038   5.202   3.228  14.275 -0.1891 -0.3718 -0.6011
18208TIP3    H176039   5.126   3.230  14.217  0.1542  0.0741 -1.0458
18208TIP3    H276040   5.255   3.303  14.247  0.0995 -0.2948  0.1317
18209TIP3   OH276041   5.471   0.631   2.979 -0.1573 -0.0095 -0.2034
18209TIP3    H176042   5.385   0.590   2.964 -0.5527  0.2155  1.3915
18209TIP3    H276043   5.458   0.686   3.056  1.2247  0.6524 -0.4323
18210TIP3   OH276044   1.511   0.346  14.484  0.3075  0.6977  0.1584
18210TIP3    H176045   1.518   0.383  14.396  0.5400  1.1691  0.3758
18210TIP3    H276046   1.581   0.280  14.487 -0.2197  0.1058 -0.2868
18211TIP3   OH276047   6.166   3.625   1.811 -0.3627 -0.5502  0.0483
18211TIP3    H176048   6.236   3.563   1.791 -0.4382  0.4159 -3.5432
18211TIP3    H276049   6.207   3.711   1.809 -1.3146 -0.0946 -0.4199
18212TIP3   OH276050   4.025   1.182  10.630 -0.5457 -0.2178 -0.4389
18212TIP3    H176051   4.104   1.219  10.590 -0.2547 -0.8884 -0.4829
18212TIP3    H276052   3.977   1.258  10.662  0.5971  0.1362  0.4695
18213TIP3   OH276053   3.171   3.866   4.948  0.0759  0.4033 -0.0329
18213TIP3    H176054   3.208   3.898   5.030  0.5837 -1.0287  0.3141
18213TIP3    H276055   3.099   3.809   4.975  0.3752 -0.2388 -0.5584
18214TIP3   OH276056   4.683   4.633   3.471  0.1519  0.1763  0.7619
18214TIP3    H176057   4.695   4.670   3.384 -1.3160 -1.2324 -0.0848
18214TIP3    H276058   4.765   4.588   3.490  0.8132  1.2688  0.4989
18215TIP3   OH276059   1.285   5.812   0.042 -0.4201 -0.0713  0.3326
18215TIP3    H176060   1.218   5.746   0.023 -0.7477  0.1456  0.7244
18215TIP3    H276061   1.277   5.874  -0.031  0.3789 -0.8406 -0.4178
18216TIP3   OH276062   6.505   4.132   2.834 -0.6953  0.3548  0.3821
18216TIP3    H176063   6.421   4.134   2.881 -0.3948  1.3150  0.8811
18216TIP3    H276064   6.563   4.082   2.891 -1.0971 -0.8794 -0.2669
18217TIP3   OH276065   0.640   3.561  14.635 -0.9961 -0.4597 -0.0639
18217TIP3    H176066   0.666   3.642  14.593 -2.7317  0.5529  0.7523
18217TIP3    H276067   0.676   3.492  14.579  2.0088  0.8344  0.1742
18218TIP3   OH276068   2.323   5.613   4.408 -0.3797  0.0050  0.0304
18218TIP3    H176069   2.403   5.600   4.458  0.6238  0.3989 -1.4698
18218TIP3    H276070   2.278   5.685   4.453  0.1917 -0.0785  0.7489
18219TIP3   OH276071   1.620   0.765  11.880  0.3702 -0.6157  0.8536
18219TIP3    H176072   1.541   0.790  11.832  0.4066 -0.3119  0.9512
18219TIP3    H276073   1.590   0.703  11.945  0.2999 -0.9319  0.5189
18220TIP3   OH276074   4.862   1.096   1.029 -0.2320 -0.0615  0.9389
18220TIP3    H176075   4.943   1.077   0.983 -1.2534 -1.9317 -0.1488
18220TIP3    H276076   4.857   1.192   1.030  1.1483  0.0445 -0.4544
18221TIP3   OH276077   5.918   0.781  12.423 -0.3375  0.2474  0.4502
18221TIP3    H176078   5.894   0.690  12.403 -0.5438  0.3308  0.3225
18221TIP3    H276079   5.885   0.796  12.511 -1.7621  0.7340 -0.1691
18222TIP3   OH276080   2.581   2.918  14.788  0.1666  0.1938  0.4075
18222TIP3    H176081   2.505   2.974  14.771 -0.8825 -1.6063 -0.9839
18222TIP3    H276082   2.551   2.830  14.769  2.7240 -0.5197 -0.5857
18223TIP3   OH276083   1.860   5.951  15.703 -0.6637  0.0455  0.3302
18223TIP3    H176084   1.776   5.988  15.727 -0.0017  1.8795 -0.0536
18223TIP3    H276085   1.881   5.991  15.618  0.5824 -0.3778  0.4148
18224TIP3   OH276086   4.712   5.602   2.774 -0.2765  0.0383 -0.0971
18224TIP3    H176087   4.710   5.591   2.869 -0.4432 -0.8831 -0.2031
18224TIP3    H276088   4.628   5.567   2.744  0.8023 -2.0174 -0.8195
18225TIP3   OH276089   3.695   3.567  13.507  0.0795  0.4787 -0.4143
18225TIP3    H176090   3.780   3.583  13.548  1.1355 -4.2180 -0.5034
18225TIP3    H276091   3.689   3.632  13.437  3.1591  1.4934  0.2139
18226TIP3   OH276092   5.185   6.337  12.607  0.2848 -0.1396  0.3500
18226TIP3    H176093   5.220   6.277  12.542 -1.7014  1.5266 -2.3457
18226TIP3    H276094   5.097   6.304  12.626 -0.1945  0.9365  0.0738
18227TIP3   OH276095   4.393   1.993  16.359  0.2234 -0.3304 -0.0505
18227TIP3    H176096   4.335   1.950  16.421  0.1250 -1.2395 -0.7629
18227TIP3    H276097   4.371   2.086  16.366  1.1790 -0.2508  2.2598
18228TIP3   OH276098   3.968   6.609   2.411  0.4397  0.3636 -0.5317
18228TIP3    H176099   3.981   6.643   2.323 -2.5094  2.5516 -0.1852
18228TIP3    H276100   3.931   6.682   2.460  0.3363 -1.3628  2.0735
18229TIP3   OH276101   0.131   1.650  12.073 -0.1211 -0.0596 -0.2786
18229TIP3    H176102   0.110   1.561  12.044  0.8185  0.0734 -1.4509
18229TIP3    H276103   0.125   1.703  11.993 -0.6746  0.9322  0.4145
18230TIP3   OH276104   0.739   5.935   1.357  0.5133 -0.0959  0.1681
18230TIP3    H176105   0.763   5.956   1.447 -0.1414 -3.3984  1.1675
18230TIP3    H276106   0.645   5.916   1.361  0.5403 -0.5377 -1.1728
18231TIP3   OH276107   3.275   5.997   2.288  0.4858  0.1699  0.2155
18231TIP3    H176108   3.256   6.024   2.377 -4.3121 -2.5712  0.2283
18231TIP3    H276109   3.309   5.908   2.297  1.5595  0.4984 -0.5848
18232TIP3   OH276110   0.799   2.395   4.179 -0.9477  0.4153 -0.1199
18232TIP3    H176111   0.739   2.360   4.244  0.0740 -1.2801 -0.0724
18232TIP3    H276112   0.837   2.318   4.137  1.2816  1.4375 -0.0436
18233TIP3   OH276113   4.312   3.412   2.470 -0.2336  0.2439 -0.4893
18233TIP3    H176114   4.223   3.417   2.433 -0.3084  1.1944 -0.1735
18233TIP3    H276115   4.363   3.474   2.419  0.8623 -2.0625 -2.3236
18234TIP3   OH276116   2.215   5.100   3.412  0.3124  0.2353  0.1295
18234TIP3    H176117   2.197   5.141   3.496 -0.8214 -1.1468  0.5882
18234TIP3    H276118   2.144   5.132   3.355  1.1179  1.2245 -0.3325
18235TIP3   OH276119   3.119   1.164  11.575 -0.7790  0.1451 -0.2551
18235TIP3    H176120   3.119   1.200  11.664  2.2027 -2.0009  0.6937
18235TIP3    H276121   3.051   1.213  11.529 -4.1783 -0.4374  3.8976
18236TIP3   OH276122   5.629   4.206  15.199 -0.1107 -0.0679 -0.3052
18236TIP3    H176123   5.700   4.191  15.137  0.0754 -0.0890 -0.0869
18236TIP3    H276124   5.636   4.298  15.222  1.6983 -0.7465  2.0003
18237TIP3   OH276125   0.140   3.794   3.283 -0.3530 -0.4028  0.0993
18237TIP3    H176126   0.187   3.756   3.209 -0.3030  0.3746 -0.2745
18237TIP3    H276127   0.163   3.738   3.357 -0.1041 -0.9627 -0.3957
18238TIP3   OH276128   4.490   3.793   3.937 -0.3280 -0.0165  0.3672
18238TIP3    H176129   4.396   3.809   3.930 -0.6027 -1.5319  0.3683
18238TIP3    H276130   4.520   3.789   3.846 -0.4047 -0.2683  0.3517
18239TIP3   OH276131   2.261   3.351  11.888 -0.1765  0.6377  0.3483
18239TIP3    H176132   2.332   3.415  11.887  0.8979 -0.5384  1.0509
18239TIP3    H276133   2.303   3.267  11.869 -1.8202  0.3356 -2.2602
18240TIP3   OH276134   0.414   2.397  16.872 -0.6056  0.3182  0.1704
18240TIP3    H176135   0.414   2.449  16.952 -0.4810 -0.1528  0.4794
18240TIP3    H276136   0.388   2.458  16.803  2.1074  1.4809  0.0959
18241TIP3   OH276137   3.124   2.669   2.821 -0.5493 -0.3859 -0.6223
18241TIP3    H176138   3.164   2.726   2.887  0.4330 -2.3179  0.4904
18241TIP3    H276139   3.030   2.681   2.833 -0.4239 -1.8462  2.1657
18242TIP3   OH276140   0.630   5.517  12.762 -0.5514 -0.2390  0.3632
18242TIP3    H176141   0.609   5.443  12.820 -0.2712  0.1045  0.9061
18242TIP3    H276142   0.546   5.548  12.731 -0.6604 -0.9321 -0.0426
18243TIP3   OH276143   0.503   5.709   1.166  0.5408 -0.5373 -0.5352
18243TIP3    H176144   0.516   5.746   1.254  1.9613 -0.2024 -0.8609
18243TIP3    H276145   0.587   5.725   1.122 -0.7175  0.8363 -2.5034
18244TIP3   OH276146   1.234   3.389   3.698 -0.1345 -0.5478  0.4181
18244TIP3    H176147   1.319   3.399   3.741  0.5956 -2.1597 -0.5852
18244TIP3    H276148   1.180   3.459   3.734  1.9773  1.2542  0.2184
18245TIP3   OH276149   3.273   5.390  15.407 -0.0751  0.3640 -0.2633
18245TIP3    H176150   3.187   5.363  15.437 -0.2896 -0.1472 -1.3247
18245TIP3    H276151   3.258   5.475  15.365 -0.0850  0.2263 -0.5406
18246TIP3   OH276152   6.073   5.984   5.802  0.4321 -0.0022 -0.0957
18246TIP3    H176153   6.124   5.919   5.850 -0.9926 -1.6070 -0.6932
18246TIP3    H276154   6.013   6.020   5.867 -0.6197 -1.2542 -0.3462
18247TIP3   OH276155   0.428   1.976  15.532 -0.0204  0.3306 -0.7159
18247TIP3    H176156   0.496   1.918  15.497 -0.9802  0.0656 -2.1382
18247TIP3    H276157   0.465   2.064  15.526  0.0423  0.2242 -1.8520
18248TIP3   OH276158   0.132   0.615  13.430  0.2285 -0.5415  0.4967
18248TIP3    H176159   0.201   0.666  13.388  0.5623 -1.0960  0.3513
18248TIP3    H276160   0.083   0.678  13.482  2.6827 -0.6133  3.0172
18249TIP3   OH276161   4.910   1.593  12.929  1.3061 -0.1810 -0.4367
18249TIP3    H176162   4.904   1.663  12.865 -0.8863  0.8811  0.8589
18249TIP3    H276163   4.835   1.536  12.909  1.6923 -0.8535  0.0058
18250TIP3   OH276164   1.853   1.041  13.357  0.5192 -0.6156  0.0996
18250TIP3    H176165   1.925   1.079  13.305 -0.7606  1.2796 -0.3266
18250TIP3    H276166   1.884   1.046  13.448  0.6236  0.9301 -0.0081
18251TIP3   OH276167   1.464   4.650  17.097 -0.6877 -0.5493 -0.7646
18251TIP3    H176168   1.440   4.683  17.011 -0.4391 -0.4018 -0.7792
18251TIP3    H276169   1.558   4.669  17.105 -0.4315 -1.7301 -0.9818
18252TIP3   OH276170   0.505   5.788   1.983  0.3763  0.1951  0.1196
18252TIP3    H176171   0.568   5.811   2.050 -0.8297 -0.0617  1.3707
18252TIP3    H276172   0.528   5.699   1.958 -0.8005 -0.7225  2.1550
18253TIP3   OH276173   2.691   5.083   4.764  0.9577  0.0834 -0.2682
18253TIP3    H176174   2.766   5.131   4.729  1.4432 -1.3557 -1.2704
18253TIP3    H276175   2.703   4.994   4.732 -1.3189 -0.1166 -0.6408
18254TIP3   OH276176   5.618   6.094  10.773  0.3615  0.1986  0.4570
18254TIP3    H176177   5.595   6.038  10.698 -2.8275  0.3464  1.2516
18254TIP3    H276178   5.664   6.168  10.734 -1.0002  0.1239 -1.3793
18255TIP3   OH276179   3.246   4.437  16.975  0.4804  0.5876 -0.7198
18255TIP3    H176180   3.270   4.369  17.038  0.2436  2.1136  1.0373
18255TIP3    H276181   3.315   4.503  16.982 -0.4921  1.6176 -0.7760
18256TIP3   OH276182   6.579   4.937   1.054 -0.3756 -0.2597  0.1273
18256TIP3    H176183   6.655   4.914   1.106 -1.0910 -1.2599  0.7372
18256TIP3    H276184   6.507   4.887   1.092 -0.9310 -0.9223 -1.7319
18257TIP3   OH276185   1.462   6.104  15.141 -0.0161 -0.2635 -0.1235
18257TIP3    H176186   1.393   6.048  15.176 -1.1843  1.0139 -0.3315
18257TIP3    H276187   1.423   6.191  15.139  1.7808  0.5647  0.2237
18258TIP3   OH276188   3.588   1.521  16.892  0.6611  0.7459 -0.2328
18258TIP3    H176189   3.520   1.456  16.877  0.4672  1.0587 -0.7098
18258TIP3    H276190   3.635   1.489  16.969  0.3430  0.2291 -0.2527
18259TIP3   OH276191   4.523   4.195  12.896 -0.1114 -0.6475  0.3095
18259TIP3    H176192   4.541   4.133  12.825 -0.1693  0.9200 -1.1058
18259TIP3    H276193   4.582   4.269  12.879 -1.8374  0.8161  0.4790
18260TIP3   OH276194   3.412   1.897   5.357 -0.1600  0.4785  0.0998
18260TIP3    H176195   3.452   1.827   5.307 -0.9822  0.8093 -1.0605
18260TIP3    H276196   3.484   1.941   5.401  0.4712 -0.4162 -0.0522
18261TIP3   OH276197   4.422   1.323  15.027  0.3958 -0.3590  0.6588
18261TIP3    H176198   4.503   1.278  15.007  1.4611  0.7921  2.2434
18261TIP3    H276199   4.439   1.368  15.110 -1.1014  1.7544 -0.1284
18262TIP3   OH276200   3.471   0.971  13.662  0.1545  0.0094  0.0818
18262TIP3    H176201   3.460   0.914  13.586 -0.9302 -0.9566  0.9584
18262TIP3    H276202   3.382   0.997  13.686  0.4636  0.0187  1.2374
18263TIP3   OH276203   0.103   5.103   2.819  0.4369  0.2366 -0.2725
18263TIP3    H176204   0.178   5.113   2.760  0.0755  0.3848 -0.7126
18263TIP3    H276205   0.032   5.072   2.762 -0.0394  0.8104  0.0082
18264TIP3   OH276206   2.621   1.427   4.424  0.1102 -0.3586  0.1796
18264TIP3    H176207   2.549   1.430   4.361 -0.6630  0.7645  1.1003
18264TIP3    H276208   2.630   1.335   4.446 -0.0783 -0.6762 -1.0330
18265TIP3   OH276209   4.752   0.719  11.732 -0.2174 -0.1755  0.0738
18265TIP3    H176210   4.760   0.625  11.714 -0.8017 -0.1723 -0.2113
18265TIP3    H276211   4.750   0.725  11.827  0.1350 -0.4265  0.0979
18266TIP3   OH276212   5.265   3.193  15.163  0.1416  0.4463  0.4431
18266TIP3    H176213   5.318   3.156  15.233  2.2524  1.9536 -0.2900
18266TIP3    H276214   5.245   3.119  15.106  3.2063  0.1035 -0.3186
18267TIP3   OH276215   4.891   4.370   5.614 -0.4042  0.0644  0.9826
18267TIP3    H176216   4.839   4.296   5.646 -1.1157  0.3795  0.5694
18267TIP3    H276217   4.979   4.354   5.648 -0.2565 -1.6427 -0.1462
18268TIP3   OH276218   4.295   2.023   1.663 -0.5164  0.0213  0.0478
18268TIP3    H176219   4.257   2.088   1.603  0.9833  0.6800 -0.2157
18268TIP3    H276220   4.323   1.952   1.605  0.6022  0.4988 -0.0218
18269TIP3   OH276221   5.174   1.946  11.233 -0.0269 -0.1013 -0.2114
18269TIP3    H176222   5.236   2.002  11.185  1.8185 -1.3996  0.5843
18269TIP3    H276223   5.142   2.002  11.304 -0.4801  0.8770 -1.1668
18270TIP3   OH276224   3.806   2.982  15.882 -0.3358 -0.4592  0.1068
18270TIP3    H176225   3.762   3.011  15.801 -1.8139  0.1426  1.0962
18270TIP3    H276226   3.880   3.042  15.891 -0.4802 -0.1767 -0.5012
18271TIP3   OH276227   4.444   2.269  14.134  0.5173  0.7140 -0.2244
18271TIP3    H176228   4.492   2.341  14.093  0.2658  1.1036  0.1568
18271TIP3    H276229   4.506   2.196  14.135  0.6062  0.7661 -1.0712
18272TIP3   OH276230   0.454   5.950  12.414 -0.2164 -0.4737 -0.3841
18272TIP3    H176231   0.490   5.976  12.499  1.8843  1.3566 -1.7837
18272TIP3    H276232   0.517   5.887  12.380  0.5145  1.0065 -1.8376
18273TIP3   OH276233   5.006   6.184  11.390 -0.1112  0.0614  0.0201
18273TIP3    H176234   5.013   6.118  11.320 -0.2578 -0.2990  0.3407
18273TIP3    H276235   4.930   6.157  11.441  0.4420 -0.1200  0.7671
18274TIP3   OH276236   3.467   0.291   3.426  0.5586 -0.1573  0.7241
18274TIP3    H176237   3.412   0.366   3.406  1.7666  0.6163  0.2242
18274TIP3    H276238   3.439   0.224   3.363  0.5457  0.4075  0.1201
18275TIP3   OH276239   0.625   2.272   3.974  0.3113  0.1109  0.2214
18275TIP3    H176240   0.650   2.298   4.063  0.2023 -0.6478  0.4800
18275TIP3    H276241   0.601   2.354   3.931 -3.3376  0.1448  2.0879
18276TIP3   OH276242   0.793   4.586   3.683 -0.2999  0.5950 -0.5715
18276TIP3    H176243   0.711   4.568   3.637  1.2425 -0.5859 -2.9726
18276TIP3    H276244   0.829   4.662   3.639  0.1415  0.8041  0.1507
18277TIP3   OH276245   2.255   6.441   2.928 -0.2309 -0.0120  0.0499
18277TIP3    H176246   2.178   6.425   2.875  0.3718 -1.7102 -0.3381
18277TIP3    H276247   2.304   6.508   2.880 -1.8763  1.7810  0.7751
18278TIP3   OH276248   0.365   0.586   0.096  0.1214  0.0250 -0.4577
18278TIP3    H176249   0.380   0.547   0.182  0.0822 -1.5022 -1.1302
18278TIP3    H276250   0.407   0.526   0.035 -0.5042  0.7085 -1.5650
18279TIP3   OH276251   5.102   0.135  16.158  0.2227  0.5682 -0.4481
18279TIP3    H176252   5.039   0.159  16.227  0.5926  0.7713 -0.1797
18279TIP3    H276253   5.183   0.178  16.184  0.8042 -0.6928 -0.1469
18280TIP3   OH276254   0.946   4.990  12.222  0.0344 -0.5542  0.0859
18280TIP3    H176255   1.001   5.031  12.156  0.4572  0.0171  0.7903
18280TIP3    H276256   0.970   5.033  12.304 -0.9469 -0.7984  0.5121
18281TIP3   OH276257   5.448   6.529  15.025 -0.3594 -0.2467 -0.1409
18281TIP3    H176258   5.405   6.443  15.025 -0.0327 -0.4118  0.7084
18281TIP3    H276259   5.388   6.585  15.074  0.0027 -0.2791  0.3381
18282TIP3   OH276260   4.515   4.989   4.670 -0.5883 -0.2335  0.9148
18282TIP3    H176261   4.549   4.911   4.713  0.0732 -0.6487 -0.3286
18282TIP3    H276262   4.505   4.963   4.578  1.6837  1.7833  0.0383
18283TIP3   OH276263   3.797   2.869  15.370  0.5548  0.4527  0.4619
18283TIP3    H176264   3.834   2.953  15.396  0.3930  0.0932  1.8837
18283TIP3    H276265   3.814   2.811  15.444 -3.8856  0.5685  1.7269
18284TIP3   OH276266   6.404   4.726   0.063 -0.1055  0.7275  0.1197
18284TIP3    H176267   6.392   4.745  -0.030 -1.7877 -0.9203 -0.0397
18284TIP3    H276268   6.316   4.737   0.101 -0.0601 -1.5956  0.9337
18285TIP3   OH276269   3.823   5.180  10.367  0.5706 -0.1014 -0.9188
18285TIP3    H176270   3.743   5.132  10.390  1.8108 -1.0368  1.6297
18285TIP3    H276271   3.798   5.272  10.375 -0.7607 -0.3347 -2.0643
18286TIP3   OH276272   4.068   5.084  13.616 -0.2342  0.4284 -0.0410
18286TIP3    H176273   3.988   5.042  13.584 -0.7809  1.3040  0.1677
18286TIP3    H276274   4.074   5.058  13.708 -0.3148  0.4187 -0.0386
18287TIP3   OH276275   1.314   4.327  13.617 -0.6417 -0.1208  0.0330
18287TIP3    H176276   1.329   4.367  13.703 -2.0815  1.2682 -0.3546
18287TIP3    H276277   1.364   4.381  13.556 -0.3224 -0.5925 -0.1256
18288TIP3   OH276278   3.087   2.474   0.152  0.1781  0.0265  0.0624
18288TIP3    H176279   3.161   2.498   0.096 -1.3537  0.8333 -1.6853
18288TIP3    H276280   3.060   2.387   0.119 -1.1420  0.7926 -0.9434
18289TIP3   OH276281   0.283   2.492  15.688  0.0186 -0.0390  0.4856
18289TIP3    H176282   0.378   2.492  15.687  0.0137 -0.6386 -0.1988
18289TIP3    H276283   0.260   2.521  15.776  0.8302  0.5734  0.5063
18290TIP3   OH276284   0.691   1.344  11.208 -0.5116  0.0914 -0.0970
18290TIP3    H176285   0.684   1.425  11.259 -2.1181 -1.0603  1.6056
18290TIP3    H276286   0.719   1.372  11.121 -2.4185  2.6365  0.0619
18291TIP3   OH276287   1.093   5.978  13.159 -0.4423 -0.3492  0.1695
18291TIP3    H176288   0.998   5.975  13.160 -0.6081  2.6599  0.4236
18291TIP3    H276289   1.114   6.066  13.126  2.2350 -1.0157 -0.0658
18292TIP3   OH276290   2.396   0.202  10.828  0.2050 -0.1378 -0.2299
18292TIP3    H176291   2.362   0.193  10.739 -1.0798 -0.3447  0.2679
18292TIP3    H276292   2.404   0.296  10.841  0.7134 -0.1157 -0.6776
18293TIP3   OH276293   3.840   0.608  11.684 -0.4709  0.0753  0.1665
18293TIP3    H176294   3.863   0.607  11.591 -0.8898 -1.8916  0.0480
18293TIP3    H276295   3.747   0.628  11.685 -1.1265 -2.7621 -0.0535
18294TIP3   OH276296   2.691   5.031   3.956  0.4592  0.1320 -0.0702
18294TIP3    H176297   2.602   5.051   3.930  0.7109  0.5911 -0.5904
18294TIP3    H276298   2.682   4.967   4.027 -0.2922  0.6333  0.2919
18295TIP3   OH276299   3.040   0.384  12.999 -0.6840  0.0739 -0.0540
18295TIP3    H176300   3.065   0.470  13.033  1.8315 -0.1665 -1.1527
18295TIP3    H276301   3.022   0.332  13.077  0.8709  0.7138  0.7573
18296TIP3   OH276302   5.080   0.539   1.770 -0.9079 -0.1649  0.2928
18296TIP3    H176303   5.011   0.484   1.806 -1.5455  0.1416 -0.4190
18296TIP3    H276304   5.086   0.613   1.831 -0.4022 -0.7691  0.9757
18297TIP3   OH276305   5.385   2.164  14.785 -0.1726  0.1320  0.0245
18297TIP3    H176306   5.417   2.079  14.813  0.4468  0.7096  1.1038
18297TIP3    H276307   5.354   2.206  14.865  0.0624  1.1383 -0.3968
18298TIP3   OH276308   3.416   0.046  14.536 -0.4194  0.8422 -0.4590
18298TIP3    H176309   3.386   0.060  14.626  0.8353  0.2927  0.0576
18298TIP3    H276310   3.499   0.093  14.531  0.4782 -0.7630 -0.7443
18299TIP3   OH276311   5.687   6.605   0.914 -0.1342  0.1805 -0.1175
18299TIP3    H176312   5.744   6.610   0.837  1.4412  0.1370  1.0239
18299TIP3    H276313   5.693   6.692   0.954 -0.1196 -0.1129  0.5279
18300TIP3   OH276314   1.427   5.707  16.188  0.9327  0.0204  0.4762
18300TIP3    H176315   1.519   5.684  16.179  0.8047 -0.6616  0.9332
18300TIP3    H276316   1.386   5.675  16.107  0.2892 -3.6589  2.1812
18301TIP3   OH276317   3.486   1.223  12.233  0.4389 -0.1209 -0.5738
18301TIP3    H176318   3.401   1.259  12.261  0.8689  0.3852  0.0972
18301TIP3    H276319   3.491   1.138  12.275  0.2194 -0.2031 -0.7064
18302TIP3   OH276320   2.429   2.645   0.652  0.4505 -0.9691 -0.4319
18302TIP3    H176321   2.491   2.579   0.682  0.3542 -0.7988  0.1496
18302TIP3    H276322   2.481   2.725   0.643  0.7402 -1.3113 -1.9325
18303TIP3   OH276323   5.666   6.318  13.761 -0.0430  0.1105  0.0390
18303TIP3    H176324   5.674   6.361  13.847 -0.7425  0.9104 -0.2843
18303TIP3    H276325   5.693   6.385  13.698  0.6237 -0.5274 -0.3700
18304TIP3   OH276326   0.704   5.806  11.136  0.3248 -0.5269 -0.5117
18304TIP3    H176327   0.746   5.788  11.051  0.0347  1.3078 -1.0615
18304TIP3    H276328   0.661   5.723  11.159  0.1407 -0.9575 -2.3083
18305TIP3   OH276329   6.403   4.511   1.935 -0.3635  0.0080  0.1378
18305TIP3    H176330   6.348   4.444   1.894 -2.6904  1.1024  1.3589
18305TIP3    H276331   6.440   4.468   2.012  2.8046 -1.5863 -2.1552
18306TIP3   OH276332   6.537   1.180  14.749 -0.0999 -0.0392 -0.1785
18306TIP3    H176333   6.541   1.133  14.665  0.6109  0.5073 -0.4638
18306TIP3    H276334   6.485   1.124  14.806  1.8943 -1.8609 -0.0715
18307TIP3   OH276335   1.491   5.975   0.892  0.2304 -0.0164  0.0499
18307TIP3    H176336   1.534   6.051   0.932  1.3159 -1.0524  0.8737
18307TIP3    H276337   1.441   6.012   0.819  0.7606  1.4937  0.4282
18308TIP3   OH276338   3.220   2.034  15.452 -0.2986 -0.4653 -0.5164
18308TIP3    H176339   3.275   1.976  15.504  0.2173 -0.0523 -0.6039
18308TIP3    H276340   3.131   2.016  15.482 -0.3701 -2.8411 -2.0321
18309TIP3   OH276341   4.806   2.721   4.436  0.3339 -0.3684  0.1112
18309TIP3    H176342   4.798   2.678   4.522  1.9359 -0.5576  0.1725
18309TIP3    H276343   4.827   2.812   4.457 -4.6953  0.9566  0.0275
18310TIP3   OH276344   4.850   1.388  14.933 -0.2988  0.4025  0.0179
18310TIP3    H176345   4.924   1.330  14.910 -0.7069 -0.7906  1.6093
18310TIP3    H276346   4.889   1.453  14.991 -0.4286 -0.0644  0.6365
18311TIP3   OH276347   1.717   4.102  14.052  0.5527 -0.0675  0.1978
18311TIP3    H176348   1.695   4.102  13.959  3.3459  0.2974 -0.5072
18311TIP3    H276349   1.637   4.073  14.096 -0.7232 -0.4842 -2.3337
18312TIP3   OH276350   2.512   2.425   4.467 -0.4166  0.2852  0.3101
18312TIP3    H176351   2.491   2.332   4.466  0.3840  0.0820  1.2640
18312TIP3    H276352   2.583   2.435   4.405  0.2463  0.0648  1.0255
18313TIP3   OH276353   5.091   4.125   4.354 -0.1143 -0.0139  0.9495
18313TIP3    H176354   5.050   4.095   4.273  1.1968 -1.8863  0.9470
18313TIP3    H276355   5.121   4.214   4.334 -0.3650 -0.2282 -0.4201
18314TIP3   OH276356   3.764   5.589   3.133 -0.3539 -0.1904 -0.4298
18314TIP3    H176357   3.784   5.495   3.140 -1.9058 -0.5032 -0.1376
18314TIP3    H276358   3.717   5.609   3.213  0.3675  0.9595 -0.2838
18315TIP3   OH276359   4.127   6.734  11.888  0.3473 -0.6944  0.1437
18315TIP3    H176360   4.033   6.745  11.902 -0.0240 -0.2347 -2.4723
18315TIP3    H276361   4.134   6.654  11.836  1.4444 -0.9471  0.6723
18316TIP3   OH276362   4.988   5.468   1.534 -0.1471  0.1297  0.1645
18316TIP3    H176363   5.051   5.446   1.465 -1.8576  1.7292 -2.0265
18316TIP3    H276364   4.955   5.384   1.565 -0.6994 -0.6058 -2.3238
18317TIP3   OH276365   2.594   0.908  10.811  0.0673 -0.0625  0.5365
18317TIP3    H176366   2.660   0.845  10.784  2.0049  1.6710  1.1271
18317TIP3    H276367   2.604   0.915  10.906 -0.4144  0.7950  0.5330
18318TIP3   OH276368   0.770   6.060   1.614  0.7286 -0.4507 -0.5757
18318TIP3    H176369   0.760   6.138   1.559  0.1796  0.5134  0.8747
18318TIP3    H276370   0.854   6.072   1.659 -0.4452  0.4617  1.4342
18319TIP3   OH276371   1.855   1.964  11.902 -0.3196  0.3172 -0.2822
18319TIP3    H176372   1.861   2.042  11.848  1.2372  0.7677  0.5181
18319TIP3    H276373   1.800   1.990  11.976  0.9101  0.9255  0.4249
18320TIP3   OH276374   3.268   2.778   0.725 -0.1719 -0.1996 -0.1369
18320TIP3    H176375   3.321   2.811   0.798  0.4613  0.0082 -0.6782
18320TIP3    H276376   3.277   2.846   0.657 -2.2387  0.4990  0.2588
18321TIP3   OH276377   5.811   6.737  12.351  0.4368  0.3964  0.1167
18321TIP3    H176378   5.728   6.783  12.364  0.7898  1.4282 -1.1723
18321TIP3    H276379   5.787   6.645  12.350 -0.2680  0.5002  2.8508
18322TIP3   OH276380   0.741   6.527   0.408  0.1939 -0.5808 -0.0654
18322TIP3    H176381   0.810   6.583   0.442 -1.3529  1.5269 -0.2755
18322TIP3    H276382   0.662   6.556   0.452 -1.1594 -0.5252 -2.4131
18323TIP3   OH276383   2.332   4.224  13.063 -0.2134 -0.6464  0.2941
18323TIP3    H176384   2.339   4.163  12.990 -1.5501  0.2487 -0.5975
18323TIP3    H276385   2.415   4.215  13.110  1.1871 -0.3255 -2.0445
18324TIP3   OH276386   3.369   0.677   6.279  0.5347 -0.0791  0.3168
18324TIP3    H176387   3.435   0.728   6.233  0.3070 -0.9572 -0.9927
18324TIP3    H276388   3.309   0.742   6.314  0.9703  0.6142 -0.2098
18325TIP3   OH276389   4.693   1.296  13.818 -0.1997 -0.3017  0.3132
18325TIP3    H176390   4.710   1.307  13.912 -1.3641  1.8709  0.2946
18325TIP3    H276391   4.660   1.206  13.810  0.2948 -0.6427  1.9139
18326TIP3   OH276392   3.661   4.159   4.142  0.2960  0.1652 -0.0979
18326TIP3    H176393   3.572   4.185   4.166  0.4965 -0.3977  1.2918
18326TIP3    H276394   3.716   4.232   4.172  0.5853 -0.6986  1.5178
18327TIP3   OH276395   5.492   2.337   2.836 -0.0248 -0.2850 -0.2358
18327TIP3    H176396   5.587   2.354   2.838 -0.1431  0.2753  0.8113
18327TIP3    H276397   5.462   2.359   2.924 -0.9147 -1.8025 -0.1438
18328TIP3   OH276398   6.536   4.876  15.182 -0.1478  0.2360 -0.4645
18328TIP3    H176399   6.486   4.951  15.213 -0.1077  0.2107 -0.3401
18328TIP3    H276400   6.505   4.861  15.093 -1.1824 -0.5097  0.0165
18329TIP3   OH276401   5.130   3.970  12.580  0.5107  0.7783 -0.3672
18329TIP3    H176402   5.217   3.932  12.586 -0.6458 -1.7531  1.2976
18329TIP3    H276403   5.083   3.913  12.520 -0.5689  0.9455  0.2946
18330TIP3   OH276404   2.944   6.412  16.504 -0.5918  0.0757 -0.2625
18330TIP3    H176405   2.960   6.328  16.546  0.8546  1.0487  1.1696
18330TIP3    H276406   2.873   6.394  16.441 -1.1682 -1.9113  0.9088
18331TIP3   OH276407   0.210   6.372  14.557 -0.1823 -0.5091  0.9317
18331TIP3    H176408   0.179   6.410  14.475 -1.7015 -1.2496  1.1444
18331TIP3    H276409   0.262   6.296  14.531  0.2780 -0.0824  0.6159
18332TIP3   OH276410   0.073   5.619   2.788 -0.3640 -0.3382  0.0785
18332TIP3    H176411   0.017   5.543   2.778 -1.8496  0.8453 -0.8109
18332TIP3    H276412   0.155   5.595   2.744 -0.9973 -1.2186 -0.6237
18333TIP3   OH276413   4.146   5.407  11.955 -0.5657  0.5023 -0.2212
18333TIP3    H176414   4.099   5.380  11.876 -1.3884 -0.0542  0.4499
18333TIP3    H276415   4.211   5.470  11.924 -2.4774  2.1411 -1.0385
18334TIP3   OH276416   3.976   3.243  12.790 -0.2654  0.2479  0.9471
18334TIP3    H176417   3.909   3.271  12.727  0.3249  1.9327  1.0449
18334TIP3    H276418   4.049   3.213  12.735 -0.9874 -1.3318  0.8404
18335TIP3   OH276419   5.397   4.658   3.894 -0.0970  0.6625 -0.3893
18335TIP3    H176420   5.413   4.684   3.804  4.3320 -1.0087 -0.2044
18335TIP3    H276421   5.450   4.719   3.946  1.1395 -1.2934  0.7165
18336TIP3   OH276422   6.705   3.038   4.327  0.0547 -0.1298 -0.5180
18336TIP3    H176423   6.662   3.032   4.242 -0.2410  2.8627 -0.6256
18336TIP3    H276424   6.794   3.008   4.311 -0.6666 -1.9501 -1.2993
18337TIP3   OH276425   3.699   1.775   3.139  0.1396  0.1226 -0.1649
18337TIP3    H176426   3.615   1.782   3.185  0.5954  0.3288  0.6388
18337TIP3    H276427   3.690   1.695   3.087 -0.3137 -0.2244  0.4285
18338TIP3   OH276428   5.317   3.155   3.473 -0.2504  0.2031  0.4088
18338TIP3    H176429   5.392   3.188   3.522 -0.2594  0.0350  0.5361
18338TIP3    H276430   5.351   3.140   3.384 -0.2243  0.4693  0.3752
18339TIP3   OH276431   1.175   4.943  15.817 -0.0439 -0.2526  0.5108
18339TIP3    H176432   1.255   4.910  15.858 -0.6968 -1.4325  0.8619
18339TIP3    H276433   1.166   5.032  15.850  0.8313 -0.2952  0.8845
18340TIP3   OH276434   5.540   5.864   6.077 -0.5110 -0.1124 -0.3576
18340TIP3    H176435   5.542   5.868   6.173  1.8467  0.9169 -0.4224
18340TIP3    H276436   5.524   5.955   6.050  1.6462  0.1050 -0.9674
18341TIP3   OH276437   0.458   3.371  12.231 -0.0730 -0.2508 -0.3617
18341TIP3    H176438   0.509   3.356  12.151  0.3819 -0.2272 -0.0779
18341TIP3    H276439   0.512   3.333  12.300 -0.8046 -0.9180 -0.1600
18342TIP3   OH276440   4.645   3.574   0.289 -0.2122  0.3017  0.0679
18342TIP3    H176441   4.711   3.632   0.251 -1.7001  1.3148 -1.0598
18342TIP3    H276442   4.682   3.547   0.373  1.3007  1.4450 -0.2053
18343TIP3   OH276443   6.370   6.190  12.320  0.1035 -0.2722 -0.2828
18343TIP3    H176444   6.282   6.154  12.333 -0.6390  1.1151 -1.3381
18343TIP3    H276445   6.356   6.283  12.303  1.6590 -0.3090 -1.9154
18344TIP3   OH276446   5.460   5.076   6.639 -0.1102 -0.1088 -0.5833
18344TIP3    H176447   5.485   5.033   6.720  0.3117  2.4212  0.6902
18344TIP3    H276448   5.364   5.077   6.641 -0.0888  1.4766  0.7602
18345TIP3   OH276449   3.036   5.949   4.042 -0.1053 -0.0989  0.1367
18345TIP3    H176450   3.050   6.010   4.115  1.0548 -1.0567  0.7355
18345TIP3    H276451   3.116   5.897   4.039  0.0280  0.2219 -2.1127
18346TIP3   OH276452   4.602   5.920  15.108  1.0032  0.3300 -1.1952
18346TIP3    H176453   4.525   5.964  15.145  1.0869  0.1092 -0.7595
18346TIP3    H276454   4.618   5.846  15.167  0.5728 -0.5698 -2.1794
18347TIP3   OH276455   3.134   0.130   5.913  0.0534  0.1162 -0.1182
18347TIP3    H176456   3.112   0.078   5.990  1.9745  1.8001  1.6260
18347TIP3    H276457   3.121   0.221   5.941  0.7608  0.7513 -1.7762
18348TIP3   OH276458   0.304   5.433  13.762 -0.4574 -0.2842  0.0650
18348TIP3    H176459   0.241   5.382  13.813  1.1123 -3.0791 -0.6870
18348TIP3    H276460   0.273   5.424  13.672 -0.9450  1.2772  0.0674
18349TIP3   OH276461   6.121   5.301   4.333  0.3251 -0.1058 -0.2867
18349TIP3    H176462   6.088   5.222   4.289 -0.2298  0.5897 -1.1345
18349TIP3    H276463   6.113   5.370   4.267  0.5784  0.7152  0.5318
18350TIP3   OH276464   2.830   0.137  15.130  0.0726  0.4126  0.0935
18350TIP3    H176465   2.912   0.114  15.174  1.1726  0.2762 -1.9878
18350TIP3    H276466   2.850   0.217  15.081 -0.4292 -0.7188 -2.0252
18351TIP3   OH276467   3.510   4.868  12.245 -0.3328 -0.1012 -0.3514
18351TIP3    H176468   3.571   4.811  12.199  2.8289  3.2163 -0.5353
18351TIP3    H276469   3.441   4.885  12.181  0.6035 -0.8222 -1.5908
18352TIP3   OH276470   3.099   4.070   0.929  0.4009  0.7761 -0.1093
18352TIP3    H176471   3.100   4.139   0.862  0.7210  1.6884  0.8317
18352TIP3    H276472   3.007   4.056   0.948  0.3731  1.6135  0.3855
18353TIP3   OH276473   0.342   0.112  12.539 -0.4192  0.2950  0.0378
18353TIP3    H176474   0.431   0.134  12.510  0.4077 -1.8510  0.8074
18353TIP3    H276475   0.355   0.066  12.622 -2.0815 -1.8773 -0.8540
18354TIP3   OH276476   3.882   4.717  16.944 -0.0019  0.5866  0.0950
18354TIP3    H176477   3.802   4.716  16.996  0.3376  0.6227  0.6202
18354TIP3    H276478   3.949   4.749  17.004  0.4914  0.1619 -0.2275
18355TIP3   OH276479   4.742   3.798  13.035 -0.0223  0.7425  0.4445
18355TIP3    H176480   4.776   3.735  12.971 -2.2478 -0.2510  0.2008
18355TIP3    H276481   4.740   3.749  13.118 -1.2557  0.6330  0.3621
18356TIP3   OH276482   0.859   6.775  13.328  0.2885 -0.5951 -0.5860
18356TIP3    H176483   0.915   6.850  13.347 -1.5769  0.6560  0.1700
18356TIP3    H276484   0.864   6.720  13.407  0.7692 -0.6867 -0.6817
18357TIP3   OH276485   5.215   6.516  14.647 -0.2874 -0.7166 -0.0839
18357TIP3    H176486   5.211   6.428  14.608  0.4253  0.1060 -2.0623
18357TIP3    H276487   5.302   6.549  14.623 -0.3843  0.3762  1.0122
18358TIP3   OH276488   3.137   4.734  16.799 -0.6681  0.6724 -0.0683
18358TIP3    H176489   3.171   4.752  16.886 -0.6862 -2.5809  0.6700
18358TIP3    H276490   3.206   4.684  16.755 -1.8825 -0.4246 -0.7982
18359TIP3   OH276491   3.859   5.165   2.568 -0.0341 -0.2645  0.6870
18359TIP3    H176492   3.872   5.078   2.531  0.7772  0.3741 -0.5450
18359TIP3    H276493   3.766   5.184   2.555  0.2530 -0.0124 -1.1313
18360TIP3   OH276494   3.448   4.650  14.820 -0.1360 -0.4716  0.3290
18360TIP3    H176495   3.519   4.627  14.879  0.4971  0.6085 -0.0015
18360TIP3    H276496   3.378   4.682  14.878 -0.5405 -2.0002  0.6876
18361TIP3   OH276497   4.344   6.691  14.383 -0.2121 -0.2945 -0.2505
18361TIP3    H176498   4.255   6.701  14.350 -0.6144  0.2955  0.9870
18361TIP3    H276499   4.355   6.597  14.394 -1.2243 -0.2723  1.0465
18362TIP3   OH276500   1.024   2.966  13.796  0.1343  0.1223  0.6549
18362TIP3    H176501   1.007   3.039  13.855 -0.2975  1.6507 -1.3135
18362TIP3    H276502   0.956   2.902  13.816 -1.0586  1.3638  0.6474
18363TIP3   OH276503   2.710   5.635  16.425 -0.5105  0.3686  0.4146
18363TIP3    H176504   2.642   5.695  16.394 -0.1638  1.7659  2.2676
18363TIP3    H276505   2.710   5.645  16.520  1.9880  0.0885  0.4875
18364TIP3   OH276506   6.090   6.548  13.884 -0.2722  0.7178 -0.9531
18364TIP3    H176507   6.115   6.591  13.966 -0.1899 -0.8571 -0.1278
18364TIP3    H276508   6.100   6.454  13.903  0.6191  0.3674 -3.0424
18365TIP3   OH276509   0.969   5.147  13.144 -0.0194  0.2288 -0.0463
18365TIP3    H176510   0.917   5.166  13.066  0.6451  0.4772 -0.4304
18365TIP3    H276511   1.000   5.058  13.131 -0.6968 -0.0791  0.3874
18366TIP3   OH276512   3.886   2.734  13.221  0.5548 -0.8547  0.1891
18366TIP3    H176513   3.936   2.655  13.241 -0.6114 -1.9396 -1.0658
18366TIP3    H276514   3.832   2.710  13.146 -0.9262  0.6747  0.7246
18367TIP3   OH276515   6.714   4.974   4.178 -0.0404  0.3425 -1.0777
18367TIP3    H176516   6.723   4.885   4.144  0.7262  0.0058 -0.0351
18367TIP3    H276517   6.803   5.001   4.198 -0.4040  0.7536  0.0600
18368TIP3   OH276518   1.957   4.110  15.493  0.1926 -0.1426  0.1170
18368TIP3    H176519   1.945   4.203  15.473  2.0136  0.1084  0.1151
18368TIP3    H276520   1.882   4.067  15.453  0.8086  1.0004 -2.3265
18369TIP3   OH276521   2.465   1.099  17.172 -0.2262  1.1770 -0.1273
18369TIP3    H176522   2.538   1.074  17.116 -0.4046 -0.0094  0.1715
18369TIP3    H276523   2.498   1.092  17.261 -0.3721  1.7191 -0.0224
18370TIP3   OH276524   4.911   5.782  16.077  0.4994  0.6836  0.5439
18370TIP3    H176525   4.963   5.729  16.016  0.1209 -0.0602  0.8482
18370TIP3    H276526   4.911   5.870  16.040 -0.8824 -0.0549 -1.2357
18371TIP3   OH276527   1.373   3.949   1.138  0.2940  0.7020 -0.5239
18371TIP3    H176528   1.341   4.028   1.182 -1.1947 -0.3834  0.4383
18371TIP3    H276529   1.323   3.945   1.057  1.1189  1.2968 -1.0617
18372TIP3   OH276530   2.854   3.156   1.674 -0.2789 -0.1539 -0.0797
18372TIP3    H176531   2.818   3.229   1.623 -0.7490 -0.3138  0.0143
18372TIP3    H276532   2.901   3.197   1.746 -1.4307  0.0439  0.5674
18373TIP3   OH276533   3.287   1.261  13.462 -0.1795  0.1257 -0.3962
18373TIP3    H176534   3.212   1.316  13.442 -1.1148 -1.1846 -0.5392
18373TIP3    H276535   3.322   1.295  13.544  0.3149  2.0210 -1.3540
18374TIP3   OH276536   3.612   0.577   4.201 -0.0852 -0.0385 -0.1514
18374TIP3    H176537   3.662   0.528   4.267  0.3680  0.7154  0.0702
18374TIP3    H276538   3.525   0.586   4.239  0.1492  0.3115  0.3074
18375TIP3   OH276539   2.519   5.947   2.244 -0.1736 -0.0861 -0.4005
18375TIP3    H176540   2.554   5.965   2.157  0.2392 -2.8595 -0.8430
18375TIP3    H276541   2.525   5.852   2.254 -0.3632  0.1606  2.6038
18376TIP3   OH276542   2.359   0.850  16.002 -0.4514 -0.0674 -0.0761
18376TIP3    H176543   2.368   0.773  16.057 -0.1945 -0.4249 -0.6142
18376TIP3    H276544   2.423   0.912  16.036 -0.7487 -0.0442  0.4385
18377TIP3   OH276545   5.479   5.508  16.353  0.2769 -0.6497 -1.1005
18377TIP3    H176546   5.383   5.503  16.348  0.3072 -0.9132 -1.4151
18377TIP3    H276547   5.496   5.569  16.425 -0.1248 -1.4126 -0.3514
18378TIP3   OH276548   2.351   2.024   3.787 -0.4904 -0.1341  0.0086
18378TIP3    H176549   2.359   2.103   3.842 -1.8404  0.5113 -0.7091
18378TIP3    H276550   2.262   2.027   3.753 -0.0839 -1.2214 -1.1922
18379TIP3   OH276551   2.153   6.459   1.113 -0.2844 -0.6042 -0.2272
18379TIP3    H176552   2.069   6.449   1.159  0.0707  0.2074  0.6291
18379TIP3    H276553   2.211   6.396   1.155  0.4376  1.1153  1.4590
18380TIP3   OH276554   1.316   4.895   0.207  0.2123  0.2251 -0.4288
18380TIP3    H176555   1.395   4.854   0.242  0.2186  0.0882 -0.6040
18380TIP3    H276556   1.263   4.822   0.175 -0.1761  0.2807  0.0740
18381TIP3   OH276557   1.423   1.712   5.666  0.4592 -0.5833  0.4095
18381TIP3    H176558   1.512   1.738   5.686  0.0141  2.8224 -1.7129
18381TIP3    H276559   1.369   1.755   5.733  0.1438  0.1005 -0.2720
18382TIP3   OH276560   1.572   3.732  15.752 -0.2330 -1.0963  0.2400
18382TIP3    H176561   1.639   3.725  15.684 -0.0602  2.0143  0.0177
18382TIP3    H276562   1.616   3.775  15.825 -1.8499  0.6785  0.2115
18383TIP3   OH276563   6.506   2.047  11.161 -0.2176  0.1484  0.5888
18383TIP3    H176564   6.510   1.952  11.171  2.5731  0.1945  0.1416
18383TIP3    H276565   6.412   2.067  11.166 -1.1227 -2.9316 -2.2459
18384TIP3   OH276566   0.503   3.009  15.457 -0.2776 -0.0954  0.2473
18384TIP3    H176567   0.549   2.982  15.536 -0.8202 -1.4608  0.1204
18384TIP3    H276568   0.460   2.929  15.426 -2.1554  0.9911 -0.0182
18385TIP3   OH276569   2.261   5.686  12.588 -1.3740 -0.3481  0.7551
18385TIP3    H176570   2.173   5.720  12.603 -1.7728 -0.4918 -1.0666
18385TIP3    H276571   2.263   5.603  12.634 -1.4091  0.7303  2.7333
18386TIP3   OH276572   2.528   0.410  11.925  0.4011  0.3175  0.7156
18386TIP3    H176573   2.539   0.497  11.886  0.7385 -0.1969 -0.3511
18386TIP3    H276574   2.444   0.379  11.891  1.6462 -0.9912 -1.3361
18387TIP3   OH276575   5.369   1.640   3.941 -0.3078 -0.0924  0.4174
18387TIP3    H176576   5.336   1.600   4.021 -0.6215  0.1483  0.4106
18387TIP3    H276577   5.304   1.706   3.919 -1.3380 -1.5881 -1.1893
18388TIP3   OH276578   4.406   4.325  11.702 -0.2257  0.7636  0.0305
18388TIP3    H176579   4.493   4.362  11.686 -0.7137  1.7857 -0.2850
18388TIP3    H276580   4.362   4.328  11.617 -0.1264 -0.9680 -0.1068
18389TIP3   OH276581   2.608   5.383  13.743  0.3362 -0.3420 -0.0334
18389TIP3    H176582   2.595   5.317  13.811  0.9347 -1.8787 -1.3604
18389TIP3    H276583   2.519   5.408  13.717  0.1061  0.2685  1.3002
18390TIP3   OH276584   5.188   4.603   5.764 -0.2294  0.0760  0.1262
18390TIP3    H176585   5.100   4.634   5.742 -1.1140 -1.8848  0.7702
18390TIP3    H276586   5.189   4.601   5.860  1.3800  2.3766  0.2154
18391TIP3   OH276587   0.485   6.527  16.736 -0.4151 -0.2891  0.4738
18391TIP3    H176588   0.440   6.608  16.710 -0.2592 -0.0535  0.9381
18391TIP3    H276589   0.415   6.469  16.765 -0.5869 -0.5336 -0.4021
18392TIP3   OH276590   3.309   0.101   3.901 -0.3049  0.5976 -0.0686
18392TIP3    H176591   3.403   0.099   3.920 -0.4240  1.9147  0.7192
18392TIP3    H276592   3.295   0.184   3.855 -1.2394  0.8694  0.6900
18393TIP3   OH276593   6.631   4.693  15.817 -0.5239 -0.3501 -0.1798
18393TIP3    H176594   6.556   4.634  15.810 -0.3987 -0.4482 -0.6898
18393TIP3    H276595   6.633   4.718  15.909 -2.5326  1.3652 -0.5303
18394TIP3   OH276596   1.992   0.771   4.592  0.4111  0.2158  0.3915
18394TIP3    H176597   1.920   0.728   4.638 -0.4752 -0.0028 -1.1868
18394TIP3    H276598   2.048   0.699   4.563  1.0513  0.3626  1.2436
18395TIP3   OH276599   6.467   6.704  11.913 -0.3878  0.0878  0.1340
18395TIP3    H176600   6.388   6.679  11.960  0.1275 -0.9887  0.4454
18395TIP3    H276601   6.500   6.622  11.876 -0.1558  0.7371 -1.1385
18396TIP3   OH276602   3.536   2.482  16.480  0.0023 -0.2578 -0.0970
18396TIP3    H176603   3.579   2.413  16.430 -0.4613 -0.0554 -0.7877
18396TIP3    H276604   3.579   2.481  16.566  1.9626  0.4808 -1.0350
18397TIP3   OH276605   5.650   6.520  14.306  0.1966 -0.0480 -0.3573
18397TIP3    H176606   5.626   6.600  14.261  0.3631 -1.2512 -2.6799
18397TIP3    H276607   5.745   6.516  14.298  0.1031 -0.9383 -1.0642
18398TIP3   OH276608   6.263   3.126  16.462  0.1482  0.0394 -0.0770
18398TIP3    H176609   6.330   3.133  16.530  0.3461  0.3690 -0.3076
18398TIP3    H276610   6.281   3.042  16.419  1.6633  1.0527 -1.4677
18399TIP3   OH276611   3.726   3.031  13.234 -0.1883  0.3700  0.0181
18399TIP3    H176612   3.666   2.993  13.297  0.6948 -0.9006  0.1035
18399TIP3    H276613   3.813   3.016  13.271  0.2894  0.4568 -1.0476
18400TIP3   OH276614   3.090   2.492  12.930  1.0610 -0.5048  0.1170
18400TIP3    H176615   3.014   2.435  12.927  0.9193 -0.2968 -0.4749
18400TIP3    H276616   3.090   2.528  13.018 -0.5038  0.7965 -0.3859
18401TIP3   OH276617   5.139   2.133  12.481 -0.5249  0.0941 -0.4197
18401TIP3    H176618   5.232   2.157  12.476 -0.3162 -0.5157  0.4443
18401TIP3    H276619   5.105   2.186  12.553 -0.3781 -1.1733  0.5915
18402TIP3   OH276620   0.085   6.680   5.738 -0.0229  0.0449 -0.6506
18402TIP3    H176621   0.110   6.751   5.797 -0.9144  0.0478 -0.2778
18402TIP3    H276622   0.163   6.666   5.684  0.3468  0.9345 -0.3605
18403TIP3   OH276623   4.942   1.901  16.231  0.3406  0.7285  0.7805
18403TIP3    H176624   4.967   1.887  16.322 -0.6125 -1.6937  0.7091
18403TIP3    H276625   4.857   1.857  16.223  1.0451 -0.2804 -1.6078
18404TIP3   OH276626   3.448   3.296   3.813 -0.2639 -0.7627  0.5948
18404TIP3    H176627   3.464   3.278   3.720 -0.0550  0.5808  0.3643
18404TIP3    H276628   3.527   3.266   3.857  1.8032  3.1328 -0.2250
18405TIP3   OH276629   0.508   3.994  14.978 -0.2625 -0.1418  0.0689
18405TIP3    H176630   0.507   4.078  15.023  0.9198  0.2060 -0.5319
18405TIP3    H276631   0.422   3.987  14.938 -0.3042  0.8617 -0.0187
18406TIP3   OH276632   5.862   2.764   1.079  0.3980  0.3020  0.3146
18406TIP3    H176633   5.811   2.696   1.035  0.5604  0.7659 -0.6126
18406TIP3    H276634   5.911   2.806   1.008  0.0845  1.5661  0.8317
18407TIP3   OH276635   1.444   4.726  15.012 -0.3092 -0.2863 -0.1062
18407TIP3    H176636   1.467   4.808  15.056 -1.5781  0.1647 -0.2581
18407TIP3    H276637   1.364   4.747  14.964 -1.4045 -1.9874  0.9428
18408TIP3   OH276638   2.010   6.407   0.314  0.2935  0.5197 -0.2051
18408TIP3    H176639   2.052   6.333   0.269  0.6165  0.2505  0.5374
18408TIP3    H276640   1.991   6.374   0.402 -0.0820  1.1389 -0.0496
18409TIP3   OH276641   0.747   5.004  16.106  0.6083  0.2115  0.0684
18409TIP3    H176642   0.726   5.089  16.144  1.0565 -0.1010  1.0375
18409TIP3    H276643   0.747   5.019  16.012  1.5995  1.4941  0.2660
18410TIP3   OH276644   5.446   3.663  14.848  0.2742 -0.8040  0.3801
18410TIP3    H176645   5.371   3.653  14.788  0.0265 -1.0338  0.7228
18410TIP3    H276646   5.437   3.589  14.908 -0.3777  0.3023  1.6754
18411TIP3   OH276647   1.078   0.854   1.205 -0.7912  0.2035 -0.5260
18411TIP3    H176648   1.118   0.830   1.121 -2.0638 -0.9889 -0.8002
18411TIP3    H276649   1.099   0.781   1.263 -1.7856 -0.0111 -0.4242
18412TIP3   OH276650   4.283   3.560  14.044 -0.3078  0.8311 -0.2065
18412TIP3    H176651   4.188   3.558  14.055 -0.2645  1.6089  0.3332
18412TIP3    H276652   4.296   3.557  13.949 -0.7683 -2.4198 -0.2451
18413TIP3   OH276653   5.068   0.255  13.539  0.1226 -0.3689 -0.4169
18413TIP3    H176654   5.019   0.202  13.602  0.3810 -1.1608 -0.8852
18413TIP3    H276655   5.108   0.324  13.592  2.6468 -2.6304  0.7473
18414TIP3   OH276656   2.196   2.194  13.355 -0.0525  0.0084 -0.7163
18414TIP3    H176657   2.144   2.129  13.307 -1.4774  1.1411 -0.7236
18414TIP3    H276658   2.183   2.173  13.447  2.4921 -2.0171 -0.7522
18415TIP3   OH276659   0.707   3.011   1.674  0.2913 -0.5568 -0.6073
18415TIP3    H176660   0.699   2.999   1.579 -2.5426  0.0080 -0.4933
18415TIP3    H276661   0.715   3.106   1.686  2.2330 -0.7347 -0.3472
18416TIP3   OH276662   5.783   0.147  16.072 -0.0172  0.0649 -0.1096
18416TIP3    H176663   5.800   0.076  16.133  0.4252 -1.1126 -1.5555
18416TIP3    H276664   5.839   0.128  15.997  0.1541  1.9775 -0.5073
18417TIP3   OH276665   2.683   4.696   3.557 -0.5488  0.1599  0.2256
18417TIP3    H176666   2.629   4.651   3.492 -0.7809  2.1003 -0.9424
18417TIP3    H276667   2.708   4.627   3.618 -0.1035 -1.7528 -2.0569
18418TIP3   OH276668   3.212   5.170  13.912  0.1678  0.4378 -0.1032
18418TIP3    H176669   3.175   5.085  13.935 -0.6728  0.8974  0.2460
18418TIP3    H276670   3.295   5.173  13.958  0.1231 -0.1232  0.0182
18419TIP3   OH276671   3.462   2.627  14.819  0.1548 -0.4457 -0.4822
18419TIP3    H176672   3.405   2.696  14.851  1.5820  0.2236  0.6851
18419TIP3    H276673   3.403   2.554  14.800 -1.2062  0.6298 -0.4316
18420TIP3   OH276674   2.574   4.716   0.163 -0.0198 -0.3843  0.2262
18420TIP3    H176675   2.495   4.664   0.153 -0.6482  0.6409 -0.2401
18420TIP3    H276676   2.553   4.780   0.231  0.9641 -1.1518  1.2627
18421TIP3   OH276677   2.415   0.835  13.609  0.0872  0.2134 -0.1357
18421TIP3    H176678   2.391   0.910  13.554  0.3744 -0.7959 -1.6703
18421TIP3    H276679   2.353   0.767  13.584 -1.1038  0.3579  2.2870
18422TIP3   OH276680   6.064   3.230  12.038  0.4251  0.2157 -0.2937
18422TIP3    H176681   6.130   3.234  11.969  1.3872  1.2773  0.6753
18422TIP3    H276682   6.070   3.140  12.071  0.5712 -0.0315 -0.9859
18423TIP3   OH276683   2.885   2.608  11.781 -0.1574 -0.2176 -0.5688
18423TIP3    H176684   2.930   2.584  11.700  1.8170  3.1821 -0.5810
18423TIP3    H276685   2.954   2.613  11.847 -1.5072 -1.3673  0.9670
18424TIP3   OH276686   6.318   0.390  16.658  0.1420 -0.4181  0.6645
18424TIP3    H176687   6.353   0.314  16.612 -1.2376  0.4029 -1.7906
18424TIP3    H276688   6.242   0.417  16.607  0.3700  2.3685  1.7096
18425TIP3   OH276689   3.556   1.341  14.232 -0.3812  0.8075 -0.2038
18425TIP3    H176690   3.577   1.355  14.140 -0.5548 -2.1921 -0.7513
18425TIP3    H276691   3.462   1.360  14.239 -0.6671 -0.3181 -0.9471
18426TIP3   OH276692   3.948   4.080   0.530 -0.1330  0.8845  0.7003
18426TIP3    H176693   3.986   4.112   0.448  0.9415 -1.5371  0.2196
18426TIP3    H276694   3.854   4.099   0.522  0.0090  0.9925 -0.9262
18427TIP3   OH276695   1.313   4.007  11.252  0.0647  0.0175 -0.1402
18427TIP3    H176696   1.354   3.921  11.241 -0.9112 -0.3386 -1.1089
18427TIP3    H276697   1.336   4.034  11.341 -1.1599 -2.0652  0.8294
18428TIP3   OH276698   2.671   1.465  12.606 -0.2088 -0.2553  0.0532
18428TIP3    H176699   2.678   1.516  12.686 -4.0335  1.1944 -0.4700
18428TIP3    H276700   2.614   1.392  12.628 -0.1853 -0.6158 -1.0104
18429TIP3   OH276701   6.144   5.352   2.113 -0.5140  0.4175 -0.0336
18429TIP3    H176702   6.052   5.327   2.116 -0.7348  1.1401 -0.6450
18429TIP3    H276703   6.155   5.393   2.028 -0.3890  3.2958  1.3279
18430TIP3   OH276704   4.656   0.949  12.231 -0.0535  0.1363 -0.0047
18430TIP3    H176705   4.671   1.028  12.283 -1.4750  0.3737  0.0708
18430TIP3    H276706   4.659   0.978  12.140 -0.0985  0.1983  0.0138
18431TIP3   OH276707   5.823   6.455  13.961  0.1025 -0.6923 -0.8646
18431TIP3    H176708   5.829   6.362  13.980  0.2409 -0.1686  1.8555
18431TIP3    H276709   5.753   6.487  14.018  1.9614  1.3681  0.3736
18432TIP3   OH276710   4.255   1.692  15.218  0.7064 -0.1902  0.4202
18432TIP3    H176711   4.164   1.721  15.224  0.3283 -0.6799 -2.2744
18432TIP3    H276712   4.304   1.772  15.198  0.5705 -0.2611 -0.2178
18433TIP3   OH276713   1.028   5.066   5.377 -1.0085  0.2948  0.0814
18433TIP3    H176714   0.937   5.080   5.351 -1.1819 -0.6909  0.1450
18433TIP3    H276715   1.038   5.118   5.457 -2.0556 -1.0815  1.1306
18434TIP3   OH276716   4.131   0.440   0.069 -0.5215 -0.1503  0.6361
18434TIP3    H176717   4.212   0.492   0.076  0.1307 -0.9204 -0.8702
18434TIP3    H276718   4.161   0.350   0.063 -1.3230 -0.2875 -2.2993
18435TIP3   OH276719   2.245   2.451  15.471  0.0869 -0.2034 -0.6160
18435TIP3    H176720   2.315   2.463  15.407 -0.9542  0.4318 -1.6800
18435TIP3    H276721   2.258   2.521  15.534  0.9027 -0.5999 -0.3387
18436TIP3   OH276722   3.677   1.721   4.114 -0.1481  0.2527  0.2217
18436TIP3    H176723   3.589   1.734   4.078 -0.4147  0.0680  0.7867
18436TIP3    H276724   3.678   1.630   4.142 -0.0923  0.5057  1.0563
18437TIP3   OH276725   0.578   6.338  15.914 -0.4400 -0.1003  0.2275
18437TIP3    H176726   0.647   6.333  15.980 -0.0214  0.4769 -0.1548
18437TIP3    H276727   0.571   6.248  15.880 -0.0034 -0.1980  0.3913
18438TIP3   OH276728   3.819   0.736  15.205 -0.1926 -0.0092 -0.3756
18438TIP3    H176729   3.833   0.816  15.153 -1.3682 -0.6019 -1.6398
18438TIP3    H276730   3.757   0.762  15.273  0.4121  0.4744 -0.0072
18439TIP3   OH276731   4.839   1.940   2.931  0.2342 -0.0774  0.2119
18439TIP3    H176732   4.924   1.908   2.901 -0.1414 -0.7313 -0.1924
18439TIP3    H276733   4.779   1.867   2.912 -0.3667  0.2861  0.7122
18440TIP3   OH276734   5.729   5.226   5.712  0.3565  0.1296 -0.6650
18440TIP3    H176735   5.720   5.132   5.696  1.1600  0.2470 -1.8759
18440TIP3    H276736   5.640   5.258   5.720  0.0846 -1.3399  3.5601
18441TIP3   OH276737   3.619   6.524  14.132 -0.5501 -0.2688  0.2423
18441TIP3    H176738   3.594   6.614  14.112 -1.7289 -1.0671 -2.1987
18441TIP3    H276739   3.701   6.510  14.084 -0.4878 -0.5488  0.4279
18442TIP3   OH276740   3.075   1.532  16.451 -0.3917 -0.1560  0.7423
18442TIP3    H176741   3.146   1.522  16.514  0.2329 -0.4339 -0.0062
18442TIP3    H276742   3.005   1.475  16.485 -0.8083  1.2054  2.2445
18443TIP3   OH276743   4.543   0.066   3.332 -0.1991 -0.3411 -0.1654
18443TIP3    H176744   4.601   0.041   3.261 -1.2491  1.6089 -1.7627
18443TIP3    H276745   4.583   0.144   3.370  0.0411 -1.0230  1.0167
18444TIP3   OH276746   2.859   0.720   2.483  0.5463  0.1902 -0.0175
18444TIP3    H176747   2.927   0.757   2.428  0.4752  0.6001  0.1725
18444TIP3    H276748   2.779   0.728   2.432  0.7075 -0.6866 -0.4202
18445TIP3   OH276749   0.858   3.418   4.459  0.4305  0.0723 -0.1343
18445TIP3    H176750   0.833   3.477   4.388 -0.5924  1.6104  1.4791
18445TIP3    H276751   0.813   3.452   4.536  2.7189 -0.6416  1.5921
18446TIP3   OH276752   0.764   6.649  14.974  0.0895  0.0586 -0.1794
18446TIP3    H176753   0.677   6.616  14.952  0.8995 -1.2816 -1.4686
18446TIP3    H276754   0.765   6.738  14.941 -1.2070  0.5319  0.9667
18447TIP3   OH276755   2.313   6.315   6.707  0.0702 -0.5694 -0.3135
18447TIP3    H176756   2.219   6.296   6.704  0.1171 -0.8602  0.0797
18447TIP3    H276757   2.336   6.306   6.799  0.5223 -0.6778 -0.4386
18448TIP3   OH276758   3.013   0.172   0.356  0.2375 -0.0353 -0.0907
18448TIP3    H176759   2.926   0.163   0.396  1.6847 -0.8424  3.0416
18448TIP3    H276760   3.013   0.260   0.319 -2.2548 -0.3907 -1.0181
18449TIP3   OH276761   3.962   5.072   0.887 -0.9178  0.0923 -0.4886
18449TIP3    H176762   4.028   5.014   0.925 -0.5703 -0.5067 -1.9798
18449TIP3    H276763   3.944   5.136   0.956 -1.1814 -1.6647  1.1134
18450TIP3   OH276764   0.151   0.716   5.726 -0.0103 -0.4964  0.2317
18450TIP3    H176765   0.223   0.775   5.747 -0.9757  1.3454 -1.4834
18450TIP3    H276766   0.080   0.773   5.698 -0.9892 -2.4697 -1.4761
18451TIP3   OH276767   2.809   3.952   1.910  0.1786 -0.0784  0.0772
18451TIP3    H176768   2.785   3.895   1.984 -0.4870 -0.6323 -0.5518
18451TIP3    H276769   2.784   3.901   1.832  2.9694 -0.4482 -0.6101
18452TIP3   OH276770   4.314   0.914   1.720  0.2861  0.4545 -0.4216
18452TIP3    H176771   4.309   0.916   1.816 -0.5285  0.5276 -0.4649
18452TIP3    H276772   4.267   0.992   1.692  0.6789  0.5274 -0.8845
18453TIP3   OH276773   2.455   6.604   0.910  0.2834 -0.2942  0.3125
18453TIP3    H176774   2.417   6.674   0.963 -0.7208 -0.7175  0.1650
18453TIP3    H276775   2.431   6.627   0.820 -1.7672 -1.8499  0.4270
18454TIP3   OH276776   0.537   6.753  12.261 -0.7585 -0.6897  0.1459
18454TIP3    H176777   0.561   6.817  12.328  0.3492 -0.5594 -0.3643
18454TIP3    H276778   0.610   6.692  12.259  0.3788  0.6833 -2.6479
18455TIP3   OH276779   6.404   2.385   2.136 -0.2949  0.3149 -0.0600
18455TIP3    H176780   6.490   2.349   2.114 -0.9414 -0.0877 -1.9688
18455TIP3    H276781   6.386   2.450   2.068 -1.9103 -0.2631 -0.2110
18456TIP3   OH276782   5.088   1.082  13.818 -0.4898  0.6019 -0.4832
18456TIP3    H176783   5.108   1.127  13.735  1.4564  0.3714 -0.1612
18456TIP3    H276784   5.173   1.053  13.850 -1.5360 -1.8065  0.1902
18457TIP3   OH276785   3.586   1.923   3.806  0.4082  0.2568 -0.3614
18457TIP3    H176786   3.522   1.899   3.739 -0.3938 -2.8355  1.4194
18457TIP3    H276787   3.671   1.911   3.763 -0.1187  0.5868 -1.5232
18458TIP3   OH276788   2.011   2.700   0.422  0.0483 -0.4114  0.4454
18458TIP3    H176789   1.925   2.724   0.458  0.2472 -1.0666  1.3613
18458TIP3    H276790   1.995   2.688   0.328 -0.8273 -0.3888  0.5866
18459TIP3   OH276791   1.872   5.446  15.634 -0.4915  0.1128 -0.1801
18459TIP3    H176792   1.824   5.377  15.681 -1.5599  1.6702  1.0903
18459TIP3    H276793   1.942   5.471  15.693 -1.9517  2.2115  0.7337
18460TIP3   OH276794   2.419   2.772  17.132 -0.3707  0.0135 -0.2394
18460TIP3    H176795   2.384   2.858  17.159  1.0286  0.9279 -1.2948
18460TIP3    H276796   2.352   2.736  17.074 -0.6573  0.6897 -0.3308
18461TIP3   OH276797   5.175   0.454  13.763  0.8615 -0.1720 -0.4725
18461TIP3    H176798   5.099   0.484  13.712 -0.8561 -2.6472  0.5367
18461TIP3    H276799   5.251   0.485  13.714 -0.7813  0.9090 -2.4094
18462TIP3   OH276800   6.336   3.659   0.092 -0.7609  0.5093  0.1694
18462TIP3    H176801   6.423   3.620   0.078 -0.6514  0.1647  1.6663
18462TIP3    H276802   6.312   3.695   0.007 -0.5184 -2.1449 -1.0972
18463TIP3   OH276803   1.844   1.118  13.091  0.1523  0.0822  0.0449
18463TIP3    H176804   1.784   1.079  13.155  0.3825  0.8071  0.7045
18463TIP3    H276805   1.795   1.191  13.053  0.2249  0.0025 -0.2056
18464TIP3   OH276806   1.272   5.452  16.589  0.1902  0.3362  0.3795
18464TIP3    H176807   1.260   5.538  16.549  0.8883 -0.6468 -2.0581
18464TIP3    H276808   1.183   5.424  16.613 -0.3174  0.7650 -0.9528
18465TIP3   OH276809   4.564   4.111  10.886 -0.6417 -0.0517 -0.0837
18465TIP3    H176810   4.649   4.128  10.927 -0.3247 -0.7943 -0.4438
18465TIP3    H276811   4.518   4.054  10.948 -0.6122 -0.2215 -0.2194
18466TIP3   OH276812   2.272   0.023   0.984  0.0628  0.4615 -0.3196
18466TIP3    H176813   2.179   0.044   0.987 -0.3357 -0.9200 -1.9301
18466TIP3    H276814   2.307   0.080   0.915  0.3234  0.6373 -0.0445
18467TIP3   OH276815   6.302   5.568  11.578  0.5132  0.0513 -0.3688
18467TIP3    H176816   6.343   5.492  11.538  1.0657  0.5381 -0.7534
18467TIP3    H276817   6.212   5.568  11.546  0.2484 -0.9604  0.3761
18468TIP3   OH276818   1.790   1.381   0.307  0.3037 -0.1238 -0.5696
18468TIP3    H176819   1.850   1.351   0.376  1.1224  1.6170 -0.5053
18468TIP3    H276820   1.724   1.431   0.354 -0.6203 -1.1528 -0.7651
18469TIP3   OH276821   5.817   3.735   2.915  0.8103 -0.3596  0.1622
18469TIP3    H176822   5.857   3.696   2.992  0.9514 -2.3774 -0.9013
18469TIP3    H276823   5.761   3.666   2.879 -1.1386  1.3612 -0.1712
18470TIP3   OH276824   5.599   4.594  13.186 -0.8872 -0.1346  0.2365
18470TIP3    H176825   5.509   4.572  13.208 -0.3127 -1.6640  1.1848
18470TIP3    H276826   5.649   4.516  13.211  0.5937  0.4019 -0.9757
18471TIP3   OH276827   5.630   4.478  17.095  0.1032 -0.4701 -0.4328
18471TIP3    H176828   5.644   4.485  17.190 -0.4347 -1.4466 -0.2771
18471TIP3    H276829   5.540   4.447  17.086 -0.8814  2.5201 -1.3511
18472TIP3   OH276830   4.088   2.104   4.251  0.3505  0.0086  0.1797
18472TIP3    H176831   4.049   2.134   4.169 -1.1488  0.2162  0.9585
18472TIP3    H276832   4.097   2.184   4.303  0.0578 -0.3237  0.7358
18473TIP3   OH276833   2.511   4.492  12.861 -0.3786  0.7234 -0.4223
18473TIP3    H176834   2.584   4.436  12.888 -1.5461 -0.4969  0.3038
18473TIP3    H276835   2.446   4.481  12.931 -1.8840  0.5840 -1.8071
18474TIP3   OH276836   3.538   3.587  11.736 -0.4466 -0.1692 -0.2004
18474TIP3    H176837   3.578   3.569  11.821  0.9549 -1.0176 -1.0301
18474TIP3    H276838   3.466   3.646  11.756  1.2726  1.4819  1.3213
18475TIP3   OH276839   1.825   1.302  12.573 -0.4595 -0.1391 -0.3770
18475TIP3    H176840   1.807   1.333  12.484 -1.2351 -1.7679 -0.7948
18475TIP3    H276841   1.900   1.244  12.563 -0.4110 -0.1508  0.0676
18476TIP3   OH276842   5.344   1.800   2.745  0.3337  0.0001  0.3863
18476TIP3    H176843   5.267   1.836   2.789 -0.3891 -1.5768  0.4299
18476TIP3    H276844   5.410   1.791   2.815 -0.0638 -0.4039  0.7101
18477TIP3   OH276845   0.570   4.812   5.665  0.1838  0.1193 -0.3164
18477TIP3    H176846   0.564   4.716   5.665  0.8995  0.0672  0.8651
18477TIP3    H276847   0.624   4.833   5.741  1.4145  1.3865 -1.5124
18478TIP3   OH276848   2.090   3.322   3.468 -0.5385  0.2099  0.4157
18478TIP3    H176849   2.139   3.282   3.540  0.2658 -0.1295 -0.3104
18478TIP3    H276850   2.130   3.407   3.456  0.1417 -0.2302 -0.4477
18479TIP3   OH276851   5.413   0.202   4.617  0.2316 -0.1018  0.4080
18479TIP3    H176852   5.392   0.291   4.589 -1.7380 -0.8831 -0.6640
18479TIP3    H276853   5.480   0.172   4.556  0.2656  0.3477  0.2264
18480TIP3   OH276854   5.529   1.708   3.710  0.0356 -0.1904 -0.3396
18480TIP3    H176855   5.498   1.667   3.791  0.3421  0.8510  0.3154
18480TIP3    H276856   5.465   1.683   3.644 -0.5429 -0.5523  0.3535
18481TIP3   OH276857   2.412   6.285  12.042  0.2442  0.0824  0.2487
18481TIP3    H176858   2.322   6.261  12.019 -0.7871  3.1500  0.8198
18481TIP3    H276859   2.431   6.236  12.121 -0.3134 -1.8460 -0.7828
18482TIP3   OH276860   1.502   6.554  12.185 -0.3775  0.1658 -0.3928
18482TIP3    H176861   1.471   6.469  12.217 -0.7085  0.5193  0.2315
18482TIP3    H276862   1.421   6.602  12.164 -0.1922  0.3597 -0.6703
18483TIP3   OH276863   4.045   6.590   1.578  0.1176  0.2521 -0.1058
18483TIP3    H176864   3.992   6.547   1.511 -0.0996  0.0635  0.1874
18483TIP3    H276865   4.127   6.610   1.534 -0.5977  1.5346 -0.8741
18484TIP3   OH276866   2.515   5.054  15.395  0.5821  0.4665  0.3299
18484TIP3    H176867   2.574   5.000  15.342 -0.7082 -0.1623 -0.4990
18484TIP3    H276868   2.454   4.992  15.434  0.7661  1.0596  1.5997
18485TIP3   OH276869   4.909   6.106  11.727  0.4538  0.0566  0.0042
18485TIP3    H176870   4.900   6.200  11.745  0.3562  0.1040 -0.2967
18485TIP3    H276871   4.940   6.069  11.810 -0.7138  0.1711  0.5004
18486TIP3   OH276872   4.666   0.948   2.084 -0.0444  0.3589 -0.3825
18486TIP3    H176873   4.704   0.942   2.172 -0.6554  1.0311 -0.0721
18486TIP3    H276874   4.699   1.030   2.049 -0.5836  0.5677 -0.4075
18487TIP3   OH276875   3.749   4.017   2.801  0.2053 -0.3967 -0.4903
18487TIP3    H176876   3.719   3.966   2.726  0.2180 -0.1044 -0.6963
18487TIP3    H276877   3.715   3.970   2.877  1.7347 -1.6920 -0.5909
18488TIP3   OH276878   1.565   5.827   5.777 -0.5229  0.1544  0.8790
18488TIP3    H176879   1.506   5.764   5.736  0.1784 -0.6654  1.1251
18488TIP3    H276880   1.619   5.775   5.837  1.4480  0.6345 -0.4238
18489TIP3   OH276881   0.227   6.293  16.851 -0.0034  0.3447  0.3253
18489TIP3    H176882   0.132   6.307  16.848 -0.5087 -2.7008  0.2289
18489TIP3    H276883   0.249   6.264  16.763  0.7681 -0.2915  0.7202
18490TIP3   OH276884   1.383   3.788  10.905  0.4017 -0.0819 -0.2712
18490TIP3    H176885   1.369   3.882  10.912 -0.6361 -0.2540  0.0511
18490TIP3    H276886   1.447   3.768  10.973 -0.4060  0.1796  0.5824
18491TIP3   OH276887   1.737   3.665  12.321 -0.3119 -0.6696 -0.9566
18491TIP3    H176888   1.716   3.741  12.267  0.6876 -0.0084 -0.4185
18491TIP3    H276889   1.653   3.620  12.332 -0.6037 -0.5881 -2.6942
18492TIP3   OH276890   6.453   6.565   3.393 -0.5635 -0.3030  0.4276
18492TIP3    H176891   6.518   6.592   3.328 -1.4851 -0.0634 -0.3990
18492TIP3    H276892   6.498   6.498   3.445  1.3564  1.9361  1.7588
18493TIP3   OH276893   5.679   3.663   4.598  0.5310  0.3498  0.1485
18493TIP3    H176894   5.740   3.736   4.601 -0.5532  1.2791 -0.2143
18493TIP3    H276895   5.703   3.609   4.673  2.0983  0.4507 -0.2552
18494TIP3   OH276896   2.110   2.926   0.287  0.2085 -0.5564 -0.2395
18494TIP3    H176897   2.027   2.908   0.243 -1.2364  2.1422  1.2103
18494TIP3    H276898   2.116   2.858   0.355 -0.1192 -1.5853 -1.2246
18495TIP3   OH276899   4.109   6.069  13.883 -0.0075 -0.0314  0.9052
18495TIP3    H176900   4.126   6.072  13.789  0.6126 -3.2967  0.8373
18495TIP3    H276901   4.191   6.096  13.923 -0.7264  2.8329  0.5583
18496TIP3   OH276902   4.821   4.954  12.574  0.7583 -0.3387  0.4559
18496TIP3    H176903   4.894   4.913  12.620 -0.9021  0.0202  3.4751
18496TIP3    H276904   4.777   5.007  12.640  0.4220  3.1272 -2.3751
18497TIP3   OH276905   4.656   4.119  16.101 -0.2709  0.3519 -0.0288
18497TIP3    H176906   4.568   4.142  16.068 -0.1952 -0.2282 -0.6485
18497TIP3    H276907   4.670   4.178  16.175 -1.0278  0.7167 -0.1690
18498TIP3   OH276908   0.435   5.802  15.027 -0.2980 -0.2019 -0.1546
18498TIP3    H176909   0.418   5.717  14.987 -0.9425 -0.2939  0.3047
18498TIP3    H276910   0.467   5.781  15.114  0.9190  0.0007 -0.5488
18499TIP3   OH276911   6.325   3.848  13.443 -0.1894  0.4877  0.2597
18499TIP3    H176912   6.273   3.891  13.511 -0.5848  0.6273 -0.1283
18499TIP3    H276913   6.389   3.915  13.417  0.7112  0.0445  1.3037
18500TIP3   OH276914   4.457   6.715   2.831 -0.3767 -0.2396 -0.2528
18500TIP3    H176915   4.544   6.714   2.789 -0.1760  0.5621  0.1394
18500TIP3    H276916   4.422   6.802   2.811 -0.1282  0.2932  1.5485
18501TIP3   OH276917   4.770   4.923   1.370  0.0332 -0.4474 -0.1855
18501TIP3    H176918   4.824   4.903   1.293 -0.2631  0.5589 -0.6644
18501TIP3    H276919   4.719   4.844   1.385  2.5428 -1.8898  1.0261
18502TIP3   OH276920   6.321   5.591  13.941  0.1045 -0.2104 -0.1347
18502TIP3    H176921   6.280   5.667  13.901 -0.0073 -0.7229 -0.9970
18502TIP3    H276922   6.350   5.622  14.027  0.4794  0.9363 -0.6672
18503TIP3   OH276923   4.197   0.791   3.899 -0.0526  0.4208  0.5465
18503TIP3    H176924   4.125   0.821   3.844  0.2912 -1.9992 -1.2678
18503TIP3    H276925   4.273   0.792   3.841  0.2731 -2.3871  0.8847
18504TIP3   OH276926   4.450   2.966   2.009  0.1592 -0.0159 -0.2114
18504TIP3    H176927   4.363   2.928   2.020 -0.0351  1.0480  2.2844
18504TIP3    H276928   4.509   2.904   2.052  0.5443 -0.2357 -1.0320
18505TIP3   OH276929   0.562   5.641  16.611  0.0404  0.5638  0.0356
18505TIP3    H176930   0.602   5.555  16.620 -2.2666 -0.6931 -1.0898
18505TIP3    H276931   0.634   5.700  16.589  1.4328 -1.3299 -0.5528
18506TIP3   OH276932   3.988   1.621  12.390  0.6612  0.4455  0.1219
18506TIP3    H176933   4.028   1.708  12.386  1.5416 -0.0017 -0.8746
18506TIP3    H276934   3.898   1.638  12.420  1.2727  1.5491  1.4260
18507TIP3   OH276935   1.282   0.471   1.914 -0.2203 -0.0703  0.1336
18507TIP3    H176936   1.368   0.428   1.922 -0.7814 -1.4441 -0.9582
18507TIP3    H276937   1.284   0.511   1.827 -1.0712 -0.9817 -0.3104
18508TIP3   OH276938   6.389   0.518  16.224 -0.1657  0.0714  0.0794
18508TIP3    H176939   6.295   0.502  16.215 -0.1673 -0.4621  0.9670
18508TIP3    H276940   6.427   0.431  16.234  0.3954  0.3087 -0.0031
18509TIP3   OH276941   3.281   3.151  10.999  0.9162 -0.2093  0.2852
18509TIP3    H176942   3.200   3.118  11.038 -0.0867  1.6455 -0.1498
18509TIP3    H276943   3.351   3.106  11.046 -0.3644 -1.3359  1.1319
18510TIP3   OH276944   0.274   6.388   3.149 -0.0123 -0.3243  0.0229
18510TIP3    H176945   0.337   6.332   3.194  0.2681 -0.5698 -0.6691
18510TIP3    H276946   0.233   6.331   3.084  0.3130  0.2674 -0.7255
18511TIP3   OH276947   4.576   4.074  15.823 -0.4140  0.3622  0.4567
18511TIP3    H176948   4.628   4.012  15.874 -1.6965 -0.7389  0.4604
18511TIP3    H276949   4.618   4.075  15.737 -0.6591 -0.8976  0.3072
18512TIP3   OH276950   6.082   5.073   0.084 -0.5399 -0.0617 -0.3734
18512TIP3    H176951   6.135   5.152   0.077 -1.1811  0.4986  0.9428
18512TIP3    H276952   6.131   5.006   0.036  1.0802  0.5750  0.3880
18513TIP3   OH276953   5.873   5.966   0.033  0.3375  0.1396  0.1250
18513TIP3    H176954   5.795   6.001   0.076  1.0397 -1.0619  2.4729
18513TIP3    H276955   5.908   6.039  -0.018 -0.0463  1.8902  2.3220
18514TIP3   OH276956   3.742   2.253   4.935 -0.4008 -0.1410 -0.1032
18514TIP3    H176957   3.704   2.245   5.022  0.0265  1.0182  0.1887
18514TIP3    H276958   3.675   2.218   4.876 -1.5558  1.0456  0.4952
18515TIP3   OH276959   0.532   1.585   5.643  0.3023  0.6638  0.3260
18515TIP3    H176960   0.450   1.611   5.684  1.2534  3.3485  0.6090
18515TIP3    H276961   0.585   1.551   5.716  0.7872  2.3678  0.7767
18516TIP3   OH276962   4.082   5.220   6.387  0.2633  0.5759 -0.0101
18516TIP3    H176963   4.158   5.169   6.414  1.4413  1.5679 -1.3533
18516TIP3    H276964   4.110   5.311   6.396 -1.8445  1.0321  2.4442
18517TIP3   OH276965   0.699   0.713   1.662 -0.0856  0.9674 -0.1305
18517TIP3    H176966   0.702   0.640   1.600  0.1460  0.9127 -0.0543
18517TIP3    H276967   0.623   0.764   1.634 -0.9428  0.0695  0.5163
18518TIP3   OH276968   3.657   0.840  16.771  0.7177  1.3155  0.2528
18518TIP3    H176969   3.571   0.877  16.789 -0.1259  0.2687 -1.5905
18518TIP3    H276970   3.712   0.872  16.843 -1.4171  1.2140  1.9614
18519TIP3   OH276971   4.961   1.432  13.836  0.5502 -0.4689  0.0267
18519TIP3    H176972   4.934   1.506  13.781  0.2085 -1.0810 -0.6482
18519TIP3    H276973   4.904   1.360  13.808  0.1904 -0.7268  1.3700
18520TIP3   OH276974   0.775   2.607  11.819  0.1315  0.0578  0.1755
18520TIP3    H176975   0.704   2.672  11.822  0.3952  0.3981 -0.7176
18520TIP3    H276976   0.851   2.656  11.786  1.4012  0.2348  3.2513
18521TIP3   OH276977   0.392   6.196  12.263 -0.0671 -0.4088  0.1856
18521TIP3    H176978   0.382   6.244  12.181  0.3938 -0.0692  0.3284
18521TIP3    H276979   0.459   6.130  12.245 -0.4017 -0.7330  0.1128
18522TIP3   OH276980   3.730   3.786  11.847 -0.0133 -0.3600  0.2856
18522TIP3    H176981   3.699   3.740  11.926  0.2281  0.1036  0.6500
18522TIP3    H276982   3.652   3.827  11.811 -0.2622 -1.1896 -0.1308
18523TIP3   OH276983   2.620   3.339  12.627  0.0391 -0.7858  0.2964
18523TIP3    H176984   2.639   3.346  12.720 -0.5316  0.5256  0.3206
18523TIP3    H276985   2.578   3.253  12.618 -0.1278 -0.8134  1.2677
18524TIP3   OH276986   5.777   2.099  10.540 -0.0757 -1.0025 -0.4353
18524TIP3    H176987   5.804   2.007  10.531  1.9918 -0.7576  2.3707
18524TIP3    H276988   5.857   2.149  10.522 -0.9221  0.2060 -0.8922
18525TIP3   OH276989   1.609   0.033   3.366  0.4785 -0.5568  0.4196
18525TIP3    H176990   1.673   0.073   3.308  0.6559 -1.6621 -0.1551
18525TIP3    H276991   1.524   0.055   3.327  0.5739 -0.6811  0.1424
18526TIP3   OH276992   6.294   2.168  15.173  0.3362 -0.4811  0.1730
18526TIP3    H176993   6.325   2.217  15.248 -3.4719  1.6877  0.4544
18526TIP3    H276994   6.222   2.115  15.207 -0.9634 -0.0073 -1.7768
18527TIP3   OH276995   1.396   0.719   4.675  0.0263 -0.0551 -0.7606
18527TIP3    H176996   1.350   0.635   4.675  2.3516 -1.4023  1.5966
18527TIP3    H276997   1.465   0.709   4.609  1.1810 -0.5547  0.4906
18528TIP3   OH276998   5.424   3.958  17.116 -0.2501  0.0034 -0.2660
18528TIP3    H176999   5.513   3.922  17.120 -0.5348 -0.7301 -0.3965
18528TIP3    H277000   5.427   4.037  17.169  0.6221  0.2750 -0.7057
18529TIP3   OH277001   5.511   5.845   1.722 -0.0024  0.0136 -0.4327
18529TIP3    H177002   5.442   5.872   1.660  1.1823 -0.2069 -1.8600
18529TIP3    H277003   5.546   5.927   1.756 -1.6504  0.1185  1.0890
18530TIP3   OH277004   0.827   2.967  14.697 -0.2191 -0.2497  0.3082
18530TIP3    H177005   0.887   2.896  14.722 -1.0171 -0.9039  0.3886
18530TIP3    H277006   0.766   2.974  14.770  0.2967  1.0325  0.6309
18531TIP3   OH277007   6.514   2.795   0.510  0.1830  0.6310  0.1302
18531TIP3    H177008   6.604   2.820   0.532  0.3534  0.6890 -0.6120
18531TIP3    H277009   6.524   2.723   0.447 -0.3001 -1.5476  2.4681
18532TIP3   OH277010   3.287   5.545  13.508 -0.2288 -0.2517  0.2180
18532TIP3    H177011   3.192   5.537  13.515 -0.1518 -0.1650  1.4822
18532TIP3    H277012   3.322   5.499  13.584  0.7990 -1.2074 -0.8057
18533TIP3   OH277013   2.903   0.697   0.997  0.0098 -0.5947  0.4682
18533TIP3    H177014   2.837   0.690   1.067  0.2549 -1.4709  0.6204
18533TIP3    H277015   2.896   0.614   0.949  0.8471 -0.6005  0.3463
18534TIP3   OH277016   0.311   2.831   5.794  0.3034  0.2536 -0.4451
18534TIP3    H177017   0.255   2.898   5.833 -0.0426 -0.1788 -0.1984
18534TIP3    H277018   0.290   2.751   5.841  0.3078 -0.1524 -1.1177
18535TIP3   OH277019   0.021   0.615   4.309 -0.3329  0.2087 -0.3666
18535TIP3    H177020   0.013   0.710   4.298 -0.4702  0.4453  1.6132
18535TIP3    H277021   0.093   0.604   4.371  2.0290 -1.1474 -3.2263
18536TIP3   OH277022   5.004   1.301   2.071 -0.9670  0.2341  0.2590
18536TIP3    H177023   5.049   1.347   2.000 -0.2859  2.6861  2.2259
18536TIP3    H277024   4.951   1.368   2.114 -1.5122 -1.2418  1.9472
18537TIP3   OH277025   4.447   0.949  16.098  0.7476 -0.4959 -0.5481
18537TIP3    H177026   4.503   0.875  16.073  1.9041  0.7047 -1.5647
18537TIP3    H277027   4.398   0.969  16.019 -1.2048 -1.5709  0.3498
18538TIP3   OH277028   0.921   2.546   1.950  0.3067  0.1748  0.2702
18538TIP3    H177029   0.999   2.531   1.897 -0.6793  2.6881 -1.9788
18538TIP3    H277030   0.848   2.525   1.892 -0.7311 -0.0316  1.6384
18539TIP3   OH277031   6.283   2.749  12.549  0.0001 -0.1106 -0.7400
18539TIP3    H177032   6.327   2.736  12.633  0.2539  0.6631 -0.7560
18539TIP3    H277033   6.330   2.690  12.489 -2.0701 -2.9272  0.2770
18540TIP3   OH277034   2.491   2.575   5.432 -0.6382 -0.3040 -0.0957
18540TIP3    H177035   2.454   2.601   5.348  0.8030 -1.0264 -0.9848
18540TIP3    H277036   2.505   2.481   5.425  0.9809 -0.1287  0.3304
18541TIP3   OH277037   4.022   3.206   0.147 -0.5735  0.0982 -0.1672
18541TIP3    H177038   4.036   3.272   0.216  0.0046 -1.3970  1.1901
18541TIP3    H277039   3.952   3.242   0.093  0.0623  2.0504  0.2538
18542TIP3   OH277040   0.449   0.986  15.173  0.2172  0.0364  0.1727
18542TIP3    H177041   0.410   0.903  15.144  0.6428 -0.5528  1.2540
18542TIP3    H277042   0.463   1.036  15.093  0.2686 -1.0754 -0.5157
18543TIP3   OH277043   2.800   0.619  15.118 -0.2224 -0.1337  0.0737
18543TIP3    H177044   2.741   0.677  15.070 -0.3824  2.2614  3.0658
18543TIP3    H277045   2.880   0.669  15.127  0.9416 -1.8529 -0.4936
18544TIP3   OH277046   2.312   2.537  12.348 -0.1944 -0.3146 -0.5134
18544TIP3    H177047   2.401   2.508  12.334  0.5319  1.4138  0.3432
18544TIP3    H277048   2.288   2.580  12.265 -0.2474 -0.8091 -0.7549
18545TIP3   OH277049   4.714   1.215   4.187  0.1606  0.0627 -0.5009
18545TIP3    H177050   4.804   1.230   4.158 -0.1816  1.1909 -0.9905
18545TIP3    H277051   4.660   1.262   4.123 -0.8031 -0.9490 -0.4538
18546TIP3   OH277052   3.164   6.657   6.796 -0.3826 -0.3521  0.4821
18546TIP3    H177053   3.161   6.651   6.892 -0.4528 -0.0423  0.5022
18546TIP3    H277054   3.118   6.580   6.765  0.9836 -1.2777  0.6802
18547TIP3   OH277055   3.563   2.529  14.056 -0.0712 -0.1485  0.4057
18547TIP3    H177056   3.527   2.547  13.969  1.3274  0.1902 -0.1031
18547TIP3    H277057   3.577   2.435  14.057  1.2475  0.0352 -0.2551
18548TIP3   OH277058   0.525   1.298  13.807  0.6487 -0.1774 -0.3587
18548TIP3    H177059   0.587   1.226  13.801  1.3236  0.4814 -1.3809
18548TIP3    H277060   0.577   1.377  13.791 -0.2650  0.4602 -0.2554
18549TIP3   OH277061   4.352   4.250   0.538  0.5778 -0.3844  0.2251
18549TIP3    H177062   4.359   4.344   0.524  1.6714 -0.5822 -0.6623
18549TIP3    H277063   4.370   4.211   0.452  0.1391 -1.3941  0.5851
18550TIP3   OH277064   2.508   6.645   5.829  0.8299  0.6271  0.3333
18550TIP3    H177065   2.473   6.676   5.745  0.5799  0.8271  0.5111
18550TIP3    H277066   2.479   6.554   5.834  1.8273  0.2588 -0.3335
18551TIP3   OH277067   2.439   3.961   2.534  0.5271 -0.0227  0.0720
18551TIP3    H177068   2.393   3.941   2.615  1.1732 -0.8407  0.2477
18551TIP3    H277069   2.531   3.940   2.552  0.1656 -4.0960 -2.0475
18552TIP3   OH277070   6.614   4.159  16.552  0.2108  0.2007  0.0919
18552TIP3    H177071   6.567   4.178  16.471  0.3106  1.6567  0.3645
18552TIP3    H277072   6.616   4.064  16.557 -1.0622  0.1144 -0.8797
18553TIP3   OH277073   3.791   0.215  11.146  0.4823  0.0642 -0.7764
18553TIP3    H177074   3.751   0.281  11.089  0.2867  1.5511  1.0348
18553TIP3    H277075   3.833   0.266  11.215  2.6173 -1.6370 -0.8011
18554TIP3   OH277076   5.539   1.555   4.427  0.0874  0.0415 -0.3938
18554TIP3    H177077   5.578   1.628   4.380 -1.4061  0.1660 -1.4594
18554TIP3    H277078   5.580   1.558   4.513  0.9332  1.3973 -0.8276
18555TIP3   OH277079   0.866   0.169   1.335  0.5615 -0.0238  0.2564
18555TIP3    H177080   0.903   0.208   1.414  2.1549 -0.9632 -0.0181
18555TIP3    H277081   0.887   0.231   1.266  0.6442 -0.0207  0.2843
18556TIP3   OH277082   5.291   2.316   6.450  0.1453  0.2281 -0.0599
18556TIP3    H177083   5.276   2.272   6.367 -0.7035  2.7272 -1.2661
18556TIP3    H277084   5.377   2.357   6.440 -0.3090  1.2020 -0.0168
18557TIP3   OH277085   4.589   5.600  12.841  0.1229 -0.4817  0.0642
18557TIP3    H177086   4.502   5.575  12.871 -0.2067  2.4235  1.6428
18557TIP3    H277087   4.574   5.660  12.768  0.7235  1.3280  1.3827
18558TIP3   OH277088   4.467   5.758   5.639  0.5455  0.2873 -0.4439
18558TIP3    H177089   4.419   5.689   5.593  1.1884  0.2511 -1.0653
18558TIP3    H277090   4.518   5.712   5.706 -2.2360  0.5434  1.9791
18559TIP3   OH277091   2.304   4.846   4.104  0.1001 -0.2524  0.2382
18559TIP3    H177092   2.224   4.794   4.105  0.1623 -0.3556 -0.1884
18559TIP3    H277093   2.371   4.788   4.066 -0.1084  0.5381 -1.3915
18560TIP3   OH277094   5.003   3.763  16.055  0.4730  0.0889  0.2760
18560TIP3    H177095   5.054   3.715  16.120 -1.4306 -1.6681  0.5188
18560TIP3    H277096   4.940   3.814  16.107  0.0093 -0.0831 -0.1110
18561TIP3   OH277097   1.687   6.737   1.962  0.2895 -0.0157  0.1658
18561TIP3    H177098   1.726   6.755   1.876  1.2076  2.5239  1.0696
18561TIP3    H277099   1.731   6.657   1.992 -0.2895 -1.1155 -1.8682
18562TIP3   OH277100   1.798   1.841   1.059 -0.1464 -0.2667 -0.8829
18562TIP3    H177101   1.885   1.877   1.076 -0.6533  0.7545 -0.4686
18562TIP3    H277102   1.791   1.766   1.118 -0.6780  1.3799  1.2024
18563TIP3   OH277103   6.081   3.840  14.339  0.9104 -0.7352  0.4146
18563TIP3    H177104   6.092   3.871  14.429  1.0768 -1.0143  0.4875
18563TIP3    H277105   5.986   3.846  14.324  0.8550 -0.9350  0.6919
18564TIP3   OH277106   4.594   4.183   4.721 -0.0396 -0.2911  0.0365
18564TIP3    H177107   4.666   4.153   4.778  1.1060  2.1507 -0.0809
18564TIP3    H277108   4.519   4.130   4.749  0.6267  0.4468  3.4649
18565TIP3   OH277109   3.960   1.741   4.890 -0.3427  0.0664 -0.0506
18565TIP3    H177110   3.902   1.677   4.931  1.0202 -0.9287  0.3291
18565TIP3    H277111   4.047   1.701   4.893  0.3530  1.4907 -0.7376
18566TIP3   OH277112   2.315   3.473   4.788  0.9036  0.3715 -0.1844
18566TIP3    H177113   2.400   3.514   4.806  0.6723  0.1291  1.5261
18566TIP3    H277114   2.283   3.518   4.710  2.0171  1.3672 -0.0838
18567TIP3   OH277115   2.293   0.129   6.813 -0.6878 -0.0157  0.3577
18567TIP3    H177116   2.330   0.214   6.789 -0.4092 -0.4505 -0.7982
18567TIP3    H277117   2.360   0.087   6.867  0.0946 -0.3746 -0.8711
18568TIP3   OH277118   4.633   6.280   1.431 -0.8338 -0.3633 -0.1665
18568TIP3    H177119   4.723   6.249   1.444 -0.9403 -0.1322  1.1676
18568TIP3    H277120   4.578   6.204   1.454 -1.0667  0.4958  2.2231
18569TIP3   OH277121   6.662   3.337  13.147  0.2470  0.3287  0.0875
18569TIP3    H177122   6.614   3.262  13.114  1.7945 -0.4287 -0.4893
18569TIP3    H277123   6.694   3.310  13.233  0.9892  0.2233 -0.2119
18570TIP3   OH277124   1.209   5.386   1.025  0.3607 -0.4149  0.8677
18570TIP3    H177125   1.225   5.352   0.937 -0.0818  1.1295  0.1661
18570TIP3    H277126   1.247   5.321   1.084  1.6627 -0.9187 -0.5049
18571TIP3   OH277127   1.926   0.111  13.365  0.6073 -0.3618  0.3573
18571TIP3    H177128   1.851   0.052  13.376 -0.9486  1.5345  0.2520
18571TIP3    H277129   2.003   0.056  13.379 -0.7916 -2.4625 -0.0062
18572TIP3   OH277130   3.550   1.314   6.592  0.5010 -0.2194  0.4270
18572TIP3    H177131   3.605   1.386   6.562  0.6901 -1.1590 -1.5044
18572TIP3    H277132   3.583   1.294   6.680  0.6631  1.7987  0.8509
18573TIP3   OH277133   5.115   4.377   0.360  0.0532  0.6638 -0.0309
18573TIP3    H177134   5.095   4.358   0.452 -1.6851 -2.3623 -0.9752
18573TIP3    H277135   5.211   4.377   0.355  0.2078  2.3395  2.0173
18574TIP3   OH277136   3.885   4.520  14.036  0.3587 -0.0798  0.1333
18574TIP3    H177137   3.886   4.472  13.953  0.1007  0.5038 -0.2080
18574TIP3    H277138   3.846   4.458  14.099  3.2081 -1.5746  0.4842
18575TIP3   OH277139   0.894   4.269   0.120  0.4016  0.0510  0.3283
18575TIP3    H177140   0.914   4.362   0.134  0.1067  0.0991  0.4375
18575TIP3    H277141   0.936   4.224   0.194  1.3267 -0.0035 -0.2150
18576TIP3   OH277142   1.056   4.770  17.153 -0.3774  0.2462 -0.0048
18576TIP3    H177143   0.963   4.748  17.161 -0.8374  1.8376 -0.5905
18576TIP3    H277144   1.100   4.709  17.211 -1.8731 -0.0321  0.8763
18577TIP3   OH277145   4.004   0.505  16.899 -0.5323  0.0549 -0.2824
18577TIP3    H177146   4.018   0.482  16.807 -1.8716 -0.7684 -0.3124
18577TIP3    H277147   4.069   0.453  16.946  0.3247  0.6665 -0.7750
18578TIP3   OH277148   3.874   3.609  17.231  0.2659 -0.5496  0.2735
18578TIP3    H177149   3.924   3.674  17.183 -0.6052 -1.3210 -1.7467
18578TIP3    H277150   3.936   3.537  17.246  0.2410 -0.7879 -0.7225
18579TIP3   OH277151   3.081   2.785   4.855  0.1958  0.1742 -0.1153
18579TIP3    H177152   3.166   2.773   4.898  0.0395 -0.1449  0.1059
18579TIP3    H277153   3.104   2.808   4.765  0.5165 -1.0123 -0.3491
18580TIP3   OH277154   3.573   4.730   2.072 -0.0974  0.1487 -0.4056
18580TIP3    H177155   3.526   4.755   2.152 -1.4567 -1.5829 -0.6194
18580TIP3    H277156   3.602   4.640   2.090  3.9799  1.4689  0.0828
18581TIP3   OH277157   0.949   0.769   3.442  0.1538  0.4933  0.0163
18581TIP3    H177158   1.025   0.821   3.469  0.3051  2.1050 -3.2967
18581TIP3    H277159   0.892   0.832   3.398 -2.0253 -1.1762  0.3948
18582TIP3   OH277160   4.429   2.330  14.892 -0.5804  0.5493  0.2456
18582TIP3    H177161   4.357   2.270  14.873 -1.2935  2.2287 -2.8880
18582TIP3    H277162   4.390   2.397  14.948 -0.7194 -0.0109  0.8245
18583TIP3   OH277163   4.705   2.697   3.543  0.1407  0.3382 -0.3245
18583TIP3    H177164   4.612   2.704   3.564  0.1490  1.7183 -0.6647
18583TIP3    H277165   4.742   2.642   3.612 -0.5225  1.6758  1.1206
18584TIP3   OH277166   0.485   3.070   1.409  0.2466  0.0822 -0.1064
18584TIP3    H177167   0.552   3.007   1.433  0.9933  0.8529 -0.1734
18584TIP3    H277168   0.520   3.155   1.436 -0.3153  0.5865 -0.9359
18585TIP3   OH277169   6.454   2.873   3.490 -0.1637  0.1967  0.4524
18585TIP3    H177170   6.409   2.924   3.423  0.4824  1.3612  0.9029
18585TIP3    H277171   6.545   2.871   3.463 -0.2719 -1.1624  0.1653
18586TIP3   OH277172   1.842   0.264   1.395 -0.6632 -0.2326  0.5066
18586TIP3    H177173   1.881   0.219   1.470  1.0482  0.2524 -0.0580
18586TIP3    H277174   1.798   0.340   1.433  0.8928  0.4678  0.9710
18587TIP3   OH277175   0.085   4.946  13.911 -0.0512  0.3341 -0.8520
18587TIP3    H177176   0.119   4.899  13.835 -0.5624  1.2814 -1.6818
18587TIP3    H277177  -0.008   4.924  13.913 -0.1789  0.8541 -0.9173
18588TIP3   OH277178   6.728   1.981  13.627 -0.3282  0.3712 -0.1551
18588TIP3    H177179   6.665   2.007  13.695  0.3094  0.1011  0.5476
18588TIP3    H277180   6.676   1.978  13.547 -0.6555  2.7999 -0.0792
18589TIP3   OH277181   0.739   1.999   3.770  0.0935  0.6371  0.2963
18589TIP3    H177182   0.713   2.006   3.861 -0.2500 -0.9776  0.3329
18589TIP3    H277183   0.835   2.005   3.772  0.1017  0.3205  0.7818
18590TIP3   OH277184   1.968   6.491   3.839 -0.3654  0.3107 -0.6302
18590TIP3    H177185   1.958   6.532   3.925 -2.2530 -0.9549 -0.2085
18590TIP3    H277186   1.997   6.402   3.858  0.3836  0.3979 -1.3552
18591TIP3   OH277187   0.597   6.658   2.860 -0.3129 -0.1643 -0.0673
18591TIP3    H177188   0.668   6.699   2.910  0.5461 -2.2169  0.4507
18591TIP3    H277189   0.640   6.593   2.806 -1.9170 -2.5102  1.3673
18592TIP3   OH277190   1.743   5.086   4.631 -0.0798  0.3760  0.3403
18592TIP3    H177191   1.695   5.137   4.566 -0.6452  1.0461  1.2689
18592TIP3    H277192   1.817   5.050   4.584 -0.4703  0.8791 -0.6684
18593TIP3   OH277193   1.064   5.402   1.348 -0.3422  0.0152  0.4965
18593TIP3    H177194   0.999   5.454   1.300 -1.4683 -1.0704  0.8045
18593TIP3    H277195   1.148   5.437   1.320 -1.0757  2.2101  0.9379
18594TIP3   OH277196   0.647   3.975  17.134  0.0115  0.4102  0.3760
18594TIP3    H177197   0.671   4.048  17.076  0.1352 -0.3072 -0.4882
18594TIP3    H277198   0.589   3.920  17.081  1.3385 -1.0589  0.4201
18595TIP3   OH277199   2.338   4.903   0.111  0.1471  0.1546 -0.3050
18595TIP3    H177200   2.363   4.814   0.086  0.9499 -0.0113  1.0412
18595TIP3    H277201   2.393   4.923   0.187 -1.3388  1.1198  0.5332
18596TIP3   OH277202   1.413   5.684   4.844  0.2152 -0.7766  0.3176
18596TIP3    H177203   1.402   5.697   4.750  2.1072 -0.1607  0.1793
18596TIP3    H277204   1.323   5.689   4.879 -0.4210 -0.3208 -1.3435
18597TIP3   OH277205   2.868   5.481   3.944 -0.2720  0.0618  0.4329
18597TIP3    H177206   2.911   5.506   4.026 -0.1936 -0.0783  0.4351
18597TIP3    H277207   2.808   5.410   3.969  0.2075 -0.4033  0.2624
18598TIP3   OH277208   2.098   2.693  15.274  0.6476  0.1023  0.3787
18598TIP3    H177209   2.058   2.745  15.203  0.6981  0.4932  0.6347
18598TIP3    H277210   2.190   2.719  15.272  0.5456  0.5104  0.9349
18599TIP3   OH277211   6.462   4.832   4.170 -0.1926 -0.0419 -0.0356
18599TIP3    H177212   6.425   4.854   4.084  1.9251 -1.4634 -1.3536
18599TIP3    H277213   6.519   4.906   4.190  1.3647 -0.9209 -1.1193
18600TIP3   OH277214   2.947   0.219  11.915  0.4156  0.3889 -0.4231
18600TIP3    H177215   3.028   0.209  11.964  1.1659 -0.2687 -1.7722
18600TIP3    H277216   2.960   0.299  11.863 -0.3805  1.0959  0.4576
18601TIP3   OH277217   5.705   5.664   3.044  0.0538  0.6872  0.1604
18601TIP3    H177218   5.722   5.671   2.950 -0.0743 -1.0843 -0.0137
18601TIP3    H277219   5.632   5.723   3.060 -0.6028  0.2045 -1.0417
18602TIP3   OH277220   1.820   5.341   0.582 -0.5386 -0.6262  0.1459
18602TIP3    H177221   1.862   5.278   0.641 -1.3855 -0.1903  1.2253
18602TIP3    H277222   1.884   5.412   0.574 -0.5054 -0.5893  0.7161
18603TIP3   OH277223   5.714   3.373   5.204 -0.2559 -0.2192  0.3180
18603TIP3    H177224   5.633   3.338   5.167 -0.0593 -0.3532  0.0225
18603TIP3    H277225   5.746   3.434   5.138  0.0918 -0.4547  0.2698
18604TIP3   OH277226   1.045   4.139  14.023 -0.2036  0.5109 -0.1204
18604TIP3    H177227   1.115   4.077  14.002 -0.0867 -0.2053  2.2724
18604TIP3    H277228   1.090   4.218  14.051 -0.3618  1.0496 -1.3578
18605TIP3   OH277229   3.976   1.333   2.922 -0.1324  0.4205  0.5102
18605TIP3    H177230   3.976   1.424   2.953  0.5768  0.1440  1.3538
18605TIP3    H277231   3.946   1.339   2.832  0.9804  1.6349  0.1947
18606TIP3   OH277232   1.120   0.912  16.990 -0.1224  0.7852 -0.4954
18606TIP3    H177233   1.213   0.919  17.011 -0.3180  0.0252  0.6535
18606TIP3    H277234   1.110   0.961  16.908  1.7913 -1.2405 -2.0336
18607TIP3   OH277235   5.503   3.259   4.652  0.5174  0.5297  0.4017
18607TIP3    H177236   5.594   3.271   4.680  0.6784 -1.4227  0.7949
18607TIP3    H277237   5.458   3.224   4.730  0.0477 -1.0306 -0.5287
18608TIP3   OH277238   3.848   3.931  14.238  0.3291 -0.1508  0.0782
18608TIP3    H177239   3.773   3.962  14.187 -1.3894 -0.5673  2.2998
18608TIP3    H277240   3.918   3.922  14.174 -0.9221  2.2441 -1.7031
18609TIP3   OH277241   0.085   2.119   5.100  0.0338  0.5161  0.3912
18609TIP3    H177242   0.023   2.177   5.144 -1.0049  0.5440 -1.0751
18609TIP3    H277243   0.043   2.033   5.103  0.4853  0.2955  0.4464
18610TIP3   OH277244   6.199   3.545   4.317 -0.4012  1.0663  0.2485
18610TIP3    H177245   6.200   3.629   4.361 -3.0924  0.4932  1.4594
18610TIP3    H277246   6.149   3.487   4.375  1.2405 -1.3401 -0.6201
18611TIP3   OH277247   5.881   5.342   5.507 -0.5694  0.1641  0.5441
18611TIP3    H177248   5.851   5.294   5.584 -0.1082 -0.8628  0.0921
18611TIP3    H277249   5.976   5.349   5.519 -0.5972  0.6704  0.4456
18612TIP3   OH277250   5.970   3.606   4.704 -0.1894  0.1606  0.0638
18612TIP3    H177251   5.960   3.695   4.672 -0.9060 -0.2649 -0.9264
18612TIP3    H277252   5.954   3.551   4.627  1.0998 -0.7928  0.4734
18613TIP3   OH277253   1.256   6.448  11.984  0.3011  0.1199  0.1801
18613TIP3    H177254   1.172   6.444  11.939  1.0909  1.9292 -1.5037
18613TIP3    H277255   1.256   6.533  12.028  0.1447 -1.0098  2.4612
18614TIP3   OH277256   6.124   6.686   5.475  0.1912 -0.6647  0.1833
18614TIP3    H177257   6.041   6.729   5.455 -0.8614 -1.7916  1.9848
18614TIP3    H277258   6.103   6.624   5.544  2.7793 -0.1284  1.5195
18615TIP3   OH277259   1.621   4.564   2.620  0.4515  0.4808  0.0990
18615TIP3    H177260   1.689   4.515   2.666  1.2581  0.2889 -1.2778
18615TIP3    H277261   1.643   4.656   2.637  1.8145  0.4524 -1.3724
18616TIP3   OH277262   0.756   3.583   1.461 -0.3617 -0.0729  0.4309
18616TIP3    H177263   0.670   3.599   1.423  0.0171  0.4319 -0.2384
18616TIP3    H277264   0.740   3.572   1.554 -1.0787  0.6699  0.3976
18617TIP3   OH277265   1.026   2.821   3.398  0.2669 -0.0312 -0.1544
18617TIP3    H177266   1.086   2.831   3.323  0.0229 -3.0446 -0.8148
18617TIP3    H277267   1.073   2.765   3.459  0.4825  2.4603  2.0564
18618TIP3   OH277268   1.684   2.191  12.333  0.7074  0.9198 -0.5487
18618TIP3    H177269   1.668   2.285  12.329 -1.3892  0.6273  0.5001
18618TIP3    H277270   1.777   2.184  12.353  0.6381  2.7869  0.5433
18619TIP3   OH277271   3.528   1.274   1.178  0.3877 -0.0330 -0.0895
18619TIP3    H177272   3.469   1.259   1.104  1.6490 -0.7585 -0.9879
18619TIP3    H277273   3.594   1.205   1.170  0.7290  0.0837  1.5399
18620TIP3   OH277274   1.732   5.639   2.886 -0.1843  0.2830  0.2839
18620TIP3    H177275   1.669   5.679   2.947 -0.2062  1.4529 -0.4822
18620TIP3    H277276   1.800   5.706   2.877  0.3328 -0.3135 -0.1774
18621TIP3   OH277277   0.314   2.300  16.014 -0.3692  0.0418  0.5778
18621TIP3    H177278   0.332   2.234  15.947 -0.1833  0.8568 -0.1789
18621TIP3    H277279   0.378   2.282  16.083  1.0594  0.7313 -0.5513
18622TIP3   OH277280   3.098   2.537  13.203 -0.1686 -0.2163  0.2750
18622TIP3    H177281   3.094   2.449  13.241 -0.6834 -0.7461 -0.9794
18622TIP3    H277282   3.075   2.595  13.276 -0.7680 -1.1913  0.8759
18623TIP3   OH277283   5.403   5.925  13.908  0.4233 -0.1268  0.0880
18623TIP3    H177284   5.482   5.926  13.855  0.5861  2.1541  0.3373
18623TIP3    H277285   5.345   5.988  13.866 -0.9639 -1.2021  0.3631
18624TIP3   OH277286   3.349   2.594  15.753 -1.0760  0.1130  0.4734
18624TIP3    H177287   3.428   2.619  15.705 -1.5861  0.6668 -0.0886
18624TIP3    H277288   3.320   2.513  15.711  0.1564 -1.0660  1.8124
18625TIP3   OH277289   4.354   4.595   0.173  0.3016  0.1277 -0.3332
18625TIP3    H177290   4.448   4.607   0.161  0.4574  0.4324  1.1663
18625TIP3    H277291   4.318   4.595   0.084  1.5766  1.1030 -0.8469
18626TIP3   OH277292   0.662   2.171  13.059  0.5199  0.1021  0.0558
18626TIP3    H177293   0.711   2.222  12.995 -0.6613  0.8310 -0.2781
18626TIP3    H277294   0.674   2.080  13.032  1.2743  0.3081 -0.3068
18627TIP3   OH277295   3.853   4.189   3.398  0.1421 -0.3122 -0.6253
18627TIP3    H177296   3.917   4.155   3.461  0.6881 -0.4617 -1.2520
18627TIP3    H277297   3.779   4.217   3.452  0.9418  0.3436  0.1673
18628TIP3   OH277298   6.386   0.253  14.621  0.0818 -0.4920 -0.2320
18628TIP3    H177299   6.410   0.332  14.572  1.1594 -1.2212 -0.9322
18628TIP3    H277300   6.402   0.275  14.712  2.8003 -0.6930 -0.6221
18629TIP3   OH277301   5.888   3.866  11.258  0.1875  0.2641 -0.3964
18629TIP3    H177302   5.900   3.795  11.195 -1.4051 -0.5735  0.2047
18629TIP3    H277303   5.815   3.917  11.223 -1.1629 -0.5983  1.0567
18630TIP3   OH277304   6.182   1.234  13.132  0.1793 -0.0632  0.0686
18630TIP3    H177305   6.090   1.213  13.118 -0.1904  0.8883  0.9733
18630TIP3    H277306   6.195   1.319  13.091  0.0160  0.9643  2.0523
18631TIP3   OH277307   1.167   1.053   3.128 -0.2359  0.0134  0.5879
18631TIP3    H177308   1.090   0.996   3.120  0.9552 -1.5160 -0.2358
18631TIP3    H277309   1.166   1.107   3.049 -1.4776  1.3088  1.4641
18632TIP3   OH277310   0.712   1.529   3.219  0.7721 -0.8065  0.3570
18632TIP3    H177311   0.766   1.475   3.162  0.9732 -0.9642  0.6988
18632TIP3    H277312   0.736   1.503   3.307  0.1722 -0.8453  0.5120
18633TIP3   OH277313   4.206   6.330  17.056  0.1804  0.4986  0.3606
18633TIP3    H177314   4.119   6.334  17.096 -0.8229  0.0999 -1.7212
18633TIP3    H277315   4.203   6.254  16.999  2.6922 -0.9083  1.9802
18634TIP3   OH277316   1.059   5.082   4.663 -0.4572  0.0727 -0.3424
18634TIP3    H177317   1.090   5.007   4.610 -0.5683  0.5571 -1.1048
18634TIP3    H277318   1.117   5.154   4.639 -0.7326  0.3901 -0.0601
18635TIP3   OH277319   4.694   0.439  16.706  1.0205 -0.0890 -0.5174
18635TIP3    H177320   4.741   0.356  16.709 -1.1217 -1.3866 -1.4221
18635TIP3    H277321   4.728   0.483  16.628  0.0171 -1.5120 -1.8001
18636TIP3   OH277322   6.408   5.963   6.305  0.4733  0.0362 -0.4571
18636TIP3    H177323   6.498   5.967   6.336  0.7325 -0.2267 -1.1697
18636TIP3    H277324   6.391   5.870   6.292 -0.5383 -0.0834  1.5093
18637TIP3   OH277325   5.546   6.186  14.004  0.2259  0.0948  0.3648
18637TIP3    H177326   5.471   6.234  14.040  0.5612  1.4567 -0.6881
18637TIP3    H277327   5.520   6.167  13.914  1.3062  0.9752 -0.1494
18638TIP3   OH277328   4.258   4.105  12.937 -0.5393  0.3085 -0.1163
18638TIP3    H177329   4.343   4.150  12.943  0.1900 -1.3848  3.4080
18638TIP3    H277330   4.278   4.022  12.893 -0.6503  0.6031 -0.7171
18639TIP3   OH277331   6.338   4.559  14.031  0.2837 -0.7760 -0.7859
18639TIP3    H177332   6.284   4.486  14.062 -0.9674  0.2512 -0.4913
18639TIP3    H277333   6.279   4.610  13.975  0.9319  0.4000 -0.4061
18640TIP3   OH277334   4.137   0.006   1.003 -0.2072 -0.0151  0.7274
18640TIP3    H177335   4.055   0.055   1.002 -1.1880 -1.6226 -1.5776
18640TIP3    H277336   4.118  -0.073   1.054 -0.6587 -1.2191 -1.2344
18641TIP3   OH277337   5.812   1.230  14.635 -0.6036  0.5098  1.2341
18641TIP3    H177338   5.750   1.223  14.562 -0.8313 -1.1504  1.5545
18641TIP3    H277339   5.897   1.240  14.593 -0.7745 -0.0948  0.7319
18642TIP3   OH277340   1.835   3.820  16.524 -0.1121 -0.2876  0.2542
18642TIP3    H177341   1.758   3.871  16.500 -0.6902 -1.6595 -0.8533
18642TIP3    H277342   1.886   3.814  16.444 -0.1824 -1.6632  0.3014
18643TIP3   OH277343   1.129   4.084  12.651  0.3398  0.0097  0.2403
18643TIP3    H177344   1.050   4.074  12.598  0.9105 -1.1993 -0.4144
18643TIP3    H277345   1.120   4.169  12.693 -1.1153  0.0550 -0.1554
18644TIP3   OH277346   5.933   5.914  14.746 -0.6250 -0.5585  0.2565
18644TIP3    H177347   5.882   5.978  14.796 -0.1752 -0.4097  0.5197
18644TIP3    H277348   5.879   5.896  14.669  0.5881  2.4069 -1.3734
18645TIP3   OH277349   1.486   5.372   5.800  0.2268 -0.0611 -0.5293
18645TIP3    H177350   1.551   5.350   5.733  1.6041 -0.0865  0.7929
18645TIP3    H277351   1.532   5.432   5.859 -0.9268 -0.1519  0.4770
18646TIP3   OH277352   2.633   2.242  17.049 -0.4148 -0.3042  0.0415
18646TIP3    H177353   2.695   2.199  17.108  0.1559 -1.5677 -1.4410
18646TIP3    H277354   2.549   2.201  17.069 -0.2344 -0.6832  0.0318
18647TIP3   OH277355   1.750   0.228   3.189  0.4674 -0.4104 -0.5905
18647TIP3    H177356   1.729   0.320   3.199  0.2017 -0.3294 -1.7642
18647TIP3    H277357   1.720   0.206   3.100 -1.8355 -2.2857  0.6007
18648TIP3   OH277358   3.673   5.538  13.801  0.1172 -0.0347 -0.0633
18648TIP3    H177359   3.666   5.527  13.895 -0.8724 -0.4345 -0.1853
18648TIP3    H277360   3.626   5.620  13.783  0.7216  0.2994 -0.1540
18649TIP3   OH277361   4.388   2.024  13.522  0.0480  0.6276 -0.0038
18649TIP3    H177362   4.353   1.935  13.527 -0.7723  0.9321 -0.2691
18649TIP3    H277363   4.436   2.026  13.439 -0.7360  0.7073 -0.4694
18650TIP3   OH277364   1.914   5.219   0.221  0.3088  0.0663  0.0321
18650TIP3    H177365   1.983   5.280   0.247 -0.0117 -0.5278  2.3903
18650TIP3    H277366   1.961   5.143   0.185  0.8292  0.3459  0.1208
18651TIP3   OH277367   6.435   1.927  11.706 -0.2360 -0.0200 -0.3686
18651TIP3    H177368   6.448   1.856  11.768 -1.0480 -0.6478 -0.9177
18651TIP3    H277369   6.523   1.964  11.694 -0.1175  0.2650  1.3280
18652TIP3   OH277370   2.922   1.342  11.472 -0.0966  0.6754  0.3106
18652TIP3    H177371   2.841   1.293  11.464  0.1166  0.3306  0.2548
18652TIP3    H277372   2.923   1.400  11.396 -0.2706  0.6460  0.2873
18653TIP3   OH277373   5.298   3.324   5.824  0.2918 -0.8186 -0.2830
18653TIP3    H177374   5.290   3.403   5.770 -0.6008 -1.0495 -0.4869
18653TIP3    H277375   5.277   3.354   5.913  1.1557 -0.5743 -0.1465
18654TIP3   OH277376   4.064   3.884   0.672  0.1295  0.1493  0.2670
18654TIP3    H177377   4.056   3.965   0.621 -2.0518 -0.2844 -0.1160
18654TIP3    H277378   3.986   3.834   0.651 -0.4821 -0.3870  3.4622
18655TIP3   OH277379   6.156   6.391   0.446  0.5134  0.0332  0.2036
18655TIP3    H177380   6.123   6.453   0.512  0.8016 -1.4870  1.8074
18655TIP3    H277381   6.090   6.323   0.441  0.7601 -0.1525 -0.7025
18656TIP3   OH277382   3.498   0.849  14.361 -0.3104  0.1077 -0.2813
18656TIP3    H177383   3.570   0.897  14.320 -0.0528 -0.3189 -0.3355
18656TIP3    H277384   3.425   0.911  14.363  0.0943  0.5765 -0.1249
18657TIP3   OH277385   5.695   2.040  12.259  0.0969 -0.6421  0.2338
18657TIP3    H177386   5.748   2.070  12.185 -0.8749 -0.3238 -0.3446
18657TIP3    H277387   5.670   1.951  12.236 -1.2937 -0.0919 -0.4428
18658TIP3   OH277388   2.882   2.309   2.012 -0.1545 -0.4176  0.1297
18658TIP3    H177389   2.897   2.222   2.051 -0.3848 -0.4714  0.0957
18658TIP3    H277390   2.835   2.291   1.931 -1.9186 -0.1211  1.0717
18659TIP3   OH277391   5.158   4.094   2.298 -0.6296 -0.5315  0.9420
18659TIP3    H177392   5.231   4.117   2.355  0.2278 -0.2009 -0.2769
18659TIP3    H277393   5.146   4.000   2.312  2.2917 -1.3343 -1.3610
18660TIP3   OH277394   5.796   3.832  10.704 -0.0727 -0.2571 -0.8162
18660TIP3    H177395   5.742   3.780  10.763 -1.9278  1.1664 -1.2269
18660TIP3    H277396   5.798   3.919  10.745  1.2202 -0.0721 -1.2538
18661TIP3   OH277397   5.495   1.766  13.847  0.4098  0.2336 -0.3866
18661TIP3    H177398   5.509   1.682  13.889 -1.4180 -0.0277 -0.2675
18661TIP3    H277399   5.479   1.745  13.755 -1.6975  0.2728 -0.0647
18662TIP3   OH277400   3.826   1.939   3.683  0.0912 -0.2205 -0.8210
18662TIP3    H177401   3.911   1.948   3.724 -0.5414 -0.9159  0.6785
18662TIP3    H277402   3.808   2.025   3.645  1.1008  0.1595 -0.4618
18663TIP3   OH277403   6.062   1.242   4.050  0.3493 -0.8041 -0.5762
18663TIP3    H177404   6.126   1.311   4.031 -0.5460 -0.3257 -1.9063
18663TIP3    H277405   5.983   1.289   4.075  0.0310 -1.3665 -0.5145
18664TIP3   OH277406   5.911   6.022   1.920 -0.0872  0.6421  0.5254
18664TIP3    H177407   5.946   5.934   1.930 -2.0482 -0.2841 -0.5525
18664TIP3    H277408   5.904   6.056   2.009 -0.2044 -0.6577  1.0136
18665TIP3   OH277409   0.197   5.699   0.061  0.0187  0.1764 -0.1708
18665TIP3    H177410   0.195   5.626   0.124  0.0463  1.6430  1.5703
18665TIP3    H277411   0.178   5.658  -0.024 -0.2876 -1.8058  0.8204
18666TIP3   OH277412   6.191   3.259  14.375 -0.1368  0.1272 -0.1170
18666TIP3    H177413   6.210   3.208  14.454 -0.9493 -1.4663 -0.9166
18666TIP3    H277414   6.274   3.262  14.328  0.2965  0.8871  0.6694
18667TIP3   OH277415   6.534   4.385  13.846 -0.6282 -1.0556 -0.3780
18667TIP3    H177416   6.500   4.395  13.757  0.0366  1.4776 -0.3771
18667TIP3    H277417   6.457   4.382  13.901 -0.9988 -1.0268 -0.8922
18668TIP3   OH277418   0.834   5.798  15.453 -0.2809 -0.2615  0.5376
18668TIP3    H177419   0.831   5.702  15.447  0.0189 -0.2801  0.6912
18668TIP3    H277420   0.856   5.826  15.364 -0.4099 -0.3349  0.4824
18669TIP3   OH277421   6.626   1.892  16.221  0.0788  0.2319  0.3535
18669TIP3    H177422   6.582   1.836  16.285  0.3938 -1.0271 -0.5244
18669TIP3    H277423   6.570   1.890  16.144  0.3205  0.7823  0.1552
18670TIP3   OH277424   2.901   5.027   2.288  0.1968  0.1665 -0.2178
18670TIP3    H177425   2.901   5.060   2.377  0.2407 -1.5581  0.4541
18670TIP3    H277426   2.992   5.035   2.259  0.0134  1.5513 -0.4411
18671TIP3   OH277427   6.730   1.734   1.033 -0.1449  0.4887  0.3407
18671TIP3    H177428   6.749   1.640   1.032 -0.3136  0.4582 -0.0361
18671TIP3    H277429   6.711   1.754   1.125 -1.5043 -0.1185  0.1926
18672TIP3   OH277430   3.066   1.376  14.707 -0.7334  0.0155 -0.2675
18672TIP3    H177431   3.093   1.445  14.768 -3.3324 -0.3422  1.4031
18672TIP3    H277432   3.083   1.412  14.621 -0.2711  1.9837  0.6174
18673TIP3   OH277433   4.763   1.117   1.520  0.2414 -0.4125  0.6924
18673TIP3    H177434   4.692   1.053   1.518  0.3005 -0.4702  0.3169
18673TIP3    H277435   4.814   1.098   1.441  1.4337 -1.2362  1.6485
18674TIP3   OH277436   1.813   2.902  11.381 -0.2471 -0.0187 -0.5683
18674TIP3    H177437   1.857   2.829  11.336  0.1219  0.6061 -1.2290
18674TIP3    H277438   1.859   2.910  11.464  1.1471  0.8762 -1.4144
18675TIP3   OH277439   1.021   2.880   1.515 -0.0348  0.4882  0.6144
18675TIP3    H177440   1.099   2.829   1.492 -0.4791 -0.5773  1.4106
18675TIP3    H277441   1.044   2.924   1.597  0.5253  2.0001 -0.3269
18676TIP3   OH277442   0.625   2.713  15.445  0.2082 -0.2570 -0.1793
18676TIP3    H177443   0.633   2.782  15.510 -0.8237  0.2634 -0.6030
18676TIP3    H277444   0.555   2.656  15.478  0.4537 -0.6124 -0.2664
18677TIP3   OH277445   1.738   2.582   2.214  0.0998 -0.5776  0.0924
18677TIP3    H177446   1.740   2.539   2.128 -0.2289  0.1477 -0.2832
18677TIP3    H277447   1.670   2.648   2.206  1.5166  0.9355  0.2005
18678TIP3   OH277448   0.506   5.254  13.671  0.2407 -0.6950  0.8991
18678TIP3    H177449   0.567   5.301  13.614 -0.4181 -0.8133  0.0842
18678TIP3    H277450   0.472   5.321  13.731  0.2592 -0.3914  0.5701
18679TIP3   OH277451   0.877   2.352  15.158  0.1160  0.6221 -0.2069
18679TIP3    H177452   0.821   2.351  15.235  2.0271 -0.7321  1.2096
18679TIP3    H277453   0.964   2.373  15.191  1.5055 -2.6832 -1.5587
18680TIP3   OH277454   6.107   5.722  13.783  0.2726  0.0936  0.1651
18680TIP3    H177455   6.093   5.784  13.854  1.4321 -0.5145  0.9563
18680TIP3    H277456   6.042   5.653  13.798 -0.0564  0.4022  0.1412
18681TIP3   OH277457   4.367   6.572  13.922 -0.5612  0.3083 -0.6139
18681TIP3    H177458   4.413   6.637  13.974 -0.3802 -0.0871 -0.2732
18681TIP3    H277459   4.413   6.571  13.838  0.6581 -0.7750  0.0619
18682TIP3   OH277460   6.157   1.753  11.364 -0.0689  0.1686 -0.2924
18682TIP3    H177461   6.223   1.724  11.427 -0.1738  0.5468 -0.0088
18682TIP3    H277462   6.151   1.681  11.301  1.3602  0.5922 -0.9135
18683TIP3   OH277463   3.232   1.079   1.197  0.0942 -0.1448  1.3193
18683TIP3    H177464   3.170   1.116   1.134  0.9358  1.5645  1.4718
18683TIP3    H277465   3.238   0.986   1.173 -1.8579 -0.1506  0.7762
18684TIP3   OH277466   3.763   3.168  10.623 -0.6015  0.0325 -0.2594
18684TIP3    H177467   3.853   3.152  10.654 -1.3332 -0.9009  1.5089
18684TIP3    H277468   3.772   3.184  10.529  1.3679 -0.5351 -0.1946
18685TIP3   OH277469   0.235   5.549   1.551  0.6124 -0.2181  0.5851
18685TIP3    H177470   0.288   5.618   1.590 -0.2798 -0.3794  2.1178
18685TIP3    H277471   0.237   5.478   1.615 -0.6685 -0.5883  0.2333
18686TIP3   OH277472   0.607   3.829   1.880 -0.5927  0.1228  0.0842
18686TIP3    H177473   0.577   3.878   1.957 -1.1197  1.1333 -0.7565
18686TIP3    H277474   0.535   3.837   1.817  0.2793  0.2083 -0.9124
18687TIP3   OH277475   6.771   2.884   1.314 -0.3072 -0.0682  0.0548
18687TIP3    H177476   6.850   2.891   1.368 -1.3786 -0.3719  1.6830
18687TIP3    H277477   6.799   2.834   1.238  0.8533 -0.9690  1.0557
18688TIP3   OH277478   4.843   6.614   1.638 -0.1760 -0.2193  0.0099
18688TIP3    H177479   4.939   6.617   1.637 -0.1705 -0.4462 -1.4178
18688TIP3    H277480   4.822   6.561   1.714  0.7759  1.4180  1.4543
18689TIP3   OH277481   0.954   0.898   4.239 -0.1843 -0.2503 -0.3451
18689TIP3    H177482   0.992   0.811   4.226 -1.0824 -0.5397 -1.0682
18689TIP3    H277483   0.869   0.882   4.280 -0.4307  0.2783 -0.6386
18690TIP3   OH277484   6.450   5.856  16.500 -0.1626 -0.0050  0.1311
18690TIP3    H177485   6.430   5.800  16.575  0.3533 -0.7827 -0.2934
18690TIP3    H277486   6.392   5.825  16.430 -1.9943  1.9599  0.7226
18691TIP3   OH277487   5.294   6.743  11.585  0.0178  0.0831  0.1763
18691TIP3    H177488   5.255   6.665  11.625  1.6292 -0.3102  1.0391
18691TIP3    H277489   5.240   6.759  11.508 -2.3294  0.0644  1.7572
18692TIP3   OH277490   6.728   3.600  13.745 -0.1322  0.0923 -0.7381
18692TIP3    H177491   6.808   3.556  13.715 -0.7663 -0.4746 -1.6254
18692TIP3    H277492   6.659   3.563  13.690 -1.3338 -0.9854  1.4637
18693TIP3   OH277493   3.300   4.034  13.666 -0.1307 -0.0267 -0.3071
18693TIP3    H177494   3.297   4.097  13.594 -1.0740  0.0662 -0.1962
18693TIP3    H277495   3.329   3.952  13.626 -1.2058 -0.1171 -0.8994
18694TIP3   OH277496   5.143   6.220   2.927  0.1383  0.0858 -0.6767
18694TIP3    H177497   5.070   6.228   2.988 -0.3291 -0.9104 -1.1025
18694TIP3    H277498   5.139   6.300   2.875 -1.7680 -0.7934 -1.9239
18695TIP3   OH277499   0.380   5.818  16.961  0.2871 -0.0183 -0.4999
18695TIP3    H177500   0.298   5.770  16.972  0.3951 -0.0230  0.2925
18695TIP3    H277501   0.447   5.760  16.996  0.3602  0.9023  0.9403
18696TIP3   OH277502   1.469   3.084   4.363  0.0427  0.6195  0.1523
18696TIP3    H177503   1.377   3.110   4.372  0.6972  2.2911  2.3889
18696TIP3    H277504   1.491   3.042   4.446  1.2757  0.1056 -0.4163
18697TIP3   OH277505   4.501   0.052   0.403 -0.3338  0.1451 -0.0491
18697TIP3    H177506   4.581   0.103   0.417  0.0507  0.2079 -2.3546
18697TIP3    H277507   4.442   0.083   0.472  1.3084  0.7248  1.1563
18698TIP3   OH277508   6.655   2.347   5.910 -0.0079  0.2404 -0.3619
18698TIP3    H177509   6.690   2.368   5.996 -0.7707 -1.1232  0.2930
18698TIP3    H277510   6.731   2.346   5.852  0.5337  0.9180  0.3334
18699TIP3   OH277511   3.437   1.923   5.814  0.5458 -0.0103 -0.4725
18699TIP3    H177512   3.492   1.971   5.752 -1.5234  1.1511 -1.4844
18699TIP3    H277513   3.451   1.831   5.792  0.7708  0.3411 -1.8919
18700TIP3   OH277514   5.806   0.906  14.195 -0.2658 -0.1311 -0.2795
18700TIP3    H177515   5.781   0.855  14.272  0.2423 -2.3763 -1.5562
18700TIP3    H277516   5.741   0.977  14.192 -1.1556 -0.8357  1.3863
18701TIP3   OH277517   5.706   1.131   0.641 -0.5138  0.3826 -0.7432
18701TIP3    H177518   5.762   1.208   0.635 -1.1316  0.8617 -0.3965
18701TIP3    H277519   5.661   1.140   0.725 -2.6223  1.0676 -1.8887
18702TIP3   OH277520   3.443   2.416   3.833 -0.0627 -0.1525 -0.6058
18702TIP3    H177521   3.350   2.420   3.814  0.2680  2.1332 -1.9008
18702TIP3    H277522   3.485   2.466   3.763  2.0572 -0.3406  0.4632
18703TIP3   OH277523   2.466   3.871  16.649 -0.1390  0.3537 -0.2256
18703TIP3    H177524   2.558   3.898  16.644 -0.0835  0.0315 -0.9806
18703TIP3    H277525   2.448   3.865  16.743 -0.3696  3.8445  0.0409
18704TIP3   OH277526   2.738   5.895   3.608  0.3870  0.1255  0.3448
18704TIP3    H177527   2.737   5.975   3.555  1.9767 -0.4480 -0.6056
18704TIP3    H277528   2.809   5.909   3.671  1.0114 -0.7268 -0.1545
18705TIP3   OH277529   4.537   4.267   4.990  1.0884  0.2893  0.7310
18705TIP3    H177530   4.555   4.361   4.989 -0.8456  0.6906 -1.3370
18705TIP3    H277531   4.617   4.227   4.955  1.5061  1.2493  0.5667
18706TIP3   OH277532   3.202   0.835   1.919  0.1412 -0.1199 -0.1888
18706TIP3    H177533   3.235   0.925   1.919  0.2393 -0.1513  0.7585
18706TIP3    H277534   3.129   0.836   1.856  0.0746  0.6495 -0.1003
18707TIP3   OH277535   1.199   5.372   4.569  0.4151 -0.0101  0.1052
18707TIP3    H177536   1.244   5.400   4.489 -0.9055 -2.3322 -1.4973
18707TIP3    H277537   1.259   5.309   4.610  0.9329  0.9112  0.7972
18708TIP3   OH277538   6.348   5.743   0.957 -0.1581 -0.5493  0.0231
18708TIP3    H177539   6.264   5.762   1.000 -0.5542 -1.4488 -0.3395
18708TIP3    H277540   6.329   5.749   0.863  0.4462  0.3092 -0.0558
18709TIP3   OH277541   0.885   5.767  14.066 -0.3218  0.1351 -0.1668
18709TIP3    H177542   0.930   5.700  14.014  0.6464 -0.7622  1.7559
18709TIP3    H277543   0.955   5.811  14.114 -1.3802 -0.8980  2.4500
18710TIP3   OH277544   2.322   2.167  11.620  0.0910  0.6059 -0.3017
18710TIP3    H177545   2.275   2.123  11.549  1.5755 -2.9785  0.8409
18710TIP3    H277546   2.415   2.151  11.600  0.5237 -0.6969  2.5270
18711TIP3   OH277547   0.313   4.577   1.667 -0.1455  0.3469 -0.3180
18711TIP3    H177548   0.313   4.504   1.604  0.8594  0.3632 -0.3477
18711TIP3    H277549   0.305   4.655   1.613 -1.1667  0.2722 -0.2905
18712TIP3   OH277550   0.132   3.150  13.837  0.1625  0.3045  0.6399
18712TIP3    H177551   0.089   3.072  13.873 -2.4166  1.1309 -0.5324
18712TIP3    H277552   0.080   3.223  13.869  0.5411  1.3135 -1.0033
18713TIP3   OH277553   2.197   1.774  15.482 -0.0958 -0.5903 -0.1509
18713TIP3    H177554   2.126   1.766  15.546  1.0796  2.4345  1.6692
18713TIP3    H277555   2.158   1.818  15.407 -0.2917  0.7634  0.7133
18714TIP3   OH277556   5.705   1.741  14.330  0.2488  0.1434  0.1259
18714TIP3    H177557   5.745   1.689  14.260  0.7105  0.3233  0.2520
18714TIP3    H277558   5.718   1.831  14.303 -0.1138  0.1997  0.1461
18715TIP3   OH277559   2.954   0.969  11.275  0.1627  0.1888  0.4495
18715TIP3    H177560   2.890   1.038  11.293  0.8623  0.8015  0.6175
18715TIP3    H277561   2.914   0.917  11.206 -0.2972  0.8655  0.1963
18716TIP3   OH277562   1.572   1.324   5.251 -0.7558 -0.0678 -0.3364
18716TIP3    H177563   1.604   1.300   5.164  0.2115 -3.1857  0.8185
18716TIP3    H277564   1.635   1.388   5.283 -0.6640  0.4838 -1.5733
18717TIP3   OH277565   4.434   0.150   3.693 -0.1309  0.1236  0.2919
18717TIP3    H177566   4.360   0.179   3.639  1.1360  1.1839 -0.9197
18717TIP3    H277567   4.463   0.069   3.653 -0.5102 -0.1964  0.6581
18718TIP3   OH277568   0.707   0.857   0.735  0.3837 -0.7843 -0.4234
18718TIP3    H177569   0.769   0.786   0.717  0.6514 -0.5013 -0.6319
18718TIP3    H277570   0.700   0.858   0.830 -0.0366 -1.4390 -0.4426
18719TIP3   OH277571   4.998   6.135  16.574  0.0124 -0.3732  0.8729
18719TIP3    H177572   4.945   6.134  16.494  1.0781 -2.5482  0.1685
18719TIP3    H277573   4.939   6.100  16.642 -1.1853  2.2983  1.3008
18720TIP3   OH277574   4.149   6.630  12.720 -0.4766 -0.6709 -0.0425
18720TIP3    H177575   4.137   6.559  12.656 -3.1080 -1.0178  0.7533
18720TIP3    H277576   4.216   6.687  12.681 -0.4070 -2.0728 -2.0438
18721TIP3   OH277577   4.899   0.274   2.542  0.0822  0.0219  0.1081
18721TIP3    H177578   4.942   0.357   2.561  0.3740 -0.6573  2.4612
18721TIP3    H277579   4.807   0.297   2.530  0.1684  0.6948  0.7408
18722TIP3   OH277580   5.971   3.428  17.171 -0.3746  0.3123 -0.2009
18722TIP3    H177581   5.966   3.439  17.076 -1.0688  0.4334 -0.1492
18722TIP3    H277582   5.884   3.451  17.203 -0.0321  0.6642  0.5059
18723TIP3   OH277583   0.461   1.980  12.468  0.0448  0.1118  0.2194
18723TIP3    H177584   0.463   1.997  12.374  0.4102 -0.8148  0.0565
18723TIP3    H277585   0.517   2.048  12.506  1.6107 -0.7696 -0.4430
18724TIP3   OH277586   6.456   5.662   4.383 -0.3380  0.3760  0.9718
18724TIP3    H177587   6.500   5.577   4.388  1.3556  1.2807  2.0359
18724TIP3    H277588   6.374   5.649   4.430 -0.3235 -0.7988  0.7004
18725TIP3   OH277589   0.209   2.181  14.786  0.5476  0.1345 -0.0970
18725TIP3    H177590   0.145   2.127  14.740  0.3052 -0.7361  1.2247
18725TIP3    H277591   0.162   2.214  14.863  1.4474  0.1559  0.4531
18726TIP3   OH277592   6.426   0.237  13.890 -0.0921 -0.2768  0.4718
18726TIP3    H177593   6.512   0.256  13.853 -1.2228  0.6621 -1.7879
18726TIP3    H277594   6.366   0.293  13.840 -2.0621 -1.2161  1.7293
18727TIP3   OH277595   0.930   0.066  15.931  0.1239  0.2382 -0.1345
18727TIP3    H177596   1.015   0.040  15.968  0.4037  1.1433 -0.1341
18727TIP3    H277597   0.894   0.127  15.995 -0.2487  0.3334 -0.4371
18728TIP3   OH277598   1.851   0.487  13.911  0.3168 -0.0462  0.1638
18728TIP3    H177599   1.861   0.439  13.993 -3.3305 -0.2486  0.5620
18728TIP3    H277600   1.874   0.424  13.843  1.2334 -0.5399  0.9264
18729TIP3   OH277601   3.216   4.402   2.807  0.1027 -0.0020  0.3618
18729TIP3    H177602   3.232   4.316   2.846 -1.1017 -0.2979  0.2472
18729TIP3    H277603   3.294   4.420   2.755  0.2601 -1.1374  0.1924
18730TIP3   OH277604   5.185   4.050   2.655  0.4333  0.1112 -0.0175
18730TIP3    H177605   5.195   4.113   2.726  1.7093 -0.4324  0.3056
18730TIP3    H277606   5.270   4.004   2.651 -0.2347 -1.1070 -0.6909
18731TIP3   OH277607   1.038   0.682  10.746  0.2255 -0.5003  0.0839
18731TIP3    H177608   0.962   0.625  10.738  0.0089 -0.4598  1.5938
18731TIP3    H277609   1.102   0.646  10.686 -1.1004 -0.3454 -1.4569
18732TIP3   OH277610   6.402   0.727  13.590  0.5889  0.1614 -0.2268
18732TIP3    H177611   6.364   0.642  13.567  1.6435 -0.6036  0.8177
18732TIP3    H277612   6.456   0.750  13.514 -0.7697  0.5707 -1.1039
18733TIP3   OH277613   3.966   0.958  14.787  0.2307  0.2753  0.1262
18733TIP3    H177614   4.036   1.008  14.829  1.7922 -0.9474 -0.9274
18733TIP3    H277615   3.973   0.982  14.694 -0.3192 -0.3443 -0.0795
18734TIP3   OH277616   3.176   1.014   6.130  0.5288 -0.7402 -0.0464
18734TIP3    H177617   3.162   0.981   6.219 -0.7284  1.8377  0.7942
18734TIP3    H277618   3.269   1.033   6.125  0.9809 -2.8192 -0.0217
18735TIP3   OH277619   0.669   2.987  13.292  0.5480 -0.2662 -0.9615
18735TIP3    H177620   0.745   2.929  13.295  0.6841 -0.0529 -0.2345
18735TIP3    H277621   0.703   3.073  13.315  0.2274 -0.0108 -1.4127
18736TIP3   OH277622   5.798   4.694   2.895  0.6349 -1.0182 -0.0234
18736TIP3    H177623   5.703   4.682   2.892  0.5330 -0.1864 -0.3074
18736TIP3    H277624   5.810   4.787   2.876  1.5440 -1.2739 -0.6757
18737TIP3   OH277625   0.771   6.002   4.273  0.0754 -0.1616  0.4255
18737TIP3    H177626   0.845   6.042   4.228 -0.0431 -1.9636 -1.4572
18737TIP3    H277627   0.795   5.909   4.282 -1.5909 -0.6053  0.5281
18738TIP3   OH277628   0.729   5.403   3.866 -0.4104 -0.1756  0.6290
18738TIP3    H177629   0.817   5.404   3.828 -1.9446 -0.0756 -3.1894
18738TIP3    H277630   0.714   5.311   3.889 -0.8707 -1.0154 -2.7810
18739TIP3   OH277631   4.261   0.287   3.091  0.1191 -0.0771 -0.3076
18739TIP3    H177632   4.216   0.289   3.007 -1.2197 -2.6776  0.3051
18739TIP3    H277633   4.353   0.269   3.068  0.1611  1.3275 -1.3124
18740TIP3   OH277634   5.968   2.056  14.071  0.3202  0.9953 -0.3366
18740TIP3    H177635   5.958   2.009  13.988 -0.5333  2.3114 -0.9852
18740TIP3    H277636   6.043   2.013  14.113 -0.2732 -0.7761 -1.0225
18741TIP3   OH277637   4.314   2.968   4.816  0.1560  0.1572 -0.0636
18741TIP3    H177638   4.269   3.043   4.778  0.2249  0.4099  0.3565
18741TIP3    H277639   4.380   3.005   4.874 -0.1460 -0.2309  0.5364
18742TIP3   OH277640   3.795   2.239   5.636 -0.1396  0.0592  0.2243
18742TIP3    H177641   3.783   2.166   5.697 -0.0101 -0.5921 -0.5130
18742TIP3    H277642   3.758   2.315   5.681  0.0770 -0.3836  1.1647
18743TIP3   OH277643   0.222   1.902  12.573  0.7017 -0.2980  0.2450
18743TIP3    H177644   0.307   1.924  12.534  0.6086  0.2218  0.3423
18743TIP3    H277645   0.193   1.825  12.523  0.1083  0.9729 -1.4313
18744TIP3   OH277646   1.992   2.012  13.455 -0.3071  0.4121 -0.2004
18744TIP3    H177647   2.020   2.058  13.535  0.6988 -1.7585  0.7363
18744TIP3    H277648   1.918   1.958  13.483 -0.3528  0.1253 -0.8817
18745TIP3   OH277649   4.113   3.631  16.947  0.2407  0.2999 -0.3759
18745TIP3    H177650   4.075   3.703  16.997 -0.5437 -0.0645 -0.4464
18745TIP3    H277651   4.057   3.624  16.869  1.8602  1.3425 -1.6872
18746TIP3   OH277652   1.059   2.432  15.339 -0.3792  0.3800  0.6111
18746TIP3    H177653   0.981   2.480  15.365  0.3502  0.5841  2.4538
18746TIP3    H277654   1.086   2.386  15.418  1.1455 -0.0020 -0.1275
18747TIP3   OH277655   6.020   1.507  13.287 -0.1960 -0.5614  0.4586
18747TIP3    H177656   5.990   1.576  13.227  2.0880 -0.7012 -0.8830
18747TIP3    H277657   6.071   1.554  13.352 -0.4923 -0.7332  0.8164
18748TIP3   OH277658   3.626   5.008  14.918  0.0868  0.8461 -0.3039
18748TIP3    H177659   3.712   5.050  14.915  0.2818  0.5145  0.4896
18748TIP3    H277660   3.638   4.925  14.873 -0.0774  1.2601 -1.1074
18749TIP3   OH277661   1.625   0.601  15.319 -0.2504 -0.3816  0.2374
18749TIP3    H177662   1.706   0.638  15.284 -0.8985  1.2063  0.4031
18749TIP3    H277663   1.613   0.642  15.404 -0.8327 -1.1767  0.5513
18750TIP3   OH277664   5.232   6.124  13.831  0.0564  0.0608  0.1225
18750TIP3    H177665   5.187   6.144  13.913 -1.4353  0.6253 -0.8140
18750TIP3    H277666   5.266   6.209  13.802  0.6592 -0.1539  0.1870
18751TIP3   OH277667   6.230   3.941   3.748 -0.2297  0.7418  0.9072
18751TIP3    H177668   6.171   3.983   3.685 -0.4398  0.0901  0.6604
18751TIP3    H277669   6.310   3.923   3.699 -0.4197  0.1691  0.7992
18752TIP3   OH277670   5.409   5.633  15.650  0.0048 -0.2218  1.0207
18752TIP3    H177671   5.327   5.591  15.676  0.9465 -1.4318  2.1056
18752TIP3    H277672   5.452   5.569  15.593 -0.7902  1.3162 -1.3890
18753TIP3   OH277673   4.288   4.047  14.081 -0.3927  0.4657 -0.0052
18753TIP3    H177674   4.374   4.006  14.086 -0.9352 -0.5011  1.9523
18753TIP3    H277675   4.306   4.141  14.080  0.7300  0.2448 -1.0635
18754TIP3   OH277676   6.443   1.895  15.986 -0.6123 -0.5194 -0.0623
18754TIP3    H177677   6.470   1.890  15.894 -2.0525 -0.3909 -0.5055
18754TIP3    H277678   6.399   1.979  15.994 -1.5041 -1.0197  0.4515
18755TIP3   OH277679   1.646   0.688   4.545  0.5836  0.2173  0.4262
18755TIP3    H177680   1.714   0.728   4.491  0.0529 -1.0810 -1.2667
18755TIP3    H277681   1.665   0.717   4.634  1.1903  2.8090 -0.5270
18756TIP3   OH277682   3.878   2.380  17.201  0.1813 -0.0014 -0.2495
18756TIP3    H177683   3.808   2.446  17.203  0.9465  0.7869  0.7199
18756TIP3    H277684   3.959   2.430  17.210  0.7425 -1.0962  0.9291
18757TIP3   OH277685   1.472   0.029  11.533 -0.0765  0.3330 -0.3878
18757TIP3    H177686   1.478  -0.012  11.447 -1.4320  0.4545 -0.5523
18757TIP3    H277687   1.488   0.122  11.515 -2.3190  0.6771 -0.8462
18758TIP3   OH277688   6.002   6.041  13.306  0.3841 -0.3036  0.5535
18758TIP3    H177689   5.920   6.067  13.349  0.4822  0.5714  0.2294
18758TIP3    H277690   6.049   5.990  13.373 -0.3236 -0.6175  0.8152
18759TIP3   OH277691   4.409   1.543   1.802  0.7210 -0.0373  0.6318
18759TIP3    H177692   4.495   1.578   1.825  1.4102 -0.7346 -0.8042
18759TIP3    H277693   4.348   1.612   1.826  1.8812  1.3589 -0.3283
18760TIP3   OH277694   4.684   3.975  14.788  0.5567  0.0982  0.0628
18760TIP3    H177695   4.589   3.960  14.780  0.5313  0.7626 -0.8730
18760TIP3    H277696   4.708   4.022  14.709  1.9706 -1.4496 -0.4562
18761TIP3   OH277697   2.767   4.978  16.994  0.2226 -0.5319 -0.3107
18761TIP3    H177698   2.694   5.014  16.945  0.2433  1.7182  1.2408
18761TIP3    H277699   2.738   4.979  17.085  1.5431 -1.2185  0.1421
18762TIP3   OH277700   1.257   2.364  11.409  0.1991  0.3138  0.4470
18762TIP3    H177701   1.296   2.441  11.367  0.9068  1.1299  2.5579
18762TIP3    H277702   1.329   2.302  11.417 -0.4551 -0.7787 -1.6100
18763TIP3   OH277703   4.485   1.559  14.542 -0.1984  0.2066  0.2316
18763TIP3    H177704   4.568   1.523  14.573 -0.4775  1.2760  2.3367
18763TIP3    H277705   4.467   1.512  14.461  0.4413 -2.9316  1.8249
18764TIP3   OH277706   6.314   2.393   4.909  0.1257  0.6333 -0.0093
18764TIP3    H177707   6.405   2.372   4.929  0.2052  0.6914 -0.3039
18764TIP3    H277708   6.291   2.462   4.972 -0.8583 -1.8793  2.4935
18765TIP3   OH277709   2.179   1.851  14.655 -0.1796  0.1717  0.2039
18765TIP3    H177710   2.194   1.875  14.747 -0.3110  2.1066 -0.2705
18765TIP3    H277711   2.105   1.904  14.628 -1.1266 -1.5292 -0.6034
18766TIP3   OH277712   3.332   3.731   5.729  0.1022 -0.0309  1.0130
18766TIP3    H177713   3.258   3.688   5.772 -0.3635  1.7152  1.9897
18766TIP3    H277714   3.409   3.694   5.772 -0.2346 -0.9101  0.8765
18767TIP3   OH277715   1.525   0.893  16.737  0.0839  0.1331 -0.2266
18767TIP3    H177716   1.542   0.854  16.822  1.1950  0.6876 -0.1916
18767TIP3    H277717   1.591   0.854  16.679  0.2964  0.8961 -0.5020
18768TIP3   OH277718   0.345   0.170  13.271  0.3503  0.5944  0.2039
18768TIP3    H177719   0.350   0.203  13.181  0.6559  1.5943  0.5855
18768TIP3    H277720   0.434   0.139  13.290  0.2733  0.3356  0.1487
18769TIP3   OH277721   5.443   1.589   2.563 -0.1741  0.2140  0.0957
18769TIP3    H177722   5.475   1.520   2.505 -0.3977  0.0890  0.1179
18769TIP3    H277723   5.510   1.597   2.631 -0.7362 -0.8680  0.8037
18770TIP3   OH277724   6.622   5.024   5.691  0.0378  0.0344  1.0777
18770TIP3    H177725   6.695   5.038   5.630 -0.2888  0.7051  0.8358
18770TIP3    H277726   6.609   5.109   5.734  0.2821 -0.4458  2.1049
18771TIP3   OH277727   4.158   1.880  12.351  0.0416 -0.6012 -0.2707
18771TIP3    H177728   4.071   1.908  12.380 -2.0157 -4.9644 -1.7665
18771TIP3    H277729   4.190   1.953  12.297 -2.6723  1.0940  0.3220
18772TIP3   OH277730   5.154   0.727  11.723  0.1653 -0.2050 -0.0263
18772TIP3    H177731   5.116   0.727  11.811  0.3461  1.9405  0.0615
18772TIP3    H277732   5.245   0.700  11.737  1.0526  3.0683  0.8599
18773TIP3   OH277733   0.278   1.099   4.888  0.0632 -0.0817  0.1601
18773TIP3    H177734   0.192   1.066   4.862 -0.3166  0.3930  0.8117
18773TIP3    H277735   0.337   1.025   4.876 -0.7351 -0.9282  1.3384
18774TIP3   OH277736   1.348   3.296   5.371 -0.3342  0.1526 -0.5519
18774TIP3    H177737   1.331   3.221   5.314  1.9442  0.0792 -1.1924
18774TIP3    H277738   1.323   3.372   5.320  0.8144  0.0290 -1.3124
18775TIP3   OH277739   5.721   6.390  14.918  1.0305 -0.2377  1.3013
18775TIP3    H177740   5.685   6.327  14.981  0.2741  0.1404  1.2546
18775TIP3    H277741   5.660   6.463  14.921  1.3442  0.0496  0.5902
18776TIP3   OH277742   4.665   3.763  12.180 -0.1051  0.1377 -0.1534
18776TIP3    H177743   4.730   3.822  12.143  1.6079 -1.3025  0.4256
18776TIP3    H277744   4.581   3.806  12.166  0.9072  1.6739 -1.6504
18777TIP3   OH277745   2.906   3.288  16.081 -0.0956  0.5494 -0.2166
18777TIP3    H177746   2.928   3.381  16.085  1.5033  0.1192  1.9793
18777TIP3    H277747   2.883   3.265  16.171  2.5454 -1.8372 -0.0611
18778TIP3   OH277748   6.551   5.377  15.647  1.0064  0.1693 -0.6119
18778TIP3    H177749   6.634   5.329  15.651  0.9724  0.1117 -0.6149
18778TIP3    H277750   6.491   5.319  15.600  0.7331 -0.1081  0.0902
18779TIP3   OH277751   5.386   2.939  12.226  0.5800  0.1631 -0.0143
18779TIP3    H177752   5.475   2.903  12.222 -0.0097 -1.5590  1.5482
18779TIP3    H277753   5.384   2.987  12.308 -0.2377 -0.6917  0.4738
18780TIP3   OH277754   2.904   0.941   5.922  0.4904  0.1518  0.0569
18780TIP3    H177755   2.890   0.949   6.016  1.0907  0.9107  0.0839
18780TIP3    H277756   2.816   0.939   5.885  0.2421 -0.6766  0.6747
18781TIP3   OH277757   1.396   6.578   5.900  0.4964 -0.2613 -0.1865
18781TIP3    H177758   1.479   6.566   5.855  0.5274 -3.3241  0.5614
18781TIP3    H277759   1.329   6.560   5.833  0.5190 -1.8867  0.1945
18782TIP3   OH277760   3.371   1.607   2.200 -0.0092  0.9489 -0.6391
18782TIP3    H177761   3.284   1.590   2.237  0.7675  0.2506  0.9141
18782TIP3    H277762   3.414   1.663   2.264  0.8842  0.8296 -1.1301
18783TIP3   OH277763   1.313   1.050   0.151  0.2894  0.7596 -0.4497
18783TIP3    H177764   1.316   1.083   0.240  0.7382  0.0184 -0.1802
18783TIP3    H277765   1.274   0.963   0.159  0.7776  0.4946 -0.9121
18784TIP3   OH277766   1.309   4.867  13.199 -0.5201 -0.2871  0.0179
18784TIP3    H177767   1.310   4.952  13.244  0.2072  0.0162 -0.5611
18784TIP3    H277768   1.380   4.873  13.136 -1.2685 -0.8611 -0.8898
18785TIP3   OH277769   4.383   1.025   5.530  0.0057 -0.2781 -0.1116
18785TIP3    H177770   4.308   1.070   5.492  0.0564  0.2754  0.4429
18785TIP3    H277771   4.413   0.966   5.461  0.9680  1.7447 -1.4528
18786TIP3   OH277772   3.157   3.084   2.194 -0.0650  0.6124 -0.0773
18786TIP3    H177773   3.128   3.110   2.282  1.3543  2.9980 -0.2474
18786TIP3    H277774   3.186   3.166   2.154  1.1428 -0.7512 -2.0733
18787TIP3   OH277775   4.302   0.026  11.004  0.1219 -0.5525 -0.6105
18787TIP3    H177776   4.379   0.037  10.948  0.4988 -0.7431 -0.1316
18787TIP3    H277777   4.308   0.097  11.068 -0.3138 -0.3306 -0.8089
18788TIP3   OH277778   3.234   4.232   2.547 -0.4865  0.1332  0.8099
18788TIP3    H177779   3.263   4.309   2.595 -1.6596  0.4886  0.9854
18788TIP3    H277780   3.314   4.183   2.529  0.2335  1.2062  1.0131
18789TIP3   OH277781   0.022   3.279  13.360 -0.1403  0.2371 -0.1452
18789TIP3    H177782   0.035   3.293  13.454  1.0109  0.6176 -0.3471
18789TIP3    H277783   0.040   3.186  13.346  1.9495  0.6425 -0.3311
18790TIP3   OH277784   5.942   0.252  14.622 -0.2784 -0.1318  0.1928
18790TIP3    H177785   5.856   0.210  14.626 -0.3990 -0.1368 -1.9282
18790TIP3    H277786   5.942   0.300  14.539  1.5242  0.3847  0.4658
18791TIP3   OH277787   2.193   1.016  14.746 -0.0700 -0.5075 -0.5630
18791TIP3    H177788   2.182   1.038  14.838 -0.5263  0.9019 -0.9433
18791TIP3    H277789   2.138   0.938  14.733  0.6674 -1.2239  0.5390
18792TIP3   OH277790   0.818   4.521  16.989 -0.0449 -0.2890 -0.0382
18792TIP3    H177791   0.734   4.475  16.980 -0.0863 -0.4254  1.0100
18792TIP3    H277792   0.801   4.590  17.053  0.3819  0.3397 -0.5891
18793TIP3   OH277793   4.415   5.105   2.456 -0.1744  0.2975  0.1029
18793TIP3    H177794   4.352   5.033   2.455 -0.4473  0.5357 -0.4823
18793TIP3    H277795   4.425   5.130   2.363  0.2921  0.6830  0.2492
18794TIP3   OH277796   3.815   6.722   1.236  0.3980  0.8197 -0.1621
18794TIP3    H177797   3.824   6.715   1.140 -0.4884  1.1859 -0.2744
18794TIP3    H277798   3.721   6.715   1.252  0.7554 -2.1043  0.9415
18795TIP3   OH277799   5.752   3.226  17.050  0.4155 -0.7420 -0.2338
18795TIP3    H177800   5.773   3.208  16.958 -1.4214 -2.1666 -0.3981
18795TIP3    H277801   5.746   3.321  17.055  1.4571 -0.5951 -1.3750
18796TIP3   OH277802   5.774   1.882  16.216 -0.1504  0.1427  0.5176
18796TIP3    H177803   5.702   1.944  16.207 -0.9501 -1.1737 -2.6576
18796TIP3    H277804   5.751   1.831  16.294 -0.1664  2.8192  2.3643
18797TIP3   OH277805   2.077   2.308  11.714  0.3746  0.0369 -0.0786
18797TIP3    H177806   2.061   2.403  11.714 -0.4528 -0.0855  1.4588
18797TIP3    H277807   2.172   2.299  11.720  0.4658  0.7645 -0.3735
18798TIP3   OH277808   0.214   6.587  14.751  0.2147  0.0549 -0.1319
18798TIP3    H177809   0.159   6.566  14.827  0.1059 -0.2662 -0.2973
18798TIP3    H277810   0.196   6.517  14.689  0.1168  0.4565 -0.5555
18799TIP3   OH277811   6.582   1.818   0.792  0.4502  0.4779 -0.0779
18799TIP3    H177812   6.635   1.797   0.869 -1.0589  1.3500  1.2235
18799TIP3    H277813   6.534   1.897   0.816 -0.3070  0.5636 -1.7859
18800TIP3   OH277814   6.297   0.998  11.705 -0.8039  0.6912 -0.2007
18800TIP3    H177815   6.373   0.975  11.651  0.1484  1.6161  0.7275
18800TIP3    H277816   6.277   1.089  11.682 -0.9984  0.7772  0.3012
18801TIP3   OH277817   1.589   0.216  14.758  0.0919 -0.0704 -0.3492
18801TIP3    H177818   1.590   0.179  14.846 -0.8454  0.9106  0.0874
18801TIP3    H277819   1.625   0.147  14.702 -0.9054 -1.3348  0.5465
18802TIP3   OH277820   3.042   1.453   3.984  0.2591  0.1298  0.5508
18802TIP3    H177821   2.982   1.412   4.046  0.3439  0.8407  1.1098
18802TIP3    H277822   3.124   1.406   3.995 -0.1973 -0.8687 -0.2425
18803TIP3   OH277823   5.882   0.059   1.273 -0.5594 -0.4501  0.0142
18803TIP3    H177824   5.925   0.079   1.189  0.8078 -1.6772  0.4126
18803TIP3    H277825   5.950   0.075   1.339 -2.2903  2.8079  1.1437
18804TIP3   OH277826   2.992   5.261   5.695  0.4043  0.2947 -0.8640
18804TIP3    H177827   3.012   5.250   5.787  0.0448  0.7707 -0.7276
18804TIP3    H277828   3.077   5.263   5.651  0.7455  3.3180 -0.1840
18805TIP3   OH277829   3.052   2.470   5.105  0.1973 -0.0277 -0.1828
18805TIP3    H177830   2.975   2.414   5.094 -0.6197  1.1735 -0.7655
18805TIP3    H277831   3.072   2.466   5.198 -0.8793  0.0466  0.0527
18806TIP3   OH277832   5.917   2.368   1.439  0.1502  0.6557  0.0366
18806TIP3    H177833   5.894   2.374   1.347  1.6798 -0.3870 -0.4278
18806TIP3    H277834   6.011   2.384   1.442  0.2503 -0.0690  1.3205
18807TIP3   OH277835   5.219   4.769  15.275  0.3169 -0.4713  0.0540
18807TIP3    H177836   5.137   4.749  15.231  1.1777 -0.5308 -1.5445
18807TIP3    H277837   5.259   4.683  15.292 -0.5002 -0.5143  1.9698
18808TIP3   OH277838   0.414   0.139   4.663  0.1960 -0.3228  0.2129
18808TIP3    H177839   0.409   0.063   4.605  0.1823  0.3577 -0.6838
18808TIP3    H277840   0.439   0.212   4.606  0.5067  0.2962  1.1152
18809TIP3   OH277841   3.286   0.260  16.138  0.0648  0.3441 -0.3998
18809TIP3    H177842   3.194   0.286  16.139  0.3466  1.3187 -0.2506
18809TIP3    H277843   3.323   0.305  16.062  1.0717  2.1604  1.1311
18810TIP3   OH277844   2.448   0.996   3.627 -0.0109  0.2714  0.0685
18810TIP3    H177845   2.423   1.011   3.536  0.3929 -3.5177 -0.7530
18810TIP3    H277846   2.364   0.991   3.674 -0.4038 -1.1483 -0.7374
18811TIP3   OH277847   0.201   3.858   2.136 -0.2969 -0.6522  0.0402
18811TIP3    H177848   0.202   3.769   2.169 -0.6301  0.2105  2.4883
18811TIP3    H277849   0.197   3.913   2.214 -0.9823  1.4907 -1.4315
18812TIP3   OH277850   3.496   1.910   2.354  0.4988 -0.0185  0.1952
18812TIP3    H177851   3.526   1.838   2.298 -0.7908 -0.5131  0.1371
18812TIP3    H277852   3.573   1.967   2.362  0.6375  0.2045 -2.2897
18813TIP3   OH277853   5.726   2.416   5.672 -0.4537  0.0464 -0.3627
18813TIP3    H177854   5.727   2.508   5.700 -1.2130 -0.3963  1.1797
18813TIP3    H277855   5.655   2.411   5.609 -1.9273  0.0433  1.2719
18814TIP3   OH277856   6.520   5.693   1.579  0.2006  0.2446  0.2146
18814TIP3    H177857   6.557   5.611   1.612  0.8465  1.0059  1.4426
18814TIP3    H277858   6.535   5.690   1.484 -1.5450 -1.9177 -0.0248
18815TIP3   OH277859   3.501   5.306   0.762  0.0285 -0.4126  0.2204
18815TIP3    H177860   3.574   5.366   0.747  0.2551 -0.6973  0.1770
18815TIP3    H277861   3.531   5.223   0.725 -0.1956 -0.6083  0.4785
18816TIP3   OH277862   6.304   6.284   5.422  0.1130 -0.2025  0.4650
18816TIP3    H177863   6.222   6.258   5.464  0.4744 -1.5705  0.3537
18816TIP3    H277864   6.329   6.365   5.467 -0.4102 -0.7067  1.6934
18817TIP3   OH277865   6.584   6.506  13.349 -0.3299 -0.2544 -0.3924
18817TIP3    H177866   6.620   6.518  13.437 -2.6134  1.7191  0.3456
18817TIP3    H277867   6.620   6.422  13.319  2.7499  0.4104  1.2468
18818TIP3   OH277868   3.936   0.090   0.665 -0.1881 -0.0174 -0.2423
18818TIP3    H177869   3.957   0.003   0.700  1.8888  0.3853 -0.3877
18818TIP3    H277870   3.945   0.080   0.570  2.1829  0.8547 -0.1356
18819TIP3   OH277871   0.046   5.387  15.062 -0.0407  0.0684  0.3212
18819TIP3    H177872   0.010   5.444  15.130  1.6548  0.3707  0.9828
18819TIP3    H277873   0.113   5.335  15.107 -0.1185 -0.9658 -0.7379
18820TIP3   OH277874   2.038   1.631   0.201 -0.0446  0.1835 -0.3213
18820TIP3    H177875   1.978   1.641   0.276  1.7705  0.9747  1.0630
18820TIP3    H277876   1.980   1.617   0.126 -1.8880 -3.3065  1.6090
18821TIP3   OH277877   0.997   4.837  14.245  0.2522 -0.1666  0.7541
18821TIP3    H177878   0.974   4.928  14.230 -1.9497 -0.8599 -0.2036
18821TIP3    H277879   1.093   4.837  14.248  0.3474  1.8623 -1.2142
18822TIP3   OH277880   1.504   4.058   5.044 -0.1641 -0.1042  0.8155
18822TIP3    H177881   1.475   4.107   5.120  0.0109  0.5872  0.4355
18822TIP3    H277882   1.593   4.090   5.027 -1.0486  1.4457 -1.0885
18823TIP3   OH277883   4.051   6.070   0.946  0.5481  0.3616 -0.0590
18823TIP3    H177884   4.020   5.986   0.913 -0.7619 -0.0175  2.0273
18823TIP3    H277885   3.985   6.096   1.011  0.4946  3.3912 -1.2488
18824TIP3   OH277886   6.568   4.084   4.141  0.0075 -0.4347 -0.5402
18824TIP3    H177887   6.491   4.095   4.085  0.8021 -0.7369 -1.7171
18824TIP3    H277888   6.630   4.149   4.109  1.0801 -1.7162 -1.0985
18825TIP3   OH277889   6.292   5.036  16.171  0.2368  0.0564 -0.4328
18825TIP3    H177890   6.284   5.030  16.076 -0.5461  1.8563 -0.5047
18825TIP3    H277891   6.386   5.036  16.188  0.3824  0.3522 -1.2574
18826TIP3   OH277892   5.020   5.360  12.351 -0.1546 -0.3351 -0.3150
18826TIP3    H177893   5.007   5.360  12.256  1.0757 -1.0845 -0.4932
18826TIP3    H277894   5.086   5.427  12.367 -1.4389  0.8368  0.1900
18827TIP3   OH277895   5.445   2.969   3.774 -0.6944  0.0034 -0.5831
18827TIP3    H177896   5.510   3.035   3.749 -0.4339  0.0647  0.2527
18827TIP3    H277897   5.457   2.957   3.868 -1.7712 -0.1277 -0.4569
18828TIP3   OH277898   3.143   6.055  11.063 -0.3016 -0.1565 -0.0012
18828TIP3    H177899   3.083   6.053  10.989 -0.2799 -1.0162  0.0027
18828TIP3    H277900   3.087   6.045  11.140 -0.1376 -1.1946 -0.0094
18829TIP3   OH277901   4.753   2.736   3.019  0.4243  0.2204 -0.0216
18829TIP3    H177902   4.734   2.667   2.956 -0.7310  0.7183 -0.2320
18829TIP3    H277903   4.833   2.706   3.063  0.9563 -0.3839 -1.3414
18830TIP3   OH277904   0.688   1.465  11.719  0.3575 -0.3775 -0.0235
18830TIP3    H177905   0.725   1.551  11.738 -1.0391  0.1384  0.3469
18830TIP3    H277906   0.643   1.476  11.636  1.0151 -1.0182 -0.4782
18831TIP3   OH277907   6.230   2.588   1.648  0.2358  0.0632 -0.3395
18831TIP3    H177908   6.182   2.597   1.566 -0.7246 -1.6386  0.0142
18831TIP3    H277909   6.306   2.535   1.626 -0.5301 -1.2102  0.0605
18832TIP3   OH277910   5.496   5.238   0.842 -0.0197  0.2209 -0.0669
18832TIP3    H177911   5.491   5.235   0.746  2.2558  1.0736 -0.2386
18832TIP3    H277912   5.458   5.323   0.864 -3.3259 -1.2027  0.0554
18833TIP3   OH277913   3.140   3.987   3.188  0.5827  0.3283 -0.0401
18833TIP3    H177914   3.230   3.955   3.198 -0.0411 -1.1760  0.9068
18833TIP3    H277915   3.129   4.051   3.259  0.9864  0.7042 -0.3153
18834TIP3   OH277916   4.987   4.604   4.079 -0.3562  0.6623  0.1339
18834TIP3    H177917   5.018   4.691   4.056  0.6158  0.0177 -1.0982
18834TIP3    H277918   4.895   4.603   4.053  0.0323  0.8281 -1.2943
18835TIP3   OH277919   5.316   0.450   4.095  0.2189  0.0351  0.1358
18835TIP3    H177920   5.318   0.489   4.182 -1.2096 -2.3630  1.3009
18835TIP3    H277921   5.296   0.523   4.037  2.4375  1.9026  1.6298
18836TIP3   OH277922   3.275   1.048  15.960 -0.1682 -0.1025  0.0990
18836TIP3    H177923   3.365   1.023  15.983 -0.0824 -0.2145 -0.3421
18836TIP3    H277924   3.241   1.090  16.038  0.1969 -0.2595  0.3448
18837TIP3   OH277925   5.113   2.973   5.691  0.9347 -0.1928  0.0107
18837TIP3    H177926   5.154   2.899   5.736  2.0051 -0.2651 -1.0387
18837TIP3    H277927   5.108   2.945   5.599 -1.4199 -0.1440  0.1107
18838TIP3   OH277928   2.551   2.886   5.512 -0.5372  0.3119 -0.0145
18838TIP3    H177929   2.501   2.955   5.467 -0.0065  0.9995  0.4526
18838TIP3    H277930   2.630   2.876   5.460 -1.1723 -0.8172 -0.7839
18839TIP3   OH277931   3.183   2.761   6.329  0.4900 -0.1998 -0.4225
18839TIP3    H177932   3.183   2.826   6.399  1.2794 -0.6968  0.0543
18839TIP3    H277933   3.134   2.687   6.365  0.2726 -0.1749 -0.6657
18840TIP3   OH277934   1.264   3.546  11.838 -0.0872 -0.1703  0.3370
18840TIP3    H177935   1.307   3.568  11.755  0.0049 -0.4725  0.3061
18840TIP3    H277936   1.334   3.514  11.894 -0.2762 -0.7083  0.2715
18841TIP3   OH277937   1.533   6.208   6.359 -0.2661  0.5579 -0.4253
18841TIP3    H177938   1.602   6.157   6.401  1.4964  2.7168 -0.6556
18841TIP3    H277939   1.454   6.184   6.408  1.0357 -0.1287  1.4188
18842TIP3   OH277940   3.331   3.220  15.774 -0.5193  0.1877  0.2562
18842TIP3    H177941   3.332   3.293  15.712  0.1042 -1.7870 -2.1413
18842TIP3    H277942   3.253   3.235  15.828 -2.5461  0.5947 -2.6788
18843TIP3   OH277943   4.848   5.348  14.216 -0.4373  0.5361 -0.5172
18843TIP3    H177944   4.826   5.326  14.307  0.3586  0.1825 -0.4036
18843TIP3    H277945   4.824   5.270  14.166  0.7770  0.0518 -0.3574
18844TIP3   OH277946   5.598   0.631  14.188 -0.1893 -0.6471 -0.6764
18844TIP3    H177947   5.558   0.545  14.177  0.5308 -0.9961 -0.5357
18844TIP3    H277948   5.577   0.655  14.278 -1.6369 -0.0364 -1.1609
18845TIP3   OH277949   4.986   5.441  13.638 -0.4801  0.2942  0.1191
18845TIP3    H177950   4.953   5.528  13.613 -1.3865  0.0623  0.4613
18845TIP3    H277951   5.008   5.399  13.556  2.2869  1.7292  0.0807
18846TIP3   OH277952   1.672   5.911  11.045  0.2022  0.1162 -0.0717
18846TIP3    H177953   1.701   5.820  11.035  0.6068  0.1467  0.7500
18846TIP3    H277954   1.741   5.963  11.003 -0.1280  0.0331 -0.7167
18847TIP3   OH277955   5.603   2.994  17.161 -0.1759  0.1029  0.1634
18847TIP3    H177956   5.639   3.065  17.109  0.5231  0.0963  0.6246
18847TIP3    H277957   5.558   3.037  17.234 -1.4668  0.1223 -0.6403
18848TIP3   OH277958   4.066   5.563  15.660 -0.3765 -0.1255  0.0070
18848TIP3    H177959   4.027   5.475  15.658 -0.6622  0.0314 -1.4468
18848TIP3    H277960   4.084   5.578  15.753 -2.0850 -0.9541  0.5044
18849TIP3   OH277961   1.528   2.617  14.544 -0.0807  0.1915  0.2536
18849TIP3    H177962   1.490   2.629  14.631 -0.3927 -0.2076  0.1747
18849TIP3    H277963   1.486   2.684  14.490 -0.5775 -0.1497  0.2029
18850TIP3   OH277964   3.876   2.779  13.907 -0.5766 -0.8538  0.2086
18850TIP3    H177965   3.856   2.726  13.830  0.7196  0.9085 -1.3727
18850TIP3    H277966   3.797   2.829  13.923 -0.8313 -1.1900  0.0044
18851TIP3   OH277967   4.384   3.422  14.267  0.3058  0.0076 -0.6956
18851TIP3    H177968   4.339   3.475  14.201  0.0196  0.3972 -0.1889
18851TIP3    H277969   4.457   3.382  14.219 -1.6225 -2.0866 -1.9459
18852TIP3   OH277970   2.940   0.245   0.821 -0.4446 -0.4713  0.4088
18852TIP3    H177971   2.869   0.186   0.846 -0.1499 -0.8820  0.2870
18852TIP3    H277972   2.981   0.203   0.746  1.9350 -1.9107  2.4055
18853TIP3   OH277973   0.029   4.848   3.801  0.1528 -0.2449 -0.2241
18853TIP3    H177974   0.076   4.776   3.761 -0.4484 -1.1153  0.6230
18853TIP3    H277975   0.013   4.819   3.891 -1.6046  0.2247 -0.3734
18854TIP3   OH277976   3.880   6.543  17.040 -0.4776 -0.2280  0.2998
18854TIP3    H177977   3.881   6.539  17.135  1.1654 -0.0765  0.3001
18854TIP3    H277978   3.933   6.619  17.018 -1.3766  0.1224 -0.7275
18855TIP3   OH277979   0.887   0.372  15.550 -0.0897 -0.1590  0.1751
18855TIP3    H177980   0.859   0.431  15.620 -0.2778  0.0233 -0.0553
18855TIP3    H277981   0.978   0.351  15.572  0.0753  0.4583  0.0934
18856TIP3   OH277982   3.630   3.139   2.377  0.0247  0.3538  0.2773
18856TIP3    H177983   3.647   3.181   2.461 -3.8910  1.6186  0.5544
18856TIP3    H277984   3.603   3.050   2.401 -3.8142  1.5324  0.6861
18857TIP3   OH277985   3.160   5.771   6.120 -0.1432 -0.4394  0.4131
18857TIP3    H177986   3.220   5.733   6.055  0.4625  0.8897  0.1833
18857TIP3    H277987   3.210   5.841   6.161 -1.1083 -0.1645  1.1329
18858TIP3   OH277988   2.592   5.949  12.739 -0.3696 -0.0571  0.3848
18858TIP3    H177989   2.573   5.862  12.704 -1.0537  0.3158 -0.1889
18858TIP3    H277990   2.510   5.978  12.779 -0.1115  0.2757  0.6781
18859TIP3   OH277991   0.708   1.583   2.125  0.4097 -0.3119  0.1540
18859TIP3    H177992   0.705   1.614   2.035  2.9327  0.4083  0.2879
18859TIP3    H277993   0.774   1.513   2.124  0.1743 -0.5670  1.3696
18860TIP3   OH277994   5.001   3.030  11.440 -1.0268  0.3787  0.8218
18860TIP3    H177995   4.986   3.060  11.350  0.1729 -1.4500 -0.0338
18860TIP3    H277996   4.928   3.066  11.491 -2.4132  0.3905 -1.1278
18861TIP3   OH277997   2.604   5.614   2.949 -0.4224  0.0716  0.8004
18861TIP3    H177998   2.596   5.639   2.857 -1.8004 -0.5678  0.7313
18861TIP3    H277999   2.518   5.633   2.986 -0.2464 -0.7986  1.6803
18862TIP3   OH278000   3.895   2.004  12.077 -0.3711 -0.3285 -0.2884
18862TIP3    H178001   3.866   2.046  12.158 -0.7347 -0.3388 -0.4096
18862TIP3    H278002   3.839   1.927  12.070 -0.8363  0.0579 -0.9140
18863TIP3   OH278003   3.139   2.169  16.741 -0.2020  0.2851 -0.3291
18863TIP3    H178004   3.069   2.107  16.722 -0.5844  0.6772 -0.2013
18863TIP3    H278005   3.102   2.255  16.718 -0.2570  0.6384  1.0563
18864TIP3   OH278006   1.605   2.605   5.670 -0.0916  0.4349 -0.6892
18864TIP3    H178007   1.584   2.697   5.651 -1.4824  0.1613 -0.5386
18864TIP3    H278008   1.574   2.591   5.759  1.7061  0.2824 -0.0668
18865TIP3   OH278009   3.742   2.111   0.128  0.3539 -0.8599 -0.0318
18865TIP3    H178010   3.815   2.099   0.066  0.3419 -2.2890  0.2224
18865TIP3    H278011   3.713   2.201   0.112  2.0517 -0.3211 -0.2689
18866TIP3   OH278012   4.897   4.995  13.582  0.1749 -0.1352 -0.0524
18866TIP3    H178013   4.900   5.003  13.486  0.5925 -0.3225 -0.0575
18866TIP3    H278014   4.943   5.072  13.614 -1.1980  0.6593  0.0330
18867TIP3   OH278015   4.027   2.548   5.410  0.4522 -0.3793 -0.4293
18867TIP3    H178016   4.030   2.488   5.484 -1.3106  1.5275  1.2677
18867TIP3    H278017   3.934   2.553   5.387  0.8756 -0.2147 -2.1583
18868TIP3   OH278018   5.871   5.346  16.628 -0.9946  0.1072  0.1246
18868TIP3    H178019   5.935   5.292  16.674 -0.8949  0.0531 -0.0786
18868TIP3    H278020   5.860   5.303  16.543 -0.5823  0.6586 -0.2072
18869TIP3   OH278021   6.754   0.508   3.626  0.0340 -0.3213 -0.0233
18869TIP3    H178022   6.726   0.541   3.712 -3.2873  0.8369 -1.4480
18869TIP3    H278023   6.786   0.585   3.580  1.0788 -0.8040 -0.1155
18870TIP3   OH278024   1.542   1.437   1.556  0.5600  0.1714  0.2610
18870TIP3    H178025   1.519   1.427   1.649 -3.6603 -0.6538 -0.7952
18870TIP3    H278026   1.548   1.347   1.523 -0.6813  0.5054 -0.8896
18871TIP3   OH278027   2.623   1.684   4.528  0.0019 -0.3133 -0.7040
18871TIP3    H178028   2.577   1.743   4.468  0.2295 -0.2622 -0.8298
18871TIP3    H278029   2.606   1.597   4.493 -1.2468 -0.4074  0.1101
18872TIP3   OH278030   6.380   3.510  12.415  0.0945 -0.8889  0.1623
18872TIP3    H178031   6.343   3.441  12.470 -1.0323  0.1559  0.7320
18872TIP3    H278032   6.426   3.568  12.476 -0.4674 -0.1704 -0.0909
18873TIP3   OH278033   3.580   3.219  16.082  0.0125 -0.2738 -0.9030
18873TIP3    H178034   3.667   3.220  16.121  0.1895 -1.6230 -1.2545
18873TIP3    H278035   3.522   3.247  16.154  0.3484 -2.6216  0.3355
18874TIP3   OH278036   4.332   1.429  10.252  0.3090  0.5647 -0.1376
18874TIP3    H178037   4.337   1.503  10.313  0.8837 -1.1195  1.9490
18874TIP3    H278038   4.399   1.447  10.187 -0.2114  2.3451 -0.2065
18875TIP3   OH278039   0.764   3.073   5.971  0.6868  0.0859 -0.1265
18875TIP3    H178040   0.818   2.995   5.959  1.6980  0.7311  0.2422
18875TIP3    H278041   0.810   3.125   6.036 -0.5785  0.4631  0.4868
18876TIP3   OH278042   5.599   3.633  16.888  0.0313 -0.2310 -0.0415
18876TIP3    H178043   5.568   3.719  16.859  0.0591  0.0962  0.8884
18876TIP3    H278044   5.540   3.571  16.845  0.7087  0.1971 -1.5944
18877TIP3   OH278045   0.422   4.050  15.895 -0.0011 -0.1325  0.0610
18877TIP3    H178046   0.451   4.138  15.919 -0.2198  0.8230 -2.9979
18877TIP3    H278047   0.344   4.035  15.950  0.1884  1.4492  0.7920
18878TIP3   OH278048   4.074   3.292   0.851  0.3799 -0.7521 -0.2363
18878TIP3    H178049   4.006   3.253   0.905  0.2053 -0.7411 -0.4462
18878TIP3    H278050   4.030   3.361   0.802  1.1152  1.0745  1.6276
18879TIP3   OH278051   1.819   0.704   2.368 -0.7691  0.1555  0.2053
18879TIP3    H178052   1.747   0.765   2.351 -1.7376 -1.6924 -2.6377
18879TIP3    H278053   1.779   0.632   2.417 -1.0656 -1.2271 -2.0166
18880TIP3   OH278054   6.572   4.166   6.167  0.3674 -0.5611 -0.5314
18880TIP3    H178055   6.579   4.261   6.151  0.9339 -0.8030 -1.7725
18880TIP3    H278056   6.491   4.157   6.218  0.0828  0.5489 -0.7554
18881TIP3   OH278057   5.452   2.652   6.008  0.3348 -0.3864 -0.3706
18881TIP3    H178058   5.462   2.557   6.003 -0.1042 -0.4804  0.4242
18881TIP3    H278059   5.539   2.685   6.030  0.0861 -0.7551  1.1785
18882TIP3   OH278060   1.578   5.483   2.478 -0.5569  0.6931 -0.3520
18882TIP3    H178061   1.608   5.574   2.484  0.7288  0.3919 -1.9057
18882TIP3    H278062   1.629   5.446   2.406 -2.5038 -0.6934 -1.0543
18883TIP3   OH278063   2.452   3.925  15.268  0.3532 -0.0956  0.4115
18883TIP3    H178064   2.394   3.953  15.339 -1.7877 -0.3525 -1.1497
18883TIP3    H278065   2.435   3.987  15.197 -0.1750 -1.8714 -1.0723
18884TIP3   OH278066   6.714   5.083  14.123 -0.3228  0.2392  0.1192
18884TIP3    H178067   6.809   5.084  14.132 -0.2686  1.0883 -0.4157
18884TIP3    H278068   6.697   5.142  14.049 -1.3376  0.9656  0.9269
18885TIP3   OH278069   0.107   1.411   6.017  0.4275  0.5156  0.2854
18885TIP3    H178070   0.017   1.445   6.019  0.8882  1.7460  0.7184
18885TIP3    H278071   0.097   1.316   6.020 -0.8836  0.6219 -0.5303
18886TIP3   OH278072   4.116   4.257   6.067  0.5003 -0.3582 -0.5615
18886TIP3    H178073   4.208   4.235   6.082  0.0955 -2.3155 -0.8088
18886TIP3    H278074   4.068   4.201   6.127 -0.5218  0.9683 -0.1320
18887TIP3   OH278075   5.119   5.713   3.632 -0.1092 -0.3456  0.0430
18887TIP3    H178076   5.175   5.695   3.556 -0.7327  1.5147 -0.8996
18887TIP3    H278077   5.035   5.675   3.609 -0.5472  0.9792 -0.6031
18888TIP3   OH278078   3.460   4.809   5.126 -0.4216 -0.3614  0.3307
18888TIP3    H178079   3.523   4.747   5.090  0.3006  0.8720 -0.5569
18888TIP3    H278080   3.383   4.801   5.069 -0.2875 -0.3574  0.1493
18889TIP3   OH278081   4.461   0.347  16.788  0.3449  0.0547 -0.1475
18889TIP3    H178082   4.403   0.339  16.712  0.2411 -2.1267  0.1216
18889TIP3    H278083   4.547   0.367  16.750  0.7269 -2.9400 -1.0738
18890TIP3   OH278084   3.190   2.007   0.026 -0.5395  0.2971 -0.3746
18890TIP3    H178085   3.136   1.984  -0.049 -0.2272  0.0368 -0.5223
18890TIP3    H278086   3.249   2.076  -0.006  0.8939 -1.1551 -0.9042
18891TIP3   OH278087   1.792   2.915   4.798  0.1276  0.4062  0.0036
18891TIP3    H178088   1.813   2.933   4.707  1.4007  1.4378  0.4855
18891TIP3    H278089   1.845   2.977   4.848 -0.1478 -0.5076  1.4663
18892TIP3   OH278090   4.853   0.418   5.524 -0.5542  0.4352  0.2883
18892TIP3    H178091   4.846   0.333   5.568  0.2550 -0.3921 -1.1501
18892TIP3    H278092   4.846   0.397   5.430 -2.7437  2.2187  0.0167
18893TIP3   OH278093   6.014   3.119   5.675 -0.3316  0.3777 -0.2780
18893TIP3    H178094   6.053   3.052   5.619 -0.4620  1.3531 -1.5855
18893TIP3    H278095   6.058   3.200   5.649 -0.9252  0.9673  0.5237
18894TIP3   OH278096   6.395   3.059  15.981  1.1033 -0.0795 -0.3010
18894TIP3    H178097   6.363   2.971  16.002 -1.3709  0.7996 -0.2929
18894TIP3    H278098   6.405   3.102  16.066  0.2102  0.3660 -0.4223
18895TIP3   OH278099   0.389   5.005   5.693  0.6369 -0.5358 -0.7656
18895TIP3    H178100   0.326   4.958   5.747 -0.6280 -1.2397 -2.7747
18895TIP3    H278101   0.452   4.937   5.665  1.8773  0.0182  0.6204
18896TIP3   OH278102   4.430   6.474   1.078 -0.0621 -0.4066 -0.9481
18896TIP3    H178103   4.438   6.521   1.161  1.0321  1.4468 -2.0671
18896TIP3    H278104   4.457   6.384   1.099  0.9869  0.2307  0.5422
18897TIP3   OH278105   5.808   4.497   0.655  0.3006  0.4387  1.0523
18897TIP3    H178106   5.853   4.550   0.720  1.1727  0.8375  0.1358
18897TIP3    H278107   5.863   4.420   0.644 -0.2085  0.0357  1.3019
18898TIP3   OH278108   6.221   1.987  14.250  0.1835 -0.5763 -0.3021
18898TIP3    H178109   6.182   1.984  14.337 -1.0357  0.1005 -0.8170
18898TIP3    H278110   6.285   2.058  14.255 -0.6713  0.2014 -0.2720
18899TIP3   OH278111   5.582   3.665   0.571 -0.7851 -0.0111 -0.3376
18899TIP3    H178112   5.661   3.620   0.601 -1.9436 -1.7701  0.1197
18899TIP3    H278113   5.596   3.676   0.477  0.8540  1.4536  0.0542
18900TIP3   OH278114   6.213   4.483   5.135 -0.3841  0.0541  0.4646
18900TIP3    H178115   6.287   4.434   5.100 -0.2715 -1.2662  2.5322
18900TIP3    H278116   6.139   4.457   5.079  0.3849  0.2438 -0.6618
18901TIP3   OH278117   1.449   0.815  16.126  0.4661 -0.3731  0.0089
18901TIP3    H178118   1.468   0.759  16.050 -0.2866 -1.2732  0.4799
18901TIP3    H278119   1.365   0.855  16.105  0.6150 -0.0466  0.0384
18902TIP3   OH278120   6.292   5.916  11.005  0.0710  0.1781  0.5655
18902TIP3    H178121   6.313   5.880  11.091  1.5107  2.5639  1.2872
18902TIP3    H278122   6.200   5.895  10.991  0.1176 -1.1661  2.2184
18903TIP3   OH278123   5.889   5.510  13.020  0.4046  0.2814 -0.2027
18903TIP3    H178124   5.796   5.512  12.999  0.7471  0.7796 -1.7434
18903TIP3    H278125   5.908   5.599  13.050  0.4121  0.2028  0.0281
18904TIP3   OH278126   5.508   4.229  14.180 -0.0200  0.5773 -0.6109
18904TIP3    H178127   5.571   4.299  14.197  0.9234 -0.5506  0.7824
18904TIP3    H278128   5.522   4.206  14.088 -1.4554  3.2502 -1.5317
18905TIP3   OH278129   1.715   6.767  11.375 -0.0305  0.0591 -0.4683
18905TIP3    H178130   1.787   6.830  11.383 -0.1819  0.1638  0.1308
18905TIP3    H278131   1.737   6.714  11.298  1.6835 -1.1992  0.8506
18906TIP3   OH278132   2.040   3.237   1.716  0.2065 -0.3208  0.3641
18906TIP3    H178133   1.976   3.306   1.734 -0.1658 -0.2719 -1.0607
18906TIP3    H278134   2.075   3.213   1.802  0.7742  2.0661  0.8160
18907TIP3   OH278135   2.332   3.660  13.922  0.6722  0.1711  0.1134
18907TIP3    H178136   2.419   3.691  13.947  1.5482 -2.0281 -0.0950
18907TIP3    H278137   2.290   3.737  13.883  3.4021  0.6934 -2.0083
18908TIP3   OH278138   5.121   0.504  16.442 -0.7286  0.4212 -0.1393
18908TIP3    H178139   5.094   0.556  16.366 -2.6762  0.7806  0.7532
18908TIP3    H278140   5.168   0.566  16.498 -0.4645  0.4950 -0.4458
18909TIP3   OH278141   2.900   1.122  12.628  0.5588 -0.0957  0.3453
18909TIP3    H178142   2.866   1.184  12.564 -0.2960 -1.0724 -0.1583
18909TIP3    H278143   2.881   1.036  12.591  0.0485 -0.6744  1.9080
18910TIP3   OH278144   4.651   0.715  11.478  0.1780 -0.4551  0.2636
18910TIP3    H178145   4.687   0.798  11.448  3.2726 -2.0341 -0.5579
18910TIP3    H278146   4.677   0.710  11.570  0.5195 -0.7842  0.1498
18911TIP3   OH278147   0.729   0.537   1.419  0.6344 -0.8085 -0.4662
18911TIP3    H178148   0.736   0.595   1.344 -1.9117  1.5626  0.9949
18911TIP3    H278149   0.714   0.450   1.382 -1.9539  0.5404 -2.7225
18912TIP3   OH278150   5.672   1.215   3.296 -0.7866 -0.6219 -0.2694
18912TIP3    H178151   5.717   1.217   3.211 -0.2997  0.5334  0.0108
18912TIP3    H278152   5.597   1.157   3.282 -0.0432 -1.3858 -1.1537
18913TIP3   OH278153   6.410   4.756   5.098 -0.7910 -0.2173 -0.1690
18913TIP3    H178154   6.482   4.719   5.149  0.5752  0.2374 -1.7155
18913TIP3    H278155   6.347   4.684   5.091  0.2978 -1.1775 -0.2613
18914TIP3   OH278156   5.422   5.843   4.440  0.2709 -0.3807  0.1063
18914TIP3    H178157   5.436   5.846   4.535  2.1009  0.2638 -0.1643
18914TIP3    H278158   5.436   5.933   4.411  2.1819 -1.0341 -1.0920
18915TIP3   OH278159   5.330   2.006  13.906 -0.4620  0.5417  0.4997
18915TIP3    H178160   5.394   1.936  13.894 -0.8836  0.1739  0.4299
18915TIP3    H278161   5.250   1.962  13.932 -0.4410  1.0683  1.5146
18916TIP3   OH278162   1.344   5.311  15.351 -0.2959 -0.2785  0.1774
18916TIP3    H178163   1.354   5.405  15.337  1.1049 -0.4951 -0.4278
18916TIP3    H278164   1.434   5.279  15.362 -0.8262 -1.3702  1.5873
18917TIP3   OH278165   4.042   0.898   3.069 -0.1933 -0.6761  0.1280
18917TIP3    H178166   4.065   0.839   3.141 -1.3115 -0.2935  0.8085
18917TIP3    H278167   3.983   0.846   3.014 -0.5132 -0.4791  0.2826
18918TIP3   OH278168   2.612   6.193  14.626 -0.1885 -0.8859 -0.6894
18918TIP3    H178169   2.679   6.179  14.560  0.2988 -1.1046 -0.1544
18918TIP3    H278170   2.608   6.110  14.674 -1.9303 -1.4213 -1.6964
18919TIP3   OH278171   5.780   3.767   5.654  0.4655 -0.0589 -0.3231
18919TIP3    H178172   5.749   3.716   5.580 -1.6442  0.2885  0.2790
18919TIP3    H278173   5.779   3.858   5.622  3.0079 -0.2272 -0.9917
18920TIP3   OH278174   4.047   2.446   0.766  0.1156 -0.2431  0.0443
18920TIP3    H178175   4.087   2.405   0.689  2.9468  0.8658  0.8864
18920TIP3    H278176   4.076   2.393   0.840  0.1020  0.6470  0.6927
18921TIP3   OH278177   6.427   6.455  13.021  0.3312  0.0103  0.0802
18921TIP3    H178178   6.338   6.421  13.024 -0.0124  0.9186  0.3981
18921TIP3    H278179   6.454   6.443  12.930 -0.5769  0.8704 -0.3117
18922TIP3   OH278180   2.463   3.737   5.493 -0.0838 -0.2271 -0.4114
18922TIP3    H178181   2.396   3.784   5.543  1.0084 -0.0755  0.9401
18922TIP3    H278182   2.416   3.663   5.455 -0.9478 -0.3296  0.8162
18923TIP3   OH278183   5.785   1.995  11.506  0.5769  0.1550 -0.3227
18923TIP3    H178184   5.800   1.901  11.497  0.2461 -0.1381  1.9501
18923TIP3    H278185   5.870   2.035  11.488  0.6454 -0.5381 -1.5960
18924TIP3   OH278186   6.050   5.265  16.864 -0.4733  0.0329  0.3513
18924TIP3    H178187   5.996   5.192  16.897  1.3655 -1.3152  0.4393
18924TIP3    H278188   6.044   5.331  16.933 -1.7669 -0.2165  0.5024
18925TIP3   OH278189   3.979   1.255  15.592  0.5078 -0.0101  0.1473
18925TIP3    H178190   3.938   1.287  15.672  0.0024 -0.6070  0.1319
18925TIP3    H278191   3.908   1.215  15.543  0.7664  0.5748 -0.7217
18926TIP3   OH278192   6.240   3.498  12.893  0.0669 -0.5207  0.1683
18926TIP3    H178193   6.208   3.559  12.826  1.5214  0.8185  0.6658
18926TIP3    H278194   6.161   3.461  12.932 -0.8095 -0.6213 -1.6445
18927TIP3   OH278195   0.790   5.101   4.453 -0.3246  0.4470 -0.8528
18927TIP3    H178196   0.839   5.180   4.474  0.1710 -0.3963  1.3715
18927TIP3    H278197   0.857   5.033   4.441 -0.8512 -0.3767  0.7140
18928TIP3   OH278198   4.558   1.114  17.131 -0.8963 -0.5180 -0.5933
18928TIP3    H178199   4.585   1.070  17.051  0.1627  0.8046 -0.9848
18928TIP3    H278200   4.597   1.062  17.202 -0.0864 -0.5040 -1.0250
18929TIP3   OH278201   6.469   6.575  15.064 -0.2374  0.3308 -0.2224
18929TIP3    H178202   6.528   6.501  15.080 -1.9610 -1.0427 -0.1236
18929TIP3    H278203   6.422   6.587  15.146  0.4689  1.9881 -0.0207
18930TIP3   OH278204   1.922   4.706  12.285 -0.0478  0.3656 -0.1693
18930TIP3    H178205   1.896   4.649  12.212  0.3705 -0.3905  0.2738
18930TIP3    H278206   1.839   4.742  12.317 -0.4968 -1.3392  0.6530
18931TIP3   OH278207   1.217   2.228   1.911  0.8246 -0.0817  0.7192
18931TIP3    H178208   1.305   2.206   1.940  0.9879 -2.2233 -1.2785
18931TIP3    H278209   1.181   2.146   1.879 -1.2599  1.1313 -0.1530
18932TIP3   OH278210   4.444   5.761   0.213  0.1643 -0.1260  0.4405
18932TIP3    H178211   4.498   5.777   0.291  2.7326 -2.2082 -0.8379
18932TIP3    H278212   4.393   5.683   0.235  2.6171 -2.1275 -0.7578
18933TIP3   OH278213   1.886   3.425  12.347  0.4541  0.0055 -0.3686
18933TIP3    H178214   1.841   3.373  12.280 -1.9675  1.2058  0.2892
18933TIP3    H278215   1.827   3.498  12.364  0.5586 -0.7736  3.7336
18934TIP3   OH278216   6.726   6.131  16.486  0.3927  0.6783  0.3010
18934TIP3    H178217   6.717   6.038  16.467 -0.5520  0.9552 -0.6921
18934TIP3    H278218   6.790   6.162  16.421 -0.3153  0.9803 -0.2558
18935TIP3   OH278219   0.210   0.731   2.979  0.2540  0.3348  0.1006
18935TIP3    H178220   0.118   0.754   2.994  0.0508  0.1113 -0.7847
18935TIP3    H278221   0.214   0.636   2.991  0.2118  0.2380 -0.6229
18936TIP3   OH278222   2.971   5.911   3.750 -0.2325 -0.5124 -0.5588
18936TIP3    H178223   3.048   5.941   3.701  0.5925 -0.2341  0.8633
18936TIP3    H278224   2.994   5.929   3.841 -0.6837 -3.3975  0.1383
18937TIP3   OH278225   0.085   0.650   1.084 -0.4788 -0.1526 -0.0587
18937TIP3    H178226   0.102   0.559   1.109 -1.4610 -0.0176  1.2196
18937TIP3    H278227   0.171   0.691   1.082 -0.2389 -0.4548  2.1311
18938TIP3   OH278228   4.421   0.848  17.230 -0.0043  0.2850  0.6763
18938TIP3    H178229   4.492   0.841  17.167  0.1884 -2.3741  1.1458
18938TIP3    H278230   4.353   0.898  17.185  0.8710  0.0192 -0.9587
18939TIP3   OH278231   2.522   6.456   1.601 -0.0529 -0.5355  0.2786
18939TIP3    H178232   2.492   6.521   1.665  0.1392  0.4228 -0.5872
18939TIP3    H278233   2.446   6.399   1.587 -0.4502 -0.0654  0.5050
18940TIP3   OH278234   1.342   4.902   2.414 -0.0883  0.0981 -0.5919
18940TIP3    H178235   1.260   4.858   2.392  0.2423 -0.5860 -0.4637
18940TIP3    H278236   1.316   4.971   2.476 -0.9051  1.5211 -2.4709
18941TIP3   OH278237   3.527   6.304   3.544  0.0254  0.1345  0.1668
18941TIP3    H178238   3.557   6.218   3.575  0.6524 -0.3092 -1.6239
18941TIP3    H278239   3.603   6.361   3.555 -0.5514  0.6208  1.8579
18942TIP3   OH278240   4.268   3.328  13.586 -0.0855 -0.8274 -0.4281
18942TIP3    H178241   4.353   3.299  13.618  0.4292  0.8263 -0.2469
18942TIP3    H278242   4.205   3.282  13.641  0.7437 -0.3234  0.9661
18943TIP3   OH278243   6.601   1.321  16.547 -0.2213 -0.8559  0.2541
18943TIP3    H178244   6.668   1.254  16.529  1.0185  0.7681 -1.3032
18943TIP3    H278245   6.650   1.394  16.585 -1.2422 -0.0233 -0.0220
18944TIP3   OH278246   6.768   1.796   6.013  0.0344 -0.3043  0.0793
18944TIP3    H178247   6.697   1.860   6.013 -0.5501 -0.9424  0.0719
18944TIP3    H278248   6.726   1.714   6.040  0.6819 -0.7776 -0.3376
18945TIP3   OH278249   2.638   6.537  11.264  0.1704 -0.0275 -0.3952
18945TIP3    H178250   2.599   6.594  11.197  1.4147  0.1845 -0.9544
18945TIP3    H278251   2.631   6.588  11.345  0.2681  0.4537 -0.6868
18946TIP3   OH278252   3.607   0.882   3.895  0.0450  0.1309 -0.3293
18946TIP3    H178253   3.587   0.790   3.873  1.3692 -0.2350 -0.0553
18946TIP3    H278254   3.584   0.890   3.987 -2.8501  0.8913 -1.0943
18947TIP3   OH278255   6.220   2.882  16.123  0.0260 -0.2715 -0.8558
18947TIP3    H178256   6.213   2.787  16.120  1.7938 -0.4143 -0.9911
18947TIP3    H278257   6.286   2.899  16.191 -0.0594  0.8418 -1.0427
18948TIP3   OH278258   4.897   5.531  11.468 -0.8291  0.4321 -0.3753
18948TIP3    H178259   4.988   5.504  11.469 -1.2422 -1.0557  2.3533
18948TIP3    H278260   4.900   5.626  11.475  0.5271  0.4588 -1.2553
18949TIP3   OH278261   3.829   0.074  15.850 -0.9356  0.3377 -0.3895
18949TIP3    H178262   3.862   0.008  15.789 -0.3160  2.4046 -2.3692
18949TIP3    H278263   3.762   0.028  15.901  0.6426 -2.2444 -0.5539
18950TIP3   OH278264   5.691   5.129   1.878  0.1560 -0.0691 -0.0932
18950TIP3    H178265   5.773   5.116   1.926 -0.2733  0.4940  0.8046
18950TIP3    H278266   5.714   5.112   1.787  0.5147 -3.3850  0.5374
18951TIP3   OH278267   1.433   4.797   1.483  0.0198  0.6081 -0.2285
18951TIP3    H178268   1.377   4.856   1.432  0.5995  2.1261  0.8423
18951TIP3    H278269   1.450   4.723   1.425 -1.1214  1.2668 -1.4317
18952TIP3   OH278270   3.708   0.200  12.171  0.0713 -1.1882  0.4592
18952TIP3    H178271   3.729   0.236  12.258 -0.5978 -0.4134  0.3089
18952TIP3    H278272   3.744   0.265  12.110 -0.7226 -1.0033  0.1802
18953TIP3   OH278273   3.394   0.213   2.281  0.3035 -0.5950 -0.4773
18953TIP3    H178274   3.425   0.296   2.244  1.4851 -1.1603 -0.7493
18953TIP3    H278275   3.370   0.160   2.205 -2.0328  0.0815 -0.2641
18954TIP3   OH278276   1.324   1.899   2.979  0.3178  0.4144  0.6246
18954TIP3    H178277   1.232   1.895   2.953  1.4622  0.5815 -3.8277
18954TIP3    H278278   1.343   1.992   2.985  1.0386  0.4471 -1.8609
18955TIP3   OH278279   6.276   5.788  16.804  0.2796 -0.3065 -0.0396
18955TIP3    H178280   6.350   5.728  16.814 -0.6871 -1.4060  0.5448
18955TIP3    H278281   6.289   5.854  16.872 -0.0671 -1.3128  0.9999
18956TIP3   OH278282   5.751   6.740  16.597 -0.6876  0.2752 -0.5097
18956TIP3    H178283   5.754   6.652  16.635  1.1407  0.2352 -0.7019
18956TIP3    H278284   5.659   6.755  16.578 -1.1545 -1.1548  0.5744
18957TIP3   OH278285   5.369   0.341  13.232  1.3422  0.0294 -0.3234
18957TIP3    H178286   5.362   0.314  13.140  0.1292 -0.7693 -0.0001
18957TIP3    H278287   5.411   0.268  13.276  1.5425  0.2412 -0.1598
18958TIP3   OH278288   6.229   4.674  12.874 -0.4981 -0.5932 -0.1487
18958TIP3    H178289   6.239   4.607  12.942 -1.6715 -1.1440 -0.5032
18958TIP3    H278290   6.255   4.756  12.917  0.9093 -1.2555  0.2988
18959TIP3   OH278291   4.772   5.912   4.255 -0.7723  0.0722 -0.0978
18959TIP3    H178292   4.810   5.825   4.251  0.0019  0.4105 -0.2457
18959TIP3    H278293   4.839   5.966   4.297 -2.3302  0.0181  2.6307
18960TIP3   OH278294   2.063   2.951  11.082  0.1234 -0.0303 -0.1103
18960TIP3    H178295   2.067   2.925  10.990  1.4263 -0.3090  0.0145
18960TIP3    H278296   2.142   2.912  11.121 -0.6229 -0.2482  1.2044
18961TIP3   OH278297   5.216   5.346  16.707 -0.7502  0.6225 -0.0300
18961TIP3    H178298   5.160   5.389  16.772  1.6059  1.4562  1.4865
18961TIP3    H278299   5.248   5.417  16.652 -0.9258  0.1809 -0.7065
18962TIP3   OH278300   1.383   5.627  17.068  0.5807 -0.0951 -0.5016
18962TIP3    H178301   1.448   5.696  17.060  1.7359 -1.1654 -0.4185
18962TIP3    H278302   1.374   5.592  16.980 -0.0874  0.2213 -0.5654
18963TIP3   OH278303   4.647   6.431   1.752  0.6420 -0.1078 -0.2076
18963TIP3    H178304   4.716   6.413   1.816  1.5251  0.3864 -1.0070
18963TIP3    H278305   4.621   6.344   1.721 -0.5232 -0.4163  1.5570
18964TIP3   OH278306   2.708   5.930  10.622 -0.4342  0.3963 -0.3151
18964TIP3    H178307   2.732   6.019  10.648 -1.2236  0.9414 -1.3781
18964TIP3    H278308   2.759   5.873  10.679  1.1911  1.5336 -0.6038
18965TIP3   OH278309   6.715   2.213   4.096  0.3042  0.7174  0.4358
18965TIP3    H178310   6.778   2.144   4.080 -0.3631  0.6486 -2.0167
18965TIP3    H278311   6.638   2.168   4.132  0.5399  0.4258  0.5748
18966TIP3   OH278312   2.953   0.078  12.226  0.4406  0.4448 -0.4937
18966TIP3    H178313   3.016   0.145  12.251 -0.2672  0.7622  0.4510
18966TIP3    H278314   3.006   0.001  12.208  1.2003  1.0508 -0.9026
18967TIP3   OH278315   1.279   0.420  16.063  0.2062  0.0274 -0.2034
18967TIP3    H178316   1.343   0.441  15.995  0.1081 -1.5898 -0.8184
18967TIP3    H278317   1.321   0.444  16.145  0.8405  0.7696 -0.7440
18968TIP3   OH278318   1.840   4.719  15.452 -0.3678  0.1456 -0.3515
18968TIP3    H178319   1.748   4.697  15.437 -0.8363  0.8124  1.3586
18968TIP3    H278320   1.884   4.634  15.459 -0.8062 -0.1764 -1.3539
18969TIP3   OH278321   5.947   5.722   0.357 -0.1082 -0.9992 -0.6640
18969TIP3    H178322   5.939   5.738   0.262 -0.9861 -0.9409 -0.5929
18969TIP3    H278323   5.979   5.804   0.392  2.0035 -1.6062 -1.1310
18970TIP3   OH278324   0.141   0.027   5.982  0.7361  0.3463 -0.0068
18970TIP3    H178325   0.194   0.026   6.062  0.6053  0.3342  0.0795
18970TIP3    H278326   0.052   0.047   6.012  0.4652 -0.7800 -0.0149
18971TIP3   OH278327   5.452   1.609  10.884  0.2654  0.3118 -0.1290
18971TIP3    H178328   5.409   1.660  10.816 -0.0407  1.6262  1.0442
18971TIP3    H278329   5.502   1.543  10.836 -3.8424 -1.9380 -1.4845
18972TIP3   OH278330   4.993   3.591  16.765 -0.8263  0.1620 -0.4878
18972TIP3    H178331   5.033   3.597  16.852 -0.1605  2.8267 -0.9276
18972TIP3    H278332   4.903   3.623  16.778 -1.0083 -0.2985 -0.6123
18973TIP3   OH278333   4.955   6.649  16.577  0.0182  0.4033 -0.1708
18973TIP3    H178334   4.879   6.675  16.526 -0.2610  0.2279  0.1532
18973TIP3    H278335   5.017   6.720  16.565 -0.2445  0.6093 -0.3332
18974TIP3   OH278336   5.184   4.206   6.213  0.2447  0.5003  0.0548
18974TIP3    H178337   5.171   4.196   6.118  0.0442 -0.7722  0.2170
18974TIP3    H278338   5.257   4.268   6.220  1.4032 -0.7227 -0.9473
18975TIP3   OH278339   5.487   0.192  13.949 -0.1093  0.7531 -0.6842
18975TIP3    H178340   5.455   0.195  13.859 -2.5268  1.8419  0.1728
18975TIP3    H278341   5.439   0.121  13.989  0.5372  0.6484 -0.0861
18976TIP3   OH278342   0.230   6.786   3.800  0.2882 -0.1380  0.0518
18976TIP3    H178343   0.242   6.849   3.872  1.3833  1.0227 -1.1214
18976TIP3    H278344   0.137   6.796   3.776 -0.3415 -1.2448  1.9313
18977TIP3   OH278345   3.664   0.297   6.035 -0.4478  0.5855  0.0361
18977TIP3    H178346   3.608   0.221   6.020  0.7505 -0.4345  0.6585
18977TIP3    H278347   3.604   0.371   6.039 -1.5197 -0.1362 -1.9315
18978TIP3   OH278348   5.685   5.690  16.899  0.0511 -0.1230 -0.4012
18978TIP3    H178349   5.781   5.682  16.899  0.0295 -0.3678 -0.9216
18978TIP3    H278350   5.655   5.617  16.953  0.0696 -1.1106 -1.7145
18979TIP3   OH278351   1.763   1.658   0.122 -0.1688  0.4376  0.4963
18979TIP3    H178352   1.816   1.702   0.056 -0.6601  2.4131  1.3817
18979TIP3    H278353   1.767   1.565   0.099  2.5340  0.7101 -0.2446
18980TIP3   OH278354   1.756   6.296  12.190  0.0295 -0.3106  0.1908
18980TIP3    H178355   1.698   6.283  12.115 -0.0604 -0.2174  0.2439
18980TIP3    H278356   1.816   6.366  12.162  0.6083 -0.9364 -0.1563
18981TIP3   OH278357   4.317   1.941  15.816  0.3345  0.6653  0.1258
18981TIP3    H178358   4.366   1.937  15.898 -0.5754 -1.4438  0.6142
18981TIP3    H278359   4.374   1.901  15.751  0.1288  0.1525  0.2525
18982TIP3   OH278360   1.720   2.421   1.850 -0.9187  0.4522  0.3616
18982TIP3    H178361   1.814   2.435   1.837 -1.2566  0.7674 -1.9628
18982TIP3    H278362   1.678   2.495   1.807 -2.2899 -0.9164 -0.7369
18983TIP3   OH278363   1.148   1.342  13.486  0.1204  0.1037  0.1349
18983TIP3    H178364   1.149   1.315  13.578 -0.1555 -0.8841 -0.1449
18983TIP3    H278365   1.188   1.268  13.439 -0.1685  0.4066 -0.5851
18984TIP3   OH278366   0.649   0.724   5.184  0.5516  0.9236  0.6669
18984TIP3    H178367   0.639   0.633   5.211 -1.0359  0.9443  0.1784
18984TIP3    H278368   0.644   0.774   5.265  0.4336  0.6558  0.8261
18985TIP3   OH278369   0.077   1.783   4.750 -0.0130  0.5494 -0.1798
18985TIP3    H178370   0.027   1.863   4.734 -1.3559 -0.6316 -2.1024
18985TIP3    H278371   0.131   1.772   4.672  0.1403 -0.4213  0.0552
18986TIP3   OH278372   2.693   1.267   2.255  0.3714  0.4328 -0.2535
18986TIP3    H178373   2.611   1.291   2.212 -1.2668 -0.4900  2.2096
18986TIP3    H278374   2.704   1.174   2.236  1.1221  0.6724 -1.0035
18987TIP3   OH278375   6.327   1.283   0.013  0.9420  0.9003 -0.2203
18987TIP3    H178376   6.298   1.354   0.071  1.9778  1.4731 -0.4007
18987TIP3    H278377   6.420   1.299  -0.000  0.9884  0.0213 -1.0039
18988TIP3   OH278378   6.193   4.805   3.651 -0.0977  0.1362  0.6118
18988TIP3    H178379   6.249   4.874   3.616  1.2973 -0.7549  1.0441
18988TIP3    H278380   6.105   4.841   3.648  0.6167  1.9166  0.7850
18989TIP3   OH278381   4.582   6.241  15.242 -0.3370 -0.1292 -0.2291
18989TIP3    H178382   4.580   6.288  15.158  1.5201 -1.1326 -0.8727
18989TIP3    H278383   4.567   6.309  15.308  0.1185  1.0056 -1.2756
18990TIP3   OH278384   1.971   6.265   3.517 -0.8518  0.2668  0.4036
18990TIP3    H178385   2.021   6.184   3.514 -0.9553  0.2508 -1.8110
18990TIP3    H278386   2.034   6.331   3.546 -0.0522 -0.1316 -0.3862
18991TIP3   OH278387   6.136   2.519   2.400 -0.2149 -0.2571  0.5518
18991TIP3    H178388   6.193   2.449   2.432 -0.2829 -1.6407 -2.1934
18991TIP3    H278389   6.047   2.487   2.415 -0.2574 -1.3120 -1.6816
18992TIP3   OH278390   3.401   5.921  16.069  0.5365 -0.1034 -0.3086
18992TIP3    H178391   3.364   5.835  16.048  1.9661 -1.0948  1.0456
18992TIP3    H278392   3.340   5.984  16.032 -0.7160 -1.7157 -1.0265
18993TIP3   OH278393   6.211   4.002  12.201 -0.0193  0.1596  0.3005
18993TIP3    H178394   6.272   3.987  12.273  2.3908 -0.0978 -1.7194
18993TIP3    H278395   6.259   4.056  12.140 -1.1672 -1.5218 -2.1938
18994TIP3   OH278396   4.656   2.689  12.842 -0.1544  0.3873  0.5613
18994TIP3    H178397   4.660   2.696  12.747 -1.1956  1.3109  0.5822
18994TIP3    H278398   4.748   2.693  12.870  0.1827 -0.2257 -0.4152
18995TIP3   OH278399   4.118   2.731   2.482  0.3839  0.5088  0.0726
18995TIP3    H178400   4.106   2.748   2.388  0.2076 -0.2719 -0.0506
18995TIP3    H278401   4.138   2.817   2.520 -1.1282  1.1068 -0.4354
18996TIP3   OH278402   3.319   6.561   1.302 -0.5925  0.8333  0.2949
18996TIP3    H178403   3.283   6.510   1.230  0.5274 -0.2115  0.4400
18996TIP3    H278404   3.345   6.495   1.367  3.1304  1.3554 -0.5272
18997TIP3   OH278405   3.708   4.244  13.284 -0.3897 -0.2663 -0.0765
18997TIP3    H178406   3.797   4.247  13.249  0.0255 -1.2604  0.8596
18997TIP3    H278407   3.655   4.289  13.219  0.9516  1.1898 -0.2060
18998TIP3   OH278408   4.663   0.343   5.047  0.2345  0.1137 -0.5609
18998TIP3    H178409   4.734   0.313   4.990  0.0349  0.1922 -0.8516
18998TIP3    H278410   4.638   0.265   5.098  0.5587  0.0986 -0.4247
18999TIP3   OH278411   0.307   2.203  13.909 -0.1846 -0.0478  0.0137
18999TIP3    H178412   0.326   2.228  13.818 -0.4234  1.0158  0.2503
18999TIP3    H278413   0.383   2.152  13.936 -1.0019 -2.0366 -1.4106
19000TIP3   OH278414   2.096   3.296  13.651  0.0566  0.1267  0.2361
19000TIP3    H178415   2.019   3.302  13.708 -0.5412  1.9090 -0.7385
19000TIP3    H278416   2.170   3.315  13.709 -0.4869  1.2081  0.5776
19001TIP3   OH278417   0.092   1.935   4.178 -0.7184  0.1602 -0.1333
19001TIP3    H178418   0.129   1.990   4.110  0.5410  1.0509  1.2234
19001TIP3    H278419   0.092   1.847   4.141  1.8181  0.3097 -0.5830
19002TIP3   OH278420   3.939   5.343   3.912 -0.3320  0.0529 -0.3423
19002TIP3    H178421   3.985   5.310   3.989  0.4414  1.5622 -0.1296
19002TIP3    H278422   4.007   5.387   3.861 -0.9870 -0.2486 -1.5078
19003TIP3   OH278423   4.846   1.991  14.907  0.2122 -0.2289  0.2122
19003TIP3    H178424   4.893   2.004  14.824 -0.9346  0.1882 -0.3756
19003TIP3    H278425   4.862   1.899  14.929  0.6637 -0.3007 -0.3765
19004TIP3   OH278426   3.787   0.441   1.113  0.0661  0.0026  0.7068
19004TIP3    H178427   3.694   0.463   1.112  0.0058 -0.1771 -2.7395
19004TIP3    H278428   3.831   0.522   1.137 -0.9232  0.3583  1.3332
19005TIP3   OH278429   0.878   0.466  10.625 -0.1191 -0.0960  0.3107
19005TIP3    H178430   0.912   0.403  10.689 -0.2050  0.8803  1.3218
19005TIP3    H278431   0.826   0.412  10.564  1.1036 -1.2272  0.2412
19006TIP3   OH278432   4.882   6.682   4.243  0.0681 -0.3436 -0.2821
19006TIP3    H178433   4.839   6.663   4.160  0.9169  1.4587 -1.1528
19006TIP3    H278434   4.911   6.772   4.236  0.0256 -0.1020  2.0442
19007TIP3   OH278435   3.781   1.376  11.909  0.4067 -0.2429 -0.4168
19007TIP3    H178436   3.868   1.414  11.913  0.1487  0.2166  1.1525
19007TIP3    H278437   3.724   1.450  11.888  0.3403 -0.4838 -1.1196
19008TIP3   OH278438   2.983   6.123  14.980  0.0208 -0.3435  0.0248
19008TIP3    H178439   3.033   6.192  14.938  1.4099 -1.3268  0.0418
19008TIP3    H278440   3.022   6.114  15.067 -1.5507  0.3123  0.8301
19009TIP3   OH278441   3.554   6.388  12.868  0.0353 -0.0112  0.1881
19009TIP3    H178442   3.483   6.409  12.928 -0.5858 -0.7976 -0.2651
19009TIP3    H278443   3.592   6.308  12.903  1.2375  0.8525  0.8934
19010TIP3   OH278444   3.309   0.659  16.899 -0.0118  0.4603 -0.2665
19010TIP3    H178445   3.354   0.731  16.855 -0.4360  2.0598  1.8514
19010TIP3    H278446   3.216   0.681  16.893 -0.0451  0.9715  1.8435
19011TIP3   OH278447   0.731   5.308  14.201  0.1297  0.2648  0.0404
19011TIP3    H178448   0.777   5.380  14.242  3.2645 -1.1022 -0.9635
19011TIP3    H278449   0.759   5.310  14.109 -1.7499 -0.6749 -0.5993
19012TIP3   OH278450   0.704   2.355   2.108  0.3881  0.2517 -0.2499
19012TIP3    H178451   0.771   2.312   2.055  0.4755 -0.5755  0.5058
19012TIP3    H278452   0.658   2.412   2.048  2.3268  1.4889 -0.6217
19013TIP3   OH278453   0.148   3.675   0.184 -0.6338  0.1389  0.1553
19013TIP3    H178454   0.210   3.629   0.126 -1.3853  0.7238 -1.1491
19013TIP3    H278455   0.194   3.756   0.208  0.4101 -0.9456  1.8836
19014TIP3   OH278456   0.256   4.364   3.259 -0.1834  0.0463 -0.1835
19014TIP3    H178457   0.337   4.347   3.306 -1.1747 -0.2408  1.4534
19014TIP3    H278458   0.264   4.455   3.229 -0.2180  0.8074  1.9892
19015TIP3   OH278459   2.103   1.102  14.116 -0.2703  0.4146 -0.6709
19015TIP3    H178460   2.188   1.128  14.151 -1.3499  0.2542  2.2099
19015TIP3    H278461   2.107   1.007  14.112 -0.1685  0.4297 -0.9428
19016TIP3   OH278462   1.991   3.523  13.337  0.0121 -0.0157 -0.2617
19016TIP3    H178463   2.009   3.577  13.260  2.4759 -0.8926 -0.3340
19016TIP3    H278464   2.003   3.582  13.411  1.6280 -0.1700 -0.3876
19017TIP3   OH278465   5.373   0.061   0.098  0.3134  0.2119  0.1439
19017TIP3    H178466   5.305  -0.005   0.112  1.2214 -0.8297 -0.2536
19017TIP3    H278467   5.434   0.019   0.038  2.8345 -0.0215  2.7526
19018TIP3   OH278468   5.325   6.012  16.688  0.2234 -0.0121 -0.3861
19018TIP3    H178469   5.272   6.064  16.748 -1.9738 -2.1064 -0.4362
19018TIP3    H278470   5.365   5.945  16.743  1.2858  0.3808 -0.6652
19019TIP3   OH278471   2.311   5.423   5.571 -0.8359  0.5251 -0.1927
19019TIP3    H178472   2.343   5.513   5.577  0.5991 -0.1233  3.6420
19019TIP3    H278473   2.251   5.414   5.645  1.5478 -2.5516  1.4936
19020TIP3   OH278474   5.234   4.937  15.035 -0.1718  0.1581  0.4636
19020TIP3    H178475   5.213   4.862  14.980  4.0834  0.9533 -2.4764
19020TIP3    H278476   5.283   4.900  15.108 -2.2360 -0.4131  1.5992
19021TIP3   OH278477   0.225   3.470   3.943 -0.3720  0.3609 -0.4119
19021TIP3    H178478   0.194   3.557   3.918  1.1614  1.5886  1.7322
19021TIP3    H278479   0.317   3.468   3.917  0.1342  0.1380  1.3309
19022TIP3   OH278480   1.470   2.139   0.588 -0.1508  0.3453  0.1983
19022TIP3    H178481   1.499   2.210   0.531  0.3599 -0.9533 -1.2022
19022TIP3    H278482   1.540   2.073   0.581 -0.8308 -0.4933  1.1193
19023TIP3   OH278483   0.652   5.258  15.488  0.0067  0.1894 -0.0313
19023TIP3    H178484   0.603   5.176  15.486  0.3639 -0.0783  1.4125
19023TIP3    H278485   0.744   5.231  15.494  0.1897  0.6887 -0.5296
19024TIP3   OH278486   3.223   1.158  14.668  0.5534 -0.5923 -0.6867
19024TIP3    H178487   3.277   1.169  14.747 -0.0763  0.7899 -0.4426
19024TIP3    H278488   3.164   1.233  14.668  1.3503  0.0622 -3.1471
19025TIP3   OH278489   4.370   5.444  12.977 -0.4564 -0.3269 -0.0038
19025TIP3    H178490   4.437   5.391  13.020  0.4451  0.5942 -0.2373
19025TIP3    H278491   4.384   5.532  13.013  0.6615  0.5700 -2.5198
19026TIP3   OH278492   4.845   3.380   4.522 -0.4180  0.0296 -0.2871
19026TIP3    H178493   4.885   3.349   4.441  0.1046  2.8075 -1.1266
19026TIP3    H278494   4.918   3.412   4.574 -1.0163  0.4437  0.2973
19027TIP3   OH278495   1.529   3.838   3.166 -0.2792 -0.2077 -0.4745
19027TIP3    H178496   1.607   3.787   3.148  0.5377  1.1386 -0.7607
19027TIP3    H278497   1.459   3.793   3.118  0.3055 -1.3750 -0.2575
19028TIP3   OH278498   4.914   4.030   1.538  0.2131  0.2657 -0.5841
19028TIP3    H178499   4.990   4.064   1.585  0.0884 -1.0497  0.5813
19028TIP3    H278500   4.864   3.982   1.604 -1.1526  0.3501 -1.5507
19029TIP3   OH278501   6.458   2.600   1.942  0.8443 -0.1900 -0.0607
19029TIP3    H178502   6.534   2.649   1.911  0.8528 -0.9731 -1.2898
19029TIP3    H278503   6.430   2.549   1.866 -1.7143  1.0868 -0.0052
19030TIP3   OH278504   5.629   0.986   4.699 -0.5274 -0.2039 -0.0430
19030TIP3    H178505   5.663   1.061   4.747  1.4367 -2.5463  2.3671
19030TIP3    H278506   5.556   0.955   4.752  0.2462 -1.4838  0.2858
19031TIP3   OH278507   4.249   1.587   2.489  0.7946  0.5335  0.0688
19031TIP3    H178508   4.325   1.536   2.517 -0.2635 -0.2091  1.6009
19031TIP3    H278509   4.218   1.630   2.568  1.0140  2.7235 -0.9933
19032TIP3   OH278510   3.611   4.614  15.046 -0.5243  0.6419 -0.0424
19032TIP3    H178511   3.705   4.605  15.064 -0.6620  1.4910  1.1298
19032TIP3    H278512   3.570   4.613  15.133 -1.6130  0.1902 -0.5541
19033TIP3   OH278513   4.637   2.619  11.952  0.3918 -0.4583 -0.2018
19033TIP3    H178514   4.649   2.687  12.018 -0.0907  0.0705 -0.6537
19033TIP3    H278515   4.591   2.549  11.999  0.3893 -0.2409  0.1226
19034TIP3   OH278516   1.867   0.101  15.425 -0.3316  0.3532 -1.0127
19034TIP3    H178517   1.854   0.047  15.348 -1.3345 -0.4491 -0.2956
19034TIP3    H278518   1.789   0.157  15.429 -1.0247 -0.6793  0.2641
19035TIP3   OH278519   4.939   0.526   6.102  0.2173 -0.2318 -0.3665
19035TIP3    H178520   4.872   0.468   6.138  0.4386  0.2329  0.8402
19035TIP3    H278521   4.932   0.605   6.155  1.3644  0.0174 -0.5809
19036TIP3   OH278522   2.315   2.946  14.172 -0.8729  0.2684  0.3110
19036TIP3    H178523   2.344   2.953  14.081 -2.2611 -2.0438 -0.3491
19036TIP3    H278524   2.264   3.026  14.187 -3.0460 -0.6761 -1.8580
19037TIP3   OH278525   6.725   5.904  14.972 -0.2477  0.4879  0.5452
19037TIP3    H178526   6.757   5.992  14.993 -2.2617  0.8142  2.3984
19037TIP3    H278527   6.753   5.889  14.882  0.7005  2.7660  0.4331
19038TIP3   OH278528   0.147   0.469  14.868 -0.7309  0.0359  0.6209
19038TIP3    H178529   0.081   0.535  14.846  2.3300  2.9865 -0.0272
19038TIP3    H278530   0.167   0.485  14.960  1.4474  1.3407 -0.0654
19039TIP3   OH278531   4.632   3.354  13.993  0.2711  0.3588 -0.2710
19039TIP3    H178532   4.581   3.278  13.966 -1.5842  1.5473 -0.1600
19039TIP3    H278533   4.684   3.377  13.915  1.0627 -1.1602 -0.2130
19040TIP3   OH278534   6.414   5.108   4.108 -0.4630  0.1361  0.1671
19040TIP3    H178535   6.436   5.045   4.040 -0.5096  1.7028 -1.3150
19040TIP3    H278536   6.323   5.132   4.091 -0.1007  1.4482  0.0462
19041TIP3   OH278537   2.452   3.966  15.922  0.3356 -0.3484 -0.4759
19041TIP3    H178538   2.472   3.962  15.828 -2.2800 -0.4290 -1.0738
19041TIP3    H278539   2.444   3.874  15.948 -0.3045 -0.3068 -0.5072
19042TIP3   OH278540   5.799   4.868  13.709  0.5854 -0.3053 -0.2752
19042TIP3    H178541   5.780   4.891  13.618  1.0830  1.4701  0.0565
19042TIP3    H278542   5.737   4.920  13.760  0.6255 -0.9455  0.4335
19043TIP3   OH278543   2.794   2.363   3.594 -0.0041 -0.0014 -0.0773
19043TIP3    H178544   2.805   2.269   3.610  0.7522  0.3727  1.6906
19043TIP3    H278545   2.833   2.377   3.508 -2.7521 -1.7968 -1.7254
19044TIP3   OH278546   0.379   2.156   3.256 -0.0366  0.0377 -0.1619
19044TIP3    H178547   0.390   2.073   3.209 -0.1218 -0.3525  0.5037
19044TIP3    H278548   0.306   2.199   3.212  0.2757 -0.0477 -0.7806
19045TIP3   OH278549   5.041   0.282  16.564 -0.3011  0.5522  0.0307
19045TIP3    H178550   5.102   0.319  16.628  0.2776  1.1248 -0.8325
19045TIP3    H278551   5.035   0.350  16.496 -1.6210  0.3440 -0.0597
19046TIP3   OH278552   1.881   4.696  11.494  0.2383  0.3034  0.4043
19046TIP3    H178553   1.832   4.631  11.444  0.6114 -0.9319  1.6494
19046TIP3    H278554   1.823   4.773  11.496 -1.0036 -0.6255  0.5627
19047TIP3   OH278555   5.548   6.234  12.697  0.1743 -0.1015  0.5076
19047TIP3    H178556   5.592   6.296  12.756 -0.0158 -0.6504  1.2345
19047TIP3    H278557   5.536   6.155  12.751  4.4570 -2.4349 -1.6558
19048TIP3   OH278558   4.046   6.130  14.830 -0.1821 -0.1127  0.0750
19048TIP3    H178559   4.087   6.098  14.750  0.3634 -0.6127  0.5560
19048TIP3    H278560   3.977   6.189  14.799 -1.3179 -1.8867 -0.8051
19049TIP3   OH278561   3.256   6.267   2.228 -0.2182  0.0473  0.6979
19049TIP3    H178562   3.219   6.221   2.153  1.6940 -0.8196  0.2478
19049TIP3    H278563   3.301   6.198   2.278  1.9372  1.2535  0.4920
19050TIP3   OH278564   4.931   0.827  14.745  0.2251  0.2404  0.0926
19050TIP3    H178565   4.846   0.846  14.705  0.6778  0.8885 -0.5699
19050TIP3    H278566   4.934   0.886  14.821  0.2735  0.5435 -0.1420
19051TIP3   OH278567   2.996   4.949   0.609 -1.0527 -0.1456 -0.1176
19051TIP3    H178568   3.023   4.866   0.646  0.7021  0.3046 -0.3453
19051TIP3    H278569   2.962   4.999   0.683 -0.8837 -0.5766  0.2508
19052TIP3   OH278570   5.814   5.908  16.613 -0.2460 -0.9495 -0.6328
19052TIP3    H178571   5.858   5.956  16.683  0.2221  0.4338 -1.8400
19052TIP3    H278572   5.851   5.820  16.617  0.1706 -0.7312  0.4951
19053TIP3   OH278573   6.327   5.935   5.525 -0.1242  0.2139  0.2286
19053TIP3    H178574   6.270   6.011   5.512  0.0999  0.3224 -0.1128
19053TIP3    H278575   6.409   5.958   5.481 -0.2714 -0.4796 -0.4103
19054TIP3   OH278576   0.394   2.385   0.521  0.4797 -0.4472  0.0795
19054TIP3    H178577   0.313   2.378   0.470  1.6005 -0.0839 -1.7809
19054TIP3    H278578   0.375   2.338   0.602 -0.1023 -4.4263 -2.2269
19055TIP3   OH278579   6.374   1.163  16.514 -0.4497 -0.0621 -0.4271
19055TIP3    H178580   6.381   1.080  16.560  1.9309  0.1709 -0.3200
19055TIP3    H278581   6.449   1.214  16.545 -2.5738  2.6302  0.4892
19056TIP3   OH278582   5.873   1.411   0.718  0.0582 -0.5974  0.2873
19056TIP3    H178583   5.932   1.451   0.782  1.7935  1.7043 -2.5974
19056TIP3    H278584   5.801   1.474   0.709  1.4118  0.6764 -2.2500
19057TIP3   OH278585   1.011   1.712  11.643  0.0151 -0.6017 -0.0453
19057TIP3    H178586   0.993   1.766  11.565  0.5074 -1.6327 -0.8880
19057TIP3    H278587   1.008   1.774  11.716  1.4017  0.7324 -1.0793
19058TIP3   OH278588   0.133   0.747   0.605 -0.7990  0.4622 -0.0170
19058TIP3    H178589   0.156   0.818   0.664  0.9387  0.0550 -0.1752
19058TIP3    H278590   0.082   0.686   0.659 -0.6810  0.9153  0.6106
19059TIP3   OH278591   1.563   5.210  12.908  0.1720  0.1888  0.1035
19059TIP3    H178592   1.498   5.154  12.950  0.0120  0.9920  0.9444
19059TIP3    H278593   1.617   5.241  12.981  0.2445  1.1389 -0.3619
19060TIP3   OH278594   2.921   5.226  14.691 -0.0870  0.1354  0.0942
19060TIP3    H178595   2.932   5.262  14.603 -0.2690  0.1233  0.0667
19060TIP3    H278596   3.003   5.179  14.709  0.1299  0.5162  0.1095
19061TIP3   OH278597   2.661   5.162   2.046 -0.3089  0.1883  0.4362
19061TIP3    H178598   2.697   5.205   1.969  0.7488 -1.7739 -0.2144
19061TIP3    H278599   2.704   5.205   2.120  0.6851  0.3115 -0.1984
19062TIP3   OH278600   6.062   0.046  15.338 -0.3151  0.4328 -0.2778
19062TIP3    H178601   5.979   0.082  15.369  0.9033  1.4621  1.9619
19062TIP3    H278602   6.100   0.004  15.416  0.9123 -0.7174 -1.4653
19063TIP3   OH278603   6.075   1.452   1.285  0.2236 -0.1387  0.2895
19063TIP3    H178604   6.103   1.542   1.269 -1.4013  0.2839 -0.3516
19063TIP3    H278605   6.118   1.401   1.216 -0.2910  0.4462 -0.4821
19064TIP3   OH278606   0.783   6.193   5.176  0.1256 -0.6751  0.7355
19064TIP3    H178607   0.744   6.213   5.261 -1.0612  0.6940 -0.1152
19064TIP3    H278608   0.827   6.275   5.151  2.2845 -1.7153  0.9787
19065TIP3   OH278609   1.561   2.336   1.336 -0.1645  0.0341  0.0361
19065TIP3    H178610   1.600   2.400   1.276  0.0608 -0.0222  0.1239
19065TIP3    H278611   1.624   2.328   1.407 -0.5042  0.2156  0.3602
19066TIP3   OH278612   6.009   0.711  15.978  0.1508  0.0044  0.2743
19066TIP3    H178613   5.961   0.788  15.946  1.3783  0.9395  0.6622
19066TIP3    H278614   5.940   0.648  15.999 -0.8559  0.8484 -0.4165
19067TIP3   OH278615   2.621   3.272   4.707  0.3408  0.2578 -0.1061
19067TIP3    H178616   2.571   3.191   4.696  0.4895  0.4203 -2.1292
19067TIP3    H278617   2.712   3.246   4.692  0.4962  0.6356  0.1617
19068TIP3   OH278618   6.670   0.540   2.850 -0.1352  0.5381  0.7278
19068TIP3    H178619   6.652   0.633   2.865 -1.1834  0.2833  1.0980
19068TIP3    H278620   6.606   0.494   2.904 -0.8469 -0.4029 -0.8865
19069TIP3   OH278621   0.132   4.533  12.227  0.3258  0.4478 -0.2971
19069TIP3    H178622   0.207   4.584  12.196  0.9177 -0.5031 -0.4275
19069TIP3    H278623   0.067   4.539  12.157  0.8534  0.0356 -0.8164
19070TIP3   OH278624   1.081   5.971   4.968 -0.3580 -0.2585  0.3419
19070TIP3    H178625   1.112   6.045   5.019 -0.3642 -0.6110  0.8637
19070TIP3    H278626   0.996   5.998   4.934 -0.4828 -0.1300  0.7571
19071TIP3   OH278627   4.834   0.511   3.917 -0.0092 -0.2761  0.2156
19071TIP3    H178628   4.885   0.575   3.967 -0.2739  1.1720 -1.2940
19071TIP3    H278629   4.750   0.555   3.901  0.6618  0.0172 -2.8979
19072TIP3   OH278630   5.913   0.610  16.327  0.1639 -0.7788  0.3304
19072TIP3    H178631   5.818   0.614  16.330  0.0335 -2.2394 -0.8966
19072TIP3    H278632   5.933   0.516  16.333  1.6977 -0.3031  4.0501
19073TIP3   OH278633   5.339   5.770   0.919 -0.0326  0.0883  0.6570
19073TIP3    H178634   5.282   5.834   0.876 -0.8998 -0.4838  0.9475
19073TIP3    H278635   5.291   5.744   0.997  0.2656 -0.9999  0.4799
19074TIP3   OH278636   2.447   0.911  14.235 -0.2609  0.0823 -0.0912
19074TIP3    H178637   2.420   0.954  14.153  0.0625 -1.4367 -1.0045
19074TIP3    H278638   2.364   0.893  14.280 -0.4677  0.5146 -0.2916
19075TIP3   OH278639   1.305   0.874  12.023  0.4758 -0.0511 -0.1118
19075TIP3    H178640   1.237   0.925  12.066  0.7399  0.9014 -0.8021
19075TIP3    H278641   1.382   0.932  12.022  0.8386 -0.5363 -0.7214
19076TIP3   OH278642   0.709   3.606  16.194  0.2917 -0.0856  0.8044
19076TIP3    H178643   0.756   3.600  16.277 -0.8582  1.6314  1.6046
19076TIP3    H278644   0.766   3.659  16.138  0.6759 -0.5405  0.7531
19077TIP3   OH278645   5.934   0.405   4.067  0.3484 -0.1522 -0.0497
19077TIP3    H178646   5.951   0.386   3.975 -1.4735 -0.6308 -0.3118
19077TIP3    H278647   5.886   0.488   4.066  0.3480 -0.1424  0.4710
19078TIP3   OH278648   5.578   0.446  17.176 -0.1172 -0.0256 -0.0761
19078TIP3    H178649   5.509   0.379  17.169 -0.2047  0.1090 -0.5673
19078TIP3    H278650   5.656   0.398  17.202 -0.2891 -0.2505  0.0271
19079TIP3   OH278651   4.609   5.388  11.441  0.0330 -0.0301  0.1642
19079TIP3    H178652   4.576   5.319  11.384 -0.7063 -0.8112  1.5141
19079TIP3    H278653   4.665   5.342  11.504  1.5121  0.9248 -0.4362
19080TIP3   OH278654   6.701   6.124   0.052  0.5281 -0.2065  0.4686
19080TIP3    H178655   6.722   6.044   0.100 -1.6053  0.2528  2.2964
19080TIP3    H278656   6.758   6.191   0.089  0.8733 -0.4593  0.3856
19081TIP3   OH278657   5.067   4.258  11.714  0.3685 -0.5508  0.0843
19081TIP3    H178658   5.043   4.210  11.793  0.5155  0.5820  0.8196
19081TIP3    H278659   5.006   4.226  11.647  0.0517 -1.2926  0.7196
19082TIP3   OH278660   3.102   5.798   3.173 -0.3409 -0.1203  0.6946
19082TIP3    H178661   3.138   5.883   3.198  1.3858 -0.2800 -1.1431
19082TIP3    H278662   3.150   5.773   3.094 -2.8361 -1.4735 -0.4666
19083TIP3   OH278663   5.631   1.634   2.755 -0.2438 -0.1852 -0.1098
19083TIP3    H178664   5.715   1.674   2.779 -0.6728  1.1540 -0.7924
19083TIP3    H278665   5.581   1.633   2.836  0.0975 -0.1328  0.1024
19084TIP3   OH278666   1.447   0.099   5.170 -0.7557  0.2194  0.5681
19084TIP3    H178667   1.411   0.133   5.088 -2.2072 -1.8872  0.2692
19084TIP3    H278668   1.539   0.124   5.169 -0.2922 -1.3049 -2.6005
19085TIP3   OH278669   3.918   4.821   2.168 -0.0885  0.0563  0.1054
19085TIP3    H178670   3.822   4.825   2.162 -0.1582 -0.1031  1.0338
19085TIP3    H278671   3.944   4.908   2.199 -0.1748 -0.8334  2.7427
19086TIP3   OH278672   5.426   4.350   1.672 -0.1597 -0.2804  0.3701
19086TIP3    H178673   5.511   4.391   1.690 -1.0464  1.6561  0.3362
19086TIP3    H278674   5.365   4.398   1.728 -0.9065 -3.2656  2.2531
19087TIP3   OH278675   4.930   1.891  15.764  0.3939 -0.2488 -0.1915
19087TIP3    H178676   5.018   1.928  15.764 -0.1920  1.1839  1.4049
19087TIP3    H278677   4.935   1.816  15.823  0.2915  0.4962  0.7798
19088TIP3   OH278678   0.091   5.557  11.794  0.3348 -0.0820 -0.2418
19088TIP3    H178679   0.009   5.526  11.755  0.5268 -1.5538  0.4895
19088TIP3    H278680   0.112   5.491  11.860  0.3104  2.0581  1.9729
19089TIP3   OH278681   2.783   4.327  16.742 -0.0557 -0.2103  0.6577
19089TIP3    H178682   2.755   4.415  16.716  0.6806  0.3212  1.6024
19089TIP3    H278683   2.858   4.342  16.800  0.4456 -1.4906  0.3586
19090TIP3   OH278684   6.587   0.293   0.773  0.2227 -0.3860 -0.3906
19090TIP3    H178685   6.565   0.226   0.838 -1.3391  0.8228  0.3566
19090TIP3    H278686   6.514   0.291   0.711 -1.2333  2.4708  1.1554
19091TIP3   OH278687   3.713   0.989   5.544 -0.1596 -0.3953 -0.3012
19091TIP3    H178688   3.663   1.009   5.465 -2.1834  0.5410  1.1791
19091TIP3    H278689   3.654   0.934   5.595  0.3980  0.5706  1.3999
19092TIP3   OH278690   4.227   1.774  17.171 -0.1850 -0.0195 -0.3336
19092TIP3    H178691   4.319   1.794  17.183 -0.6142  2.2011 -0.4718
19092TIP3    H278692   4.204   1.815  17.088 -1.1069 -1.2203 -0.6820
19093TIP3   OH278693   1.186   1.248  14.403  0.2188 -0.3600  0.0998
19093TIP3    H178694   1.166   1.318  14.466 -0.4650 -0.7454  0.3163
19093TIP3    H278695   1.274   1.219  14.428  0.3286  0.1185  0.2872
19094TIP3   OH278696   1.475   2.399  12.735 -0.1518 -0.2578 -0.0544
19094TIP3    H178697   1.556   2.443  12.765  0.6338 -1.6398 -0.1253
19094TIP3    H278698   1.427   2.382  12.816 -0.5323  0.8377 -0.0322
19095TIP3   OH278699   6.420   4.508  15.756  0.0565  0.4642  0.2810
19095TIP3    H178700   6.438   4.464  15.673 -0.0713 -0.1985  0.5985
19095TIP3    H278701   6.330   4.539  15.748 -0.4066 -0.7259  0.6471
19096TIP3   OH278702   1.167   3.777   0.808  0.4924 -0.0777 -0.1022
19096TIP3    H178703   1.090   3.738   0.851  0.0666 -0.9741 -1.6224
19096TIP3    H278704   1.166   3.869   0.835  0.3543 -0.6402  1.9372
19097TIP3   OH278705   5.247   6.373   1.330 -0.5218 -0.7065 -0.3901
19097TIP3    H178706   5.315   6.435   1.355  0.4205 -1.3882 -1.2563
19097TIP3    H278707   5.165   6.416   1.355  0.1358  0.8125 -0.8385
19098TIP3   OH278708   1.041   3.993  17.041 -0.3279 -0.1571  0.6210
19098TIP3    H178709   0.979   4.067  17.040 -0.9304 -0.6650 -0.9002
19098TIP3    H278710   1.120   4.028  17.000  0.1127  0.2367  1.7804
19099TIP3   OH278711   2.856   6.448   5.149  0.7924  0.6317  0.1954
19099TIP3    H178712   2.948   6.458   5.173  0.7185 -0.3596  0.9035
19099TIP3    H278713   2.822   6.382   5.209 -0.4019  1.0327 -0.0215
19100TIP3   OH278714   4.970   2.149   1.064  0.1421  0.1135  0.2231
19100TIP3    H178715   4.896   2.096   1.036 -1.2478  1.8087  0.6337
19100TIP3    H278716   5.044   2.088   1.064 -1.1889 -1.5457 -0.4023
19101TIP3   OH278717   4.277   5.637   5.475 -0.1666  0.0884  0.0967
19101TIP3    H178718   4.186   5.656   5.498  0.2943 -0.2446  2.3409
19101TIP3    H278719   4.271   5.574   5.403 -1.7019  0.3431 -0.0158
19102TIP3   OH278720   4.576   4.451   3.283 -0.6818  0.0224 -0.2342
19102TIP3    H178721   4.607   4.526   3.334  1.8828 -1.0421 -0.1775
19102TIP3    H278722   4.514   4.407   3.341  1.9251 -0.9626  1.9057
19103TIP3   OH278723   5.383   0.137   0.945  0.6119 -0.0384  0.2709
19103TIP3    H178724   5.355   0.214   0.897 -2.0921 -0.7621  0.5896
19103TIP3    H278725   5.388   0.068   0.879 -3.3516 -1.0944  0.9324
19104TIP3   OH278726   2.994   1.004   0.151 -0.2522 -0.3819 -0.3850
19104TIP3    H178727   3.067   0.942   0.160  1.3052  1.3518 -0.7070
19104TIP3    H278728   3.026   1.068   0.088 -2.0591  0.4527 -0.4666
19105TIP3   OH278729   3.581   4.664   4.393 -0.4810  0.6075 -0.3739
19105TIP3    H178730   3.489   4.648   4.371 -0.3359 -0.8119  0.0171
19105TIP3    H278731   3.609   4.730   4.330 -0.6208 -1.9723 -3.2385
19106TIP3   OH278732   2.634   3.064   4.160 -0.9106 -0.4895  0.1089
19106TIP3    H178733   2.564   3.001   4.176 -3.5762  2.3433  0.0912
19106TIP3    H278734   2.603   3.117   4.087  0.9228  1.2738  0.5503
19107TIP3   OH278735   0.871   3.758   5.320 -0.1132  0.2866  0.1383
19107TIP3    H178736   0.910   3.765   5.233 -0.5199 -0.4212 -0.1137
19107TIP3    H278737   0.873   3.664   5.340  0.2944  0.4819  1.0419
19108TIP3   OH278738   3.163   2.062  11.759 -0.0641  0.1516 -0.5114
19108TIP3    H178739   3.176   2.100  11.846 -0.1161  2.3389 -1.4268
19108TIP3    H278740   3.099   1.993  11.772  0.8462 -0.3612  1.3866
19109TIP3   OH278741   4.597   3.650  13.868 -0.1654  0.1062 -0.1099
19109TIP3    H178742   4.625   3.741  13.866 -0.0317  0.1247  1.8693
19109TIP3    H278743   4.678   3.600  13.857 -0.1084  0.2076 -0.1543
19110TIP3   OH278744   6.754   5.217  14.666  0.0704  0.4221  0.1595
19110TIP3    H178745   6.830   5.159  14.669  1.2975  2.0306  0.9212
19110TIP3    H278746   6.759   5.257  14.579 -1.1860 -1.1219 -0.6449
19111TIP3   OH278747   4.594   3.199   2.017 -0.5533  0.7716 -0.4635
19111TIP3    H178748   4.665   3.175   2.077 -0.1188 -0.3116 -1.3912
19111TIP3    H278749   4.532   3.127   2.023  0.2772 -0.1443 -2.5272
19112TIP3   OH278750   6.237   2.051  13.261 -0.8269 -0.5292  0.3822
19112TIP3    H178751   6.312   2.021  13.211 -2.4986 -0.0843 -2.5171
19112TIP3    H278752   6.249   2.146  13.269  0.7629 -0.9107  3.2072
19113TIP3   OH278753   2.889   4.958  10.685 -0.2756  0.3568 -0.8445
19113TIP3    H178754   2.977   4.922  10.697 -0.4894  0.3910  0.8753
19113TIP3    H278755   2.881   5.026  10.752 -1.4499  0.6748 -1.2913
19114TIP3   OH278756   4.317   0.215   5.970 -1.0057  0.6632 -0.4915
19114TIP3    H178757   4.291   0.147   5.909  0.8790  0.1713 -0.7660
19114TIP3    H278758   4.382   0.267   5.923  2.1033 -1.0099  1.7585
19115TIP3   OH278759   1.999   2.302   5.472 -0.4896  0.1214 -0.4105
19115TIP3    H178760   1.923   2.299   5.530  0.6026 -1.1912  0.9786
19115TIP3    H278761   1.962   2.321   5.386 -2.0985  2.6606  0.7579
19116TIP3   OH278762   4.148   1.157  16.888 -0.0918 -0.4614 -0.5352
19116TIP3    H178763   4.169   1.170  16.796 -0.6561  1.0270 -0.4689
19116TIP3    H278764   4.198   1.224  16.934 -1.0381 -0.1728  0.0944
19117TIP3   OH278765   5.501   4.448  13.738 -0.1414  0.2022  0.1678
19117TIP3    H178766   5.415   4.454  13.697  0.5519 -0.0029 -1.3800
19117TIP3    H278767   5.556   4.407  13.671  0.8498 -0.8894  1.6080
19118TIP3   OH278768   3.294   6.472   2.432 -0.2250  0.2576 -0.5924
19118TIP3    H178769   3.335   6.432   2.508  1.0455  0.0520 -1.3703
19118TIP3    H278770   3.291   6.402   2.367  0.5357  0.9737 -1.4071
19119TIP3   OH278771   3.937   3.825  12.070 -0.3970  0.1976 -0.0049
19119TIP3    H178772   3.955   3.914  12.100  2.2864 -0.0717 -0.6833
19119TIP3    H278773   3.870   3.835  12.003 -1.5571  1.4805  1.3119
19120TIP3   OH278774   3.352   4.264   5.707 -0.6101  0.8200 -0.3478
19120TIP3    H178775   3.361   4.358   5.716 -2.0792  1.0512 -1.1280
19120TIP3    H278776   3.258   4.248   5.712 -0.3470 -0.6606  0.2598
19121TIP3   OH278777   5.286   4.511   6.019  0.2116 -0.2928  0.6701
19121TIP3    H178778   5.312   4.472   6.102 -1.3516 -0.0984  1.2807
19121TIP3    H278779   5.316   4.450   5.952 -1.3714 -2.1010  1.5684
19122TIP3   OH278780   2.466   1.095  15.428  0.4673  0.8762 -0.3103
19122TIP3    H178781   2.484   1.189  15.435 -1.0792  1.1416  0.1143
19122TIP3    H278782   2.382   1.082  15.471  1.4986 -1.0011  1.2376
19123TIP3   OH278783   3.526   1.314   5.746 -0.2344  0.0269  0.5441
19123TIP3    H178784   3.431   1.318   5.734 -0.2442 -2.1539 -0.2396
19123TIP3    H278785   3.541   1.230   5.789  1.6582 -1.3046 -2.6474
19124TIP3   OH278786   5.165   5.680   1.117  0.1878 -0.1545  0.3814
19124TIP3    H178787   5.176   5.723   1.202 -2.5183 -2.0115  1.7402
19124TIP3    H278788   5.070   5.665   1.110  0.3308  0.2310 -3.1194
19125TIP3   OH278789   0.341   3.351  14.399  0.3814 -0.4021 -0.1863
19125TIP3    H178790   0.326   3.362  14.493  1.0913 -0.2755 -0.0833
19125TIP3    H278791   0.376   3.263  14.391  0.6226 -0.2983 -0.2894
19126TIP3   OH278792   1.142   3.781   1.998 -0.3595  0.1761 -0.2325
19126TIP3    H178793   1.183   3.740   2.074  1.5476  0.3574 -1.1350
19126TIP3    H278794   1.122   3.708   1.940  0.6213  0.2716 -0.6979
19127TIP3   OH278795   0.679   4.047   4.201  0.1631  0.0549  0.2306
19127TIP3    H178796   0.624   4.050   4.280  1.1340  0.3080  0.9085
19127TIP3    H278797   0.652   3.968   4.156 -1.8491  0.9794 -0.2499
19128TIP3   OH278798   6.616   4.601  11.376 -0.2376 -0.0448  0.0676
19128TIP3    H178799   6.577   4.514  11.379  0.8211 -0.6147 -1.9019
19128TIP3    H278800   6.681   4.601  11.445 -0.7921 -0.5344  0.5999
19129TIP3   OH278801   3.726   0.451  12.912 -0.0108 -0.0713 -0.4055
19129TIP3    H178802   3.790   0.494  12.969 -0.7607  0.4141  0.0727
19129TIP3    H278803   3.677   0.523  12.872 -0.3615 -0.4446 -0.6521
19130TIP3   OH278804   2.993   0.701   2.079  0.3223 -0.0430  0.2636
19130TIP3    H178805   3.040   0.723   1.999 -1.7952 -0.9196 -1.2513
19130TIP3    H278806   2.989   0.606   2.080 -2.0559  0.0339 -0.0216
19131TIP3   OH278807   0.520   0.957  14.644 -0.8372  0.1352 -1.0617
19131TIP3    H178808   0.552   1.015  14.713 -1.1581  1.0329 -1.6637
19131TIP3    H278809   0.460   0.897  14.689 -0.5578  0.3133 -0.4502
19132TIP3   OH278810   6.276   4.003   3.241 -0.6217 -0.0038 -0.2267
19132TIP3    H178811   6.343   3.949   3.282  0.2303  0.1470 -1.3954
19132TIP3    H278812   6.236   3.946   3.175 -0.2679  0.5257 -0.9072
19133TIP3   OH278813   5.210   3.158   0.604  0.4043 -0.5128  0.4495
19133TIP3    H178814   5.173   3.107   0.676  2.5186 -0.1696  1.8064
19133TIP3    H278815   5.285   3.202   0.642  1.5349 -0.3039 -1.9715
19134TIP3   OH278816   6.382   2.549  13.241  0.2191 -0.3071 -0.2554
19134TIP3    H178817   6.406   2.582  13.327  0.6683  0.0706 -0.5178
19134TIP3    H278818   6.362   2.628  13.190 -0.4146 -0.5519 -0.3861
19135TIP3   OH278819   2.803   2.559  13.257 -0.2781  0.9989 -0.0910
19135TIP3    H178820   2.796   2.645  13.215 -0.3869  1.1846  0.3052
19135TIP3    H278821   2.779   2.575  13.348  0.0706  0.6149  0.0673
19136TIP3   OH278822   0.535   2.650  12.263 -0.8183 -0.1528  0.4478
19136TIP3    H178823   0.485   2.731  12.254 -0.9378 -0.0864  1.6680
19136TIP3    H278824   0.626   2.680  12.273 -0.8070 -0.1872  0.4466
19137TIP3   OH278825   4.251   1.844   3.491  0.6637 -0.3219 -0.4000
19137TIP3    H178826   4.285   1.784   3.557 -0.0685 -1.0730 -0.6890
19137TIP3    H278827   4.294   1.816   3.410  0.4660 -0.3398 -0.4988
19138TIP3   OH278828   0.692   5.442   2.425 -0.6981 -0.3657  0.1150
19138TIP3    H178829   0.734   5.518   2.384  0.3292 -1.4405 -0.8798
19138TIP3    H278830   0.727   5.440   2.514 -0.0683 -0.1722 -0.1270
19139TIP3   OH278831   6.700   1.399  14.802  0.5462 -0.0771  0.2790
19139TIP3    H178832   6.664   1.466  14.860  1.6596  0.2121  0.6487
19139TIP3    H278833   6.630   1.334  14.794 -1.2443  1.9970 -1.5483
19140TIP3   OH278834   3.058   1.082   4.538  0.6595  0.7302  0.0985
19140TIP3    H178835   3.018   1.058   4.621  1.7756  1.1113  0.7666
19140TIP3    H278836   3.108   1.005   4.512  0.6335  0.7524 -0.0188
19141TIP3   OH278837   6.484   3.548   1.999 -0.0301 -0.0091 -0.1226
19141TIP3    H178838   6.480   3.493   1.921 -0.4801  0.4189 -0.4040
19141TIP3    H278839   6.543   3.502   2.058 -0.5844 -0.9148 -0.2665
19142TIP3   OH278840   4.834   6.096  15.033  0.5985  0.3398 -0.4342
19142TIP3    H178841   4.743   6.081  15.059  0.3306  0.7835 -1.0962
19142TIP3    H278842   4.885   6.042  15.093  0.0183  1.5387  1.1949
19143TIP3   OH278843   0.532   6.599  12.587 -0.2033 -0.2062 -0.0686
19143TIP3    H178844   0.541   6.547  12.667 -0.2530 -0.3392 -0.1505
19143TIP3    H278845   0.621   6.632  12.570 -0.1576 -0.3264 -0.0601
19144TIP3   OH278846   0.161   5.010  13.300  0.3434  0.2536 -0.2655
19144TIP3    H178847   0.243   5.059  13.311  0.5271 -0.4148  1.4840
19144TIP3    H278848   0.179   4.925  13.339 -0.7948 -0.3306 -1.0173
19145TIP3   OH278849   6.556   6.384  14.053  0.1068 -0.4167  0.4125
19145TIP3    H178850   6.629   6.445  14.059  1.6916 -2.2195 -0.1490
19145TIP3    H278851   6.571   6.337  13.971 -1.3278 -1.2709  0.6211
19146TIP3   OH278852   3.117   5.403  10.674 -0.7613 -0.6183 -0.5664
19146TIP3    H178853   3.088   5.493  10.660 -1.3342 -0.9307 -1.4420
19146TIP3    H278854   3.050   5.349  10.631 -1.0782 -1.5113  1.0236
19147TIP3   OH278855   2.862   3.924  16.133 -0.2574 -0.3443  0.0373
19147TIP3    H178856   2.853   3.845  16.080  0.6763 -0.0746 -0.5494
19147TIP3    H278857   2.919   3.981  16.080 -1.1866  0.8498  0.2883
19148TIP3   OH278858   6.576   1.994   2.382 -0.6230 -0.2494 -0.8513
19148TIP3    H178859   6.661   2.007   2.339 -0.8153 -1.9293 -1.7849
19148TIP3    H278860   6.516   1.973   2.310 -1.1038 -2.3726  0.1167
19149TIP3   OH278861   5.918   1.626  16.400  0.0377  0.3968 -0.6773
19149TIP3    H178862   5.945   1.713  16.372 -1.2746  1.1809  0.4931
19149TIP3    H278863   5.909   1.632  16.495 -2.1828 -0.4349 -0.8144
19150TIP3   OH278864   5.491   3.217   6.026 -0.6569 -0.8657  0.1177
19150TIP3    H178865   5.575   3.170   6.027  0.6083  1.3433  1.5711
19150TIP3    H278866   5.427   3.150   6.051  0.5039 -2.8350 -1.9495
19151TIP3   OH278867   1.125   6.384  14.156  0.0123 -0.1838  0.1966
19151TIP3    H178868   1.038   6.376  14.117  0.4704 -0.4081 -0.7903
19151TIP3    H278869   1.119   6.460  14.214 -1.3638 -1.2698  1.5240
19152TIP3   OH278870   2.785   2.684  12.095  0.0977  0.2471  0.2473
19152TIP3    H178871   2.738   2.750  12.147 -0.1866 -0.3872  0.8063
19152TIP3    H278872   2.871   2.722  12.080  0.7214 -0.2006  2.5090
19153TIP3   OH278873   6.100   1.182   6.247 -0.1935 -0.6069  0.1668
19153TIP3    H178874   6.082   1.088   6.259  0.9018 -0.7420  0.7840
19153TIP3    H278875   6.154   1.206   6.322 -1.1659  0.7172  0.4560
19154TIP3   OH278876   1.907   5.928  15.026  0.4985 -0.1685  0.0028
19154TIP3    H178877   1.841   5.957  15.089  0.9904  1.6220 -0.2945
19154TIP3    H278878   1.917   5.834  15.044 -0.6101 -0.0310  1.4328
19155TIP3   OH278879   3.423   5.623  13.253  0.6386  0.7794  0.2035
19155TIP3    H178880   3.507   5.643  13.294 -0.5736 -0.2288  3.3012
19155TIP3    H278881   3.359   5.630  13.323 -1.3027 -2.9046 -1.0129
19156TIP3   OH278882   5.438   3.412  17.170  0.2937  0.4687  0.2488
19156TIP3    H178883   5.359   3.463  17.189  0.1657 -0.9925  4.0915
19156TIP3    H278884   5.407   3.322  17.163  1.6218 -0.1664  2.1993
19157TIP3   OH278885   4.961   3.286   1.097  0.4157  0.3000 -0.1996
19157TIP3    H178886   4.872   3.316   1.075  0.2498 -0.1377 -0.1192
19157TIP3    H278887   5.018   3.352   1.057  0.1385 -0.7357 -2.3525
19158TIP3   OH278888   1.486   3.804  11.503  0.1200  0.0081  0.2047
19158TIP3    H178889   1.472   3.733  11.566  0.1888  1.3634  1.7958
19158TIP3    H278890   1.575   3.834  11.521  0.8009 -0.7856 -1.7957
19159TIP3   OH278891   2.767   5.028  14.781  0.0657  0.1212  0.3404
19159TIP3    H178892   2.684   5.068  14.808 -1.1125 -0.4645 -2.2913
19159TIP3    H278893   2.815   5.099  14.739 -0.3521 -0.2222 -0.7439
19160TIP3   OH278894   1.338   2.555   0.968  0.1210  0.4945  0.3096
19160TIP3    H178895   1.428   2.585   0.963 -0.2929  1.7020 -0.0443
19160TIP3    H278896   1.344   2.460   0.963  1.2833  0.6249 -1.0185
19161TIP3   OH278897   3.441   3.690  13.032  0.5919  0.0173  0.2626
19161TIP3    H178898   3.370   3.707  13.094  1.0914  0.1650  0.7978
19161TIP3    H278899   3.509   3.648  13.084  0.1192 -1.9473 -0.6671
19162TIP3   OH278900   2.220   4.318   6.928 -0.5207 -0.2308  0.0426
19162TIP3    H178901   2.180   4.249   6.875  1.9803  0.0700 -2.3375
19162TIP3    H278902   2.192   4.399   6.886  1.0376  0.0251 -0.5278
19163TIP3   OH278903   1.136   5.376   2.485 -0.0676  0.4022 -0.0812
19163TIP3    H178904   1.183   5.452   2.449 -0.3859  0.5025 -0.2822
19163TIP3    H278905   1.077   5.412   2.550 -0.3301  0.3441 -0.2857
19164TIP3   OH278906   3.909   4.907   4.902 -0.5107 -0.2761  0.4015
19164TIP3    H178907   3.871   4.886   4.987 -0.0747 -2.6531  0.0517
19164TIP3    H278908   3.976   4.973   4.922 -0.0039 -1.2269  2.0173
19165TIP3   OH278909   5.371   2.958   0.381 -0.9210 -0.0042 -0.5133
19165TIP3    H178910   5.405   2.925   0.298  0.0663  2.2677 -1.0594
19165TIP3    H278911   5.279   2.935   0.380 -0.9634  0.1500 -2.3334
19166TIP3   OH278912   2.596   6.699   4.935  0.2695  0.3954 -0.2906
19166TIP3    H178913   2.503   6.710   4.915  0.3183  1.9764  0.2579
19166TIP3    H278914   2.638   6.690   4.850 -0.4236 -0.6225 -0.5290
19167TIP3   OH278915   5.152   4.224   5.935 -0.0043 -0.0337 -0.7399
19167TIP3    H178916   5.070   4.271   5.946  0.7428  0.7555  1.8973
19167TIP3    H278917   5.126   4.133   5.919 -1.3810  0.2927 -0.4004
19168TIP3   OH278918   3.486   0.767   5.439 -0.2246  0.1639 -0.0718
19168TIP3    H178919   3.529   0.693   5.396  0.7162  0.7100 -0.0765
19168TIP3    H278920   3.393   0.743   5.439  0.2483 -1.7938  1.4701
19169TIP3   OH278921   0.245   2.954   0.467  0.4693 -0.2649 -0.5027
19169TIP3    H178922   0.309   2.888   0.497 -0.4096 -0.9199 -0.0623
19169TIP3    H278923   0.299   3.030   0.446  1.3545 -0.6220  0.3902
19170TIP3   OH278924   5.531   2.556   0.816 -0.0522  0.0105 -0.3323
19170TIP3    H178925   5.481   2.634   0.792  0.2825  0.5202  0.6204
19170TIP3    H278926   5.465   2.487   0.825 -0.7628  0.9958  2.2884
19171TIP3   OH278927   5.794   1.285   4.593 -0.6280 -0.4710  0.3755
19171TIP3    H178928   5.796   1.270   4.688 -0.4638  0.4262  0.5155
19171TIP3    H278929   5.746   1.367   4.583 -1.3215 -0.9672 -0.3732
19172TIP3   OH278930   4.896   2.487  14.291 -1.0583  0.3115  0.3229
19172TIP3    H178931   4.837   2.485  14.367 -1.6867 -0.5307 -0.1793
19172TIP3    H278932   4.976   2.445  14.323 -1.7102 -1.0443  0.2114
19173TIP3   OH278933   4.716   2.343   1.798 -0.5392 -0.1178 -0.1538
19173TIP3    H178934   4.712   2.324   1.704  1.0053  1.1623 -0.4867
19173TIP3    H278935   4.673   2.428   1.807 -0.1934  0.0172  0.2272
19174TIP3   OH278936   4.345   0.857  10.587  0.0341 -0.0618  0.2157
19174TIP3    H178937   4.329   0.775  10.540  1.0880  0.0302 -0.2966
19174TIP3    H278938   4.440   0.869  10.584 -0.0662  0.9100  0.7478
19175TIP3   OH278939   5.243   0.661   4.619 -0.2416 -0.4625 -0.2810
19175TIP3    H178940   5.152   0.674   4.648 -0.6056 -0.8910 -1.1807
19175TIP3    H278941   5.292   0.646   4.700 -1.1466 -1.1810  0.1516
19176TIP3   OH278942   0.631   0.558  13.659 -0.3286  0.4286  1.0604
19176TIP3    H178943   0.682   0.480  13.680 -0.6753 -0.1614 -0.1890
19176TIP3    H278944   0.573   0.529  13.588  1.2704  2.4868 -1.1645
19177TIP3   OH278945   0.334   2.399   1.561  1.0442 -0.2045 -0.5390
19177TIP3    H178946   0.295   2.326   1.511  0.5696  0.1409 -0.6824
19177TIP3    H278947   0.404   2.431   1.505 -0.6856  1.3925 -1.8588
19178TIP3   OH278948   1.024   2.005   3.479  0.0522 -0.1570  0.2599
19178TIP3    H178949   1.103   1.965   3.444  0.7971 -0.9255  2.7076
19178TIP3    H278950   0.998   2.069   3.413  2.3577 -0.3476 -0.8765
19179TIP3   OH278951   3.633   0.979  14.825  0.4069  0.6006 -0.4346
19179TIP3    H178952   3.563   0.943  14.770 -2.1720  3.0868  1.1330
19179TIP3    H278953   3.643   0.915  14.895 -0.5577  0.4048 -0.4679
19180TIP3   OH278954   6.507   4.753  12.793  0.3666 -0.2630 -0.6053
19180TIP3    H178955   6.412   4.753  12.804  0.6401  0.7956  2.0477
19180TIP3    H278956   6.535   4.838  12.825  2.3317 -0.9730 -0.3780
19181TIP3   OH278957   2.840   2.347  12.727  0.2482  0.2833  0.1531
19181TIP3    H178958   2.753   2.348  12.766  0.4602  0.5499  0.6238
19181TIP3    H278959   2.880   2.266  12.758  0.5052  0.6140  0.6887
19182TIP3   OH278960   1.551   4.154  11.886 -0.4162  0.0708 -0.0531
19182TIP3    H178961   1.493   4.129  11.958 -0.9978  1.8218  0.1300
19182TIP3    H278962   1.632   4.182  11.929  1.0593 -3.4631 -0.3656
19183TIP3   OH278963   4.332   4.830   0.324  0.6888  0.2245  0.0478
19183TIP3    H178964   4.257   4.819   0.384  1.0623 -1.2711  0.2585
19183TIP3    H278965   4.320   4.760   0.259  1.8224  0.0695  0.0070
19184TIP3   OH278966   2.238   5.332   4.404 -1.0421 -0.0598  0.2411
19184TIP3    H178967   2.232   5.295   4.492 -0.0571  1.1311  0.8349
19184TIP3    H278968   2.281   5.417   4.417  0.0438 -0.3102 -1.5044
19185TIP3   OH278969   1.729   5.379   4.306 -0.0936  0.3710  0.0733
19185TIP3    H178970   1.698   5.461   4.267  2.1797  0.3517 -1.8644
19185TIP3    H278971   1.805   5.405   4.358  0.1580 -0.3938  0.0903
19186TIP3   OH278972   2.070   5.271   1.966 -0.2322 -0.5102  0.8979
19186TIP3    H178973   2.156   5.266   2.009  0.7786  1.5168 -0.7736
19186TIP3    H278974   2.024   5.339   2.014  0.7288  1.4336 -0.8582
19187TIP3   OH278975   1.412   0.613   2.413  0.4409  0.0590  0.2678
19187TIP3    H178976   1.448   0.558   2.344 -1.1951 -0.3360 -0.2958
19187TIP3    H278977   1.486   0.627   2.473  1.4846 -0.8210 -0.7749
19188TIP3   OH278978   3.101   3.337   2.772  0.2170 -0.3045 -0.8254
19188TIP3    H178979   3.042   3.360   2.701 -0.0239 -0.5205 -0.6974
19188TIP3    H278980   3.180   3.388   2.755 -0.0966  0.1738 -0.8635
19189TIP3   OH278981   0.263   4.693   3.519 -0.3068  0.6913  0.2000
19189TIP3    H178982   0.198   4.639   3.564  0.6077 -0.4404  0.1706
19189TIP3    H278983   0.333   4.705   3.583 -0.2317  1.3634  0.0012
19190TIP3   OH278984   6.624   5.761   5.835  1.0444  0.4422 -0.3198
19190TIP3    H178985   6.578   5.796   5.911  1.4540 -1.5368  0.8939
19190TIP3    H278986   6.710   5.736   5.869  1.1272 -0.7153 -1.3597
19191TIP3   OH278987   3.218   1.511  13.984 -0.2946 -0.1789 -0.1985
19191TIP3    H178988   3.193   1.461  13.905 -0.9668  2.0619 -1.4515
19191TIP3    H278989   3.311   1.531  13.971 -1.1900  3.1891 -2.2224
19192TIP3   OH278990   5.361   2.719  17.039 -0.0460  0.0666  0.4305
19192TIP3    H178991   5.351   2.711  17.134  0.5060  0.2807  0.5038
19192TIP3    H278992   5.329   2.807  17.019 -0.2198 -0.0012  0.4088
19193TIP3   OH278993   0.633   1.428   6.743  0.0997 -0.4901  0.3670
19193TIP3    H178994   0.724   1.451   6.726  0.0004  1.1799  1.9776
19193TIP3    H278995   0.600   1.397   6.659  1.5150  1.0247 -0.7713
19194TIP3   OH278996   0.979   3.016  11.951 -0.2018  0.3747  0.1537
19194TIP3    H178997   0.892   3.039  11.917 -1.3208 -0.4479  2.3645
19194TIP3    H278998   0.967   3.012  12.046  2.0844 -0.5211  0.4310
19195TIP3   OH278999   1.464   2.342  16.547 -0.2422  0.4400  0.2760
19195TIP3    H179000   1.542   2.371  16.594  0.1846  0.2813 -0.3198
19195TIP3    H279001   1.461   2.397  16.469 -0.3365 -0.0278 -0.0522
19196TIP3   OH279002   4.829   4.144   1.079  0.4153 -0.1857  0.3974
19196TIP3    H179003   4.822   4.233   1.043  0.6527 -0.2756  0.1317
19196TIP3    H279004   4.899   4.149   1.143  0.4741 -0.1971  0.3343
19197TIP3   OH279005   2.709   1.180  12.818 -0.6029 -0.2146  0.2488
19197TIP3    H179006   2.758   1.123  12.759 -2.6385 -0.5607 -1.1665
19197TIP3    H279007   2.774   1.243  12.849  1.1017 -1.6863 -0.2267
19198TIP3   OH279008   4.632   5.373   2.196  0.6449 -0.2754  0.0742
19198TIP3    H179009   4.630   5.441   2.263  3.5554 -1.7243  1.6918
19198TIP3    H279010   4.698   5.403   2.134 -0.0580 -0.3076 -0.7035
19199TIP3   OH279011   1.985   1.675  13.452 -0.4222  0.1186  0.2517
19199TIP3    H179012   1.931   1.754  13.446 -2.1769 -1.0491  0.2401
19199TIP3    H279013   1.960   1.624  13.375 -1.6176 -1.8391  1.8892
19200TIP3   OH279014   5.849   0.548   1.913 -0.1782 -0.2975  0.5801
19200TIP3    H179015   5.819   0.600   1.988  0.0261 -2.0065  1.8841
19200TIP3    H279016   5.770   0.533   1.860 -0.1597  1.6491 -0.0146
19201TIP3   OH279017   1.361   4.107   1.974 -0.4404 -0.2624  0.2746
19201TIP3    H179018   1.333   4.199   1.966  0.0658 -0.1794 -0.6037
19201TIP3    H279019   1.350   4.087   2.067 -1.2980  0.4528  0.3360
19202TIP3   OH279020   0.610   3.376  16.920  0.7408  0.6490  0.0382
19202TIP3    H179021   0.584   3.325  16.997 -2.4687  0.0828 -1.3226
19202TIP3    H279022   0.696   3.342  16.897  0.8366 -0.6202  2.1747
19203TIP3   OH279023   1.768   4.695  14.170  0.0061  0.5944 -0.0322
19203TIP3    H179024   1.769   4.645  14.088 -2.7772  0.3812  0.0365
19203TIP3    H279025   1.738   4.633  14.236  0.0953  1.3689  0.7513
19204TIP3   OH279026   0.445   2.253  17.110 -0.1448  0.0537 -0.2713
19204TIP3    H179027   0.478   2.182  17.054 -0.6163 -0.7355  0.4505
19204TIP3    H279028   0.406   2.314  17.048  2.9835  1.2296 -1.2160
19205TIP3   OH279029   2.895   4.959   1.818 -0.1211 -0.1997 -0.3026
19205TIP3    H179030   2.883   5.031   1.756  0.9113  0.5631  0.3586
19205TIP3    H279031   2.914   4.883   1.763  0.7462  0.4612 -0.9382
19206TIP3   OH279032   4.073   0.638   2.683  0.6520  0.5555  0.3779
19206TIP3    H179033   4.133   0.677   2.619  1.8426  0.0096  1.1431
19206TIP3    H279034   4.025   0.713   2.719  0.0820  0.8844 -1.0256
19207TIP3   OH279035   3.416   6.706   3.683 -0.2931 -0.0199 -0.3577
19207TIP3    H179036   3.346   6.772   3.691 -1.0355 -1.0345  1.6392
19207TIP3    H279037   3.478   6.728   3.752 -0.6092 -1.4691  0.4109
19208TIP3   OH279038   5.058   5.126   1.803  0.4423 -0.2063  0.8805
19208TIP3    H179039   5.128   5.176   1.762  0.6142 -0.3835  0.9542
19208TIP3    H279040   4.981   5.141   1.748  0.8538 -1.0529  0.0659
19209TIP3   OH279041   0.513   3.770   1.034  0.1526 -0.0729 -0.4874
19209TIP3    H179042   0.465   3.736   0.958  1.0640 -0.7507 -0.7688
19209TIP3    H279043   0.447   3.815   1.085 -0.8367 -1.1400 -0.7863
19210TIP3   OH279044   4.781   4.113  11.045 -0.1247 -0.2439  0.1894
19210TIP3    H179045   4.843   4.185  11.043 -2.2079  1.6322  1.1395
19210TIP3    H279046   4.778   4.086  11.137  0.7837 -1.7066 -0.1843
19211TIP3   OH279047   2.003   2.807   5.590  0.2696 -0.1516 -0.3760
19211TIP3    H179048   2.004   2.895   5.552  0.1187  0.2024  0.4367
19211TIP3    H279049   2.071   2.759   5.541  0.4359  0.4480 -0.7330
19212TIP3   OH279050   4.330   2.808   1.747 -0.4746  0.4012  0.2547
19212TIP3    H179051   4.263   2.868   1.715 -0.8952 -0.2479 -0.0968
19212TIP3    H279052   4.295   2.776   1.831 -2.2213 -2.4950 -1.4617
19213TIP3   OH279053   6.019   5.454  17.078  0.2445  0.2087  0.0378
19213TIP3    H179054   5.994   5.511  17.151  1.2498  0.7310 -0.0096
19213TIP3    H279055   6.113   5.470  17.067  0.7601 -2.2129  0.6845
19214TIP3   OH279056   2.414   0.764   3.421  0.0934 -0.8069  0.5691
19214TIP3    H179057   2.498   0.749   3.463  0.5386 -0.8731 -0.3282
19214TIP3    H279058   2.398   0.685   3.369  0.7658  0.3120 -1.3827
19215TIP3   OH279059   4.909   5.105  13.322 -0.8111  0.0273 -0.0487
19215TIP3    H179060   4.967   5.034  13.293 -2.8964 -1.6254 -0.3330
19215TIP3    H279061   4.967   5.179  13.336  1.3905 -1.6056 -0.1893
19216TIP3   OH279062   3.001   1.673  14.855  0.5462  0.1483 -0.7198
19216TIP3    H179063   3.029   1.736  14.788  1.7945  0.3159 -0.0548
19216TIP3    H279064   3.082   1.634  14.886  0.0231  0.4557  1.0809
19217TIP3   OH279065   4.686   0.293   0.583 -0.0294  0.2451 -0.1165
19217TIP3    H179066   4.725   0.348   0.515 -2.5213  0.4014 -1.4693
19217TIP3    H279067   4.631   0.353   0.634  0.2038 -0.2836  0.7772
19218TIP3   OH279068   1.716   1.962   5.240  0.2418 -0.0433 -0.2303
19218TIP3    H179069   1.757   1.943   5.324 -1.1052 -1.7059  0.0800
19218TIP3    H279070   1.632   2.002   5.263  0.6353  1.1348 -0.8191
19219TIP3   OH279071   6.563   0.829   4.458 -0.2803 -0.2003  0.2011
19219TIP3    H179072   6.626   0.835   4.386 -1.2206 -2.0227 -0.7817
19219TIP3    H279073   6.496   0.894   4.436  0.4889  0.7347  0.5348
19220TIP3   OH279074   4.036   3.866  13.371  0.1705  0.4995  0.1171
19220TIP3    H179075   4.001   3.778  13.377 -1.7017  1.1630 -0.5514
19220TIP3    H279076   4.007   3.898  13.285  1.8562  1.3418 -0.1729
19221TIP3   OH279077   1.599   5.476   1.465 -0.3487 -0.3224 -0.3699
19221TIP3    H179078   1.662   5.435   1.405 -1.4327  0.6697 -2.2519
19221TIP3    H279079   1.648   5.546   1.508  0.5023 -1.1762  0.0562
19222TIP3   OH279080   1.322   2.448  14.985 -0.2688 -0.2356 -0.7796
19222TIP3    H179081   1.276   2.367  14.962  0.7531 -1.1140  0.1816
19222TIP3    H279082   1.317   2.452  15.080  0.3585  0.4285 -0.7688
19223TIP3   OH279083   0.525   5.053  14.808 -0.3538  0.5339  0.0444
19223TIP3    H179084   0.586   5.117  14.772 -0.6392  0.0211 -1.3717
19223TIP3    H279085   0.580   4.979  14.832 -0.3334  0.3595 -0.5473
19224TIP3   OH279086   3.311   2.471   3.291 -0.1869  0.2849 -0.2402
19224TIP3    H179087   3.236   2.414   3.275  0.3224 -0.7225  0.8656
19224TIP3    H279088   3.284   2.526   3.365 -0.6347  1.4373 -1.2311
19225TIP3   OH279089   4.119   4.984  11.604  0.2065  0.1150  0.2921
19225TIP3    H179090   4.153   4.968  11.516 -1.5421 -2.0658 -0.0205
19225TIP3    H279091   4.026   5.004  11.591  0.2239  1.0826  1.5392
19226TIP3   OH279092   2.708   5.008   5.273  0.0265  0.0853  0.4391
19226TIP3    H179093   2.655   5.045   5.344  1.5705 -0.3548  1.8542
19226TIP3    H279094   2.779   4.963   5.318  1.8753  1.0562 -1.4459
19227TIP3   OH279095   3.294   5.669   4.593  0.1307  0.7371 -0.2518
19227TIP3    H179096   3.267   5.625   4.512 -0.4395  1.2764 -0.3581
19227TIP3    H279097   3.291   5.600   4.659 -0.5805  0.5639 -0.4572
19228TIP3   OH279098   0.433   0.591  12.317  0.1301 -0.2658  0.3817
19228TIP3    H179099   0.486   0.511  12.320  1.6806  0.8060  2.4483
19228TIP3    H279100   0.388   0.592  12.401 -1.3395  0.1109 -0.3874
19229TIP3   OH279101   2.007   4.185  12.924  0.3642  0.1540  0.2868
19229TIP3    H179102   2.027   4.100  12.963  1.4767  0.7237  0.9810
19229TIP3    H279103   2.092   4.220  12.898 -0.2760  0.2452 -1.7113
19230TIP3   OH279104   5.367   0.582   4.834 -0.6308  0.1555 -0.5141
19230TIP3    H179105   5.378   0.490   4.855 -1.8593  0.1340  0.0825
19230TIP3    H279106   5.444   0.625   4.873  0.4704 -0.7300 -1.6775
19231TIP3   OH279107   1.088   2.492  17.111 -0.0279  0.8783  0.3571
19231TIP3    H179108   1.043   2.496  17.027 -1.7131  0.0176  1.2014
19231TIP3    H279109   1.047   2.561  17.163 -0.5398 -0.0563  1.2050
19232TIP3   OH279110   4.373   3.966   4.619  0.7508  0.2623  0.4009
19232TIP3    H179111   4.294   3.971   4.566  0.1492  2.8400  1.4722
19232TIP3    H279112   4.429   3.903   4.574 -0.5710  0.8957 -2.1866
19233TIP3   OH279113   3.316   0.165  13.612 -0.8992 -0.1563 -0.2535
19233TIP3    H179114   3.409   0.145  13.618 -1.0879 -1.8024 -2.3308
19233TIP3    H279115   3.311   0.260  13.621  1.2204  0.2198 -2.6281
19234TIP3   OH279116   1.207   4.294  11.524 -0.1059 -0.1224 -0.3202
19234TIP3    H179117   1.256   4.213  11.539  0.8619  0.7294  1.3247
19234TIP3    H279118   1.235   4.324  11.438  2.3158  0.3396  0.5713
19235TIP3   OH279119   2.105   0.818  11.072 -0.2775  0.0317 -0.2211
19235TIP3    H179120   2.142   0.820  11.160 -0.5184 -0.2042 -0.1159
19235TIP3    H279121   2.059   0.735  11.067 -0.0488 -0.0704 -0.6588
19236TIP3   OH279122   4.172   4.952  16.453 -0.0869  0.1827 -0.3155
19236TIP3    H179123   4.090   4.904  16.440 -1.0869  2.4296 -2.6392
19236TIP3    H279124   4.240   4.884  16.450 -1.6063 -1.3311 -1.6961
19237TIP3   OH279125   6.526   4.505  14.304  0.8054 -0.1982  0.2681
19237TIP3    H179126   6.542   4.594  14.275  1.2439 -0.8990 -1.7108
19237TIP3    H279127   6.448   4.511  14.358  1.7291  1.6222  1.4581
19238TIP3   OH279128   5.338   2.782   2.253 -0.0373 -0.1377  0.1660
19238TIP3    H179129   5.388   2.719   2.305 -0.7400 -0.1811  0.7929
19238TIP3    H279130   5.268   2.812   2.311 -0.3582  0.4088 -0.4886
19239TIP3   OH279131   0.275   5.059  14.691 -0.3528  0.6569  0.0605
19239TIP3    H179132   0.221   5.056  14.770  0.3837 -2.1994  0.4906
19239TIP3    H279133   0.363   5.081  14.722 -0.1636  0.0294 -0.0355
19240TIP3   OH279134   0.474   2.477  13.865 -0.1274  0.0179 -0.0300
19240TIP3    H179135   0.384   2.508  13.872  0.0214  0.7174 -1.1974
19240TIP3    H279136   0.490   2.432  13.948 -1.3773  0.3375  0.3930
19241TIP3   OH279137   3.974   1.672  12.017 -0.4293  0.1426 -0.4267
19241TIP3    H179138   4.053   1.619  12.018 -1.2083 -1.0261 -0.6772
19241TIP3    H279139   3.988   1.735  11.946  1.3707  1.6692  1.2101
19242TIP3   OH279140   4.576   5.542  13.279 -0.1375 -0.2080  0.0559
19242TIP3    H179141   4.542   5.527  13.368  0.3393 -0.9566  0.1221
19242TIP3    H279142   4.498   5.557  13.226 -0.3799  1.0231  0.7472
19243TIP3   OH279143   0.911   1.476   2.391  0.2321  0.5149 -0.2587
19243TIP3    H179144   1.004   1.499   2.392  0.0539  1.3130 -1.3440
19243TIP3    H279145   0.894   1.449   2.301 -0.3910 -0.4931  0.1513
19244TIP3   OH279146   2.110   1.932   2.280 -0.5183 -0.5954  0.5427
19244TIP3    H179147   2.048   1.893   2.219 -0.5193 -0.0941  0.2222
19244TIP3    H279148   2.131   2.017   2.242 -1.1567  0.0804  1.6494
19245TIP3   OH279149   1.234   4.603   4.794 -0.1973  0.3155 -0.6121
19245TIP3    H179150   1.237   4.691   4.829 -0.6001  0.7568 -1.6591
19245TIP3    H279151   1.178   4.610   4.716 -1.7174 -1.2137  0.3203
19246TIP3   OH279152   2.113   0.069  14.240 -0.5624 -0.1616 -0.2791
19246TIP3    H179153   2.089   0.141  14.298 -2.8077 -0.2343 -1.0817
19246TIP3    H279154   2.086  -0.010  14.288  2.3937 -0.5666  0.8460
19247TIP3   OH279155   4.736   1.780  13.332  0.0495  0.0384  0.3254
19247TIP3    H179156   4.830   1.762  13.327 -0.0653 -0.4954 -0.0465
19247TIP3    H279157   4.727   1.850  13.396  0.7134  0.1685  0.2698
19248TIP3   OH279158   6.253   0.859   4.527  0.7154 -0.1126  0.2125
19248TIP3    H179159   6.222   0.770   4.508  1.5390 -0.2855 -0.3166
19248TIP3    H279160   6.275   0.896   4.442  0.3701  0.6037  0.4325
19249TIP3   OH279161   2.791   0.837   2.157 -0.0582 -0.0968 -0.4706
19249TIP3    H179162   2.737   0.818   2.080  0.0025  0.7137 -0.7155
19249TIP3    H279163   2.870   0.785   2.144  0.6473  1.2798 -1.7559
19250TIP3   OH279164   0.800   4.472   0.360 -0.0396 -0.4911 -0.4800
19250TIP3    H179165   0.892   4.474   0.387  0.1128  0.2340 -1.0249
19250TIP3    H279166   0.766   4.391   0.397  0.5606 -0.2744  0.5619
19251TIP3   OH279167   1.774   0.148  15.100  0.1537  0.2267 -0.0169
19251TIP3    H179168   1.759   0.213  15.168 -0.2842  0.7372 -0.5956
19251TIP3    H279169   1.687   0.120  15.073  0.3197  0.1061 -0.4413
19252TIP3   OH279170   2.325   5.276  16.827 -0.4660 -0.1171  0.1019
19252TIP3    H179171   2.294   5.230  16.749  1.6165 -1.1292 -0.1627
19252TIP3    H279172   2.319   5.212  16.897  3.3287 -1.1737 -0.4533
19253TIP3   OH279173   5.165   2.585   5.869 -0.0376 -0.4094 -0.6480
19253TIP3    H179174   5.219   2.663   5.871 -0.0974 -0.3441 -1.4371
19253TIP3    H279175   5.076   2.618   5.855 -0.6651 -0.3334  2.9789
19254TIP3   OH279176   0.244   0.272   2.471  0.0851 -0.2581 -0.3838
19254TIP3    H179177   0.219   0.270   2.563  1.5607  0.7407  0.0613
19254TIP3    H279178   0.314   0.338   2.467 -1.0000  0.8161 -2.4690
19255TIP3   OH279179   4.929   4.107  11.453  0.2654 -0.1010 -0.5275
19255TIP3    H179180   4.873   4.116  11.530  0.2951  1.5924 -0.6875
19255TIP3    H279181   4.868   4.096  11.380  0.1416  1.3384 -0.6498
19256TIP3   OH279182   6.729   6.048  12.710 -0.1399  0.2192 -0.5675
19256TIP3    H179183   6.689   6.084  12.630  2.0041  0.3774 -1.5882
19256TIP3    H279184   6.822   6.069  12.702  0.2011 -0.3643  1.6674
19257TIP3   OH279185   0.621   0.514   2.642  0.2996  0.2712  0.0836
19257TIP3    H179186   0.712   0.532   2.620  1.0994 -0.4335  2.6258
19257TIP3    H279187   0.623   0.430   2.688 -2.0775 -1.3496 -2.6334
19258TIP3   OH279188   0.721   6.308  11.668 -0.5317  0.4026  0.2852
19258TIP3    H179189   0.737   6.254  11.591  1.7554 -0.5777  1.3759
19258TIP3    H279190   0.639   6.353  11.650  0.3780  0.8565 -3.0871
19259TIP3   OH279191   3.738   0.309  16.934  0.6491 -0.0456  0.0778
19259TIP3    H179192   3.765   0.279  16.847  2.2436  1.1140  0.1395
19259TIP3    H279193   3.793   0.260  16.995  0.3646  0.0013  0.3772
19260TIP3   OH279194   4.640   6.135  14.172 -0.2329  0.0311 -0.1346
19260TIP3    H179195   4.650   6.200  14.241  1.5661 -0.4061  0.0394
19260TIP3    H279196   4.713   6.074  14.185 -0.8672 -1.0306 -1.3663
19261TIP3   OH279197   2.552   4.102  14.446 -0.2218  0.3938 -0.3316
19261TIP3    H179198   2.571   4.058  14.362  0.3918  1.7250 -0.9027
19261TIP3    H279199   2.597   4.048  14.511  0.7767  0.3331 -1.0580
19262TIP3   OH279200   3.236   1.752   0.127  0.2903  0.1710  0.3016
19262TIP3    H179201   3.240   1.835   0.080 -0.9805  0.4387  0.6315
19262TIP3    H279202   3.325   1.736   0.157  0.2915  2.0665  1.3513
19263TIP3   OH279203   3.283   6.742   1.521 -0.2456 -0.1374  0.9827
19263TIP3    H179204   3.297   6.656   1.480  1.0274 -0.6512  2.4654
19263TIP3    H279205   3.257   6.799   1.448  0.5626 -1.3710 -0.2995
19264TIP3   OH279206   5.913   5.319   1.974  0.5164 -0.1366  0.5703
19264TIP3    H179207   5.929   5.352   1.886  3.2763 -2.1218  0.2356
19264TIP3    H279208   5.870   5.391   2.020  3.5363  2.7613 -0.9601
19265TIP3   OH279209   0.232   0.961   5.483  0.2318  0.0864  0.2342
19265TIP3    H179210   0.147   0.941   5.446  1.4622 -0.5482 -2.3776
19265TIP3    H279211   0.257   0.881   5.529 -0.0515 -0.1834 -0.0766
19266TIP3   OH279212   4.829   4.774   2.891 -0.4951 -0.1674  0.0553
19266TIP3    H179213   4.804   4.816   2.809 -1.6932  0.3180  0.6489
19266TIP3    H279214   4.853   4.846   2.949  1.2105 -0.5670 -0.1454
19267TIP3   OH279215   3.208   5.140   6.851  0.1366 -0.0673 -1.0052
19267TIP3    H179216   3.137   5.204   6.853 -0.3970 -0.6988  0.3662
19267TIP3    H279217   3.287   5.193   6.859 -0.3316  0.3752  0.9512
19268TIP3   OH279218   5.611   1.724   5.785 -0.0619 -0.3624  0.8419
19268TIP3    H179219   5.649   1.765   5.862  1.3084 -1.2803  0.6654
19268TIP3    H279220   5.592   1.634   5.812  1.4827 -1.0263 -0.1985
19269TIP3   OH279221   2.701   6.119  14.958 -0.4317 -0.5120  0.4263
19269TIP3    H179222   2.795   6.102  14.953 -0.2717  0.2210  0.8551
19269TIP3    H279223   2.662   6.065  14.889  0.0927 -2.3870  1.5543
19270TIP3   OH279224   4.425   1.364   2.516  0.1784 -0.0828  0.3180
19270TIP3    H179225   4.452   1.298   2.451 -1.2918 -0.8462  0.4477
19270TIP3    H279226   4.402   1.312   2.593 -1.2745  0.5577  0.3215
19271TIP3   OH279227   5.601   4.665  11.561 -0.3679  0.2689  0.7490
19271TIP3    H179228   5.538   4.615  11.612 -0.0074 -1.0581 -0.0851
19271TIP3    H279229   5.550   4.699  11.487 -0.3742  0.1894  0.7161
19272TIP3   OH279230   3.365   4.978  12.676  0.2408  0.0061 -0.1281
19272TIP3    H179231   3.295   5.025  12.630  1.6102  0.4752 -1.7496
19272TIP3    H279232   3.365   4.891  12.637  1.8674  0.6202 -1.5124
19273TIP3   OH279233   5.148   0.040  16.621  0.0140 -0.3019  0.3385
19273TIP3    H179234   5.122   0.041  16.713  0.3748 -0.5359  0.4480
19273TIP3    H279235   5.109   0.118  16.583 -0.2853 -0.3011  0.6484
19274TIP3   OH279236   5.595   5.851  10.587 -0.0057 -0.2539 -0.5818
19274TIP3    H179237   5.690   5.845  10.577  0.0838  0.1323 -0.0015
19274TIP3    H279238   5.563   5.764  10.564  0.5740 -0.6653  0.1514
19275TIP3   OH279239   6.480   2.517  15.021  0.4401 -0.2579  0.0484
19275TIP3    H179240   6.496   2.435  15.067  3.4567  0.2274 -0.0368
19275TIP3    H279241   6.512   2.501  14.932 -2.1931 -0.0802 -0.9913
19276TIP3   OH279242   1.269   5.846   5.577 -1.5062 -0.5248  0.1888
19276TIP3    H179243   1.330   5.782   5.539  0.9720  1.6679  0.2995
19276TIP3    H279244   1.268   5.918   5.514 -2.9049  0.0762  0.8921
19277TIP3   OH279245   4.467   2.224   1.412 -0.5530  0.6997 -0.5112
19277TIP3    H179246   4.378   2.201   1.439 -0.7414  2.0925  0.1062
19277TIP3    H279247   4.458   2.310   1.369  0.2901  0.1949 -1.7297
19278TIP3   OH279248   1.886   1.687   3.852  0.2686  0.3339 -1.0627
19278TIP3    H179249   1.884   1.674   3.947  0.5910 -0.2486 -1.1312
19278TIP3    H279250   1.816   1.750   3.835 -1.3625 -1.3395 -0.7040
19279TIP3   OH279251   3.457   4.601  17.003  0.1711 -0.5277  0.5986
19279TIP3    H179252   3.531   4.636  17.053 -0.2312 -0.2917  1.0382
19279TIP3    H279253   3.394   4.673  17.000  0.1138 -0.6038 -0.0960
19280TIP3   OH279254   3.298   5.921   6.327  0.2536  0.1788 -0.0423
19280TIP3    H179255   3.219   5.948   6.374  0.0648 -0.2318 -0.1157
19280TIP3    H279256   3.339   6.003   6.298 -1.7061  0.3406 -2.5828
19281TIP3   OH279257   4.901   3.049  15.130 -0.0778  0.0247 -0.3009
19281TIP3    H179258   4.891   3.103  15.209  0.0802  1.0524 -0.9768
19281TIP3    H279259   4.822   2.994  15.128 -0.1911  0.1559  0.4475
19282TIP3   OH279260   2.807   5.116   1.553 -0.1771 -1.3794 -0.4369
19282TIP3    H179261   2.712   5.129   1.555  0.0794  0.6711 -0.7307
19282TIP3    H279262   2.824   5.077   1.467 -0.6376 -0.7615 -0.8123
19283TIP3   OH279263   3.299   1.526   5.213  0.0071 -0.0516  0.3452
19283TIP3    H179264   3.312   1.621   5.212 -0.6748  0.0389 -0.9337
19283TIP3    H279265   3.388   1.490   5.215  0.3057  0.6025 -0.5854
19284TIP3   OH279266   5.056   2.386   1.693 -0.1000  0.1353 -0.2445
19284TIP3    H179267   4.987   2.437   1.737 -1.3228  0.3490 -2.3437
19284TIP3    H279268   5.062   2.305   1.744 -0.9929  0.6749  0.7374
19285TIP3   OH279269   2.047   0.500  12.557 -0.1688 -0.1652  0.6715
19285TIP3    H179270   2.123   0.451  12.586  1.2827 -0.1541 -2.8504
19285TIP3    H279271   1.987   0.433  12.522  0.4022  0.2120 -1.1044
19286TIP3   OH279272   2.997   1.683   3.064 -0.2339  0.0549 -0.3670
19286TIP3    H179273   3.009   1.714   3.154  1.3564 -0.7459 -0.2690
19286TIP3    H279274   2.943   1.605   3.073 -1.1687  0.7142 -0.2421
19287TIP3   OH279275   6.417   1.087   3.917  0.1106 -0.2672  0.0517
19287TIP3    H179276   6.323   1.073   3.919 -0.1851  1.6254  0.2709
19287TIP3    H279277   6.428   1.181   3.905  1.8858  0.4598  5.6258
19288TIP3   OH279278   6.487   6.642   1.419  0.1940  0.7005  0.5431
19288TIP3    H179279   6.404   6.651   1.466 -0.3285 -0.4322 -0.1338
19288TIP3    H279280   6.532   6.570   1.465  0.4752  0.8119  0.4418
19289TIP3   OH279281   0.152   5.265  13.917 -0.5519 -0.3309 -0.3807
19289TIP3    H179282   0.062   5.232  13.925 -0.1949 -1.0176  1.0128
19289TIP3    H279283   0.206   5.198  13.959  0.6821 -0.2018 -1.7358
19290TIP3   OH279284   2.167   2.209  13.985 -0.5018  0.0318 -0.5138
19290TIP3    H179285   2.072   2.202  13.978 -0.3838 -2.1309 -0.3479
19290TIP3    H279286   2.193   2.131  14.035  1.5891 -0.7277 -2.6992
19291TIP3   OH279287   1.046   3.596   3.800  0.2482  0.0106 -0.3487
19291TIP3    H179288   0.978   3.532   3.780 -0.2124  0.8095 -1.3663
19291TIP3    H279289   1.044   3.657   3.727  2.8442 -0.6150 -1.0182
19292TIP3   OH279290   0.787   2.606  10.722 -0.3268  0.1424  0.0126
19292TIP3    H179291   0.853   2.667  10.754  1.4875 -1.0893 -1.2918
19292TIP3    H279292   0.812   2.521  10.760 -2.8885  0.1705  1.9128
19293TIP3   OH279293   6.612   2.531  11.558  0.0330  0.6515  0.4626
19293TIP3    H179294   6.624   2.470  11.485  0.9546 -0.2190  1.3152
19293TIP3    H279295   6.520   2.556  11.553 -0.9179 -2.4271  1.2814
19294TIP3   OH279296   6.548   0.443  15.423  0.1619  0.1132 -0.1476
19294TIP3    H179297   6.511   0.448  15.511  1.6315  1.6520  0.4208
19294TIP3    H279298   6.498   0.375  15.379 -1.4960  0.2740  1.4459
19295TIP3   OH279299   2.999   4.064   6.556 -0.1431 -0.1410  0.0972
19295TIP3    H179300   2.910   4.031   6.572 -0.3121  0.2354 -0.0379
19295TIP3    H279301   3.008   4.064   6.461 -0.0470 -0.0623  0.1057
19296TIP3   OH279302   1.225   0.687  13.131  0.6116 -0.2196 -0.2183
19296TIP3    H179303   1.243   0.617  13.193  2.9485  0.4651 -0.0584
19296TIP3    H279304   1.285   0.670  13.058 -0.8793 -0.0335 -1.5089
19297TIP3   OH279305   5.778   2.256  14.724 -0.0822 -0.0620 -0.4465
19297TIP3    H179306   5.782   2.163  14.704 -0.5351 -0.3576  0.8079
19297TIP3    H279307   5.865   2.277  14.758  1.3606  0.8748 -4.3876
19298TIP3   OH279308   5.188   1.742   0.621  0.8723  0.2712 -0.4320
19298TIP3    H179309   5.185   1.676   0.691  0.1541  0.6790 -0.0789
19298TIP3    H279310   5.098   1.772   0.612  1.1933  1.2189 -0.5828
19299TIP3   OH279311   1.323   0.199   0.189 -0.6961 -0.1785  0.1076
19299TIP3    H179312   1.293   0.122   0.237 -0.8218 -0.6247 -0.6727
19299TIP3    H279313   1.297   0.273   0.244  0.9145 -0.7486  1.6587
19300TIP3   OH279314   0.201   3.394  12.307  0.0358  0.1616 -0.3161
19300TIP3    H179315   0.222   3.325  12.370 -0.7464 -0.8581 -1.1726
19300TIP3    H279316   0.286   3.433  12.285  0.4060 -0.0555  0.6890
19301TIP3   OH279317   1.086   4.617  12.438 -0.1254  0.1483  0.2162
19301TIP3    H179318   1.045   4.638  12.354  1.7510  0.7250 -0.5845
19301TIP3    H279319   1.174   4.588  12.415  0.0335 -0.7827  1.9223
19302TIP3   OH279320   6.060   1.796  11.967  0.0330  0.2719 -0.4264
19302TIP3    H179321   6.005   1.799  12.045 -0.7877  0.6346 -1.0158
19302TIP3    H279322   6.134   1.853  11.987  0.6814 -0.9411  0.7265
19303TIP3   OH279323   2.986   4.547   0.110 -0.1170  0.1178  0.1463
19303TIP3    H179324   2.988   4.488   0.185  2.0280 -1.2591 -0.9289
19303TIP3    H279325   2.953   4.493   0.038  2.7855 -0.1331 -1.0796
19304TIP3   OH279326   0.765   2.200  10.345  0.6372  0.1287 -0.3016
19304TIP3    H179327   0.727   2.214  10.432  1.6755 -2.4684  0.5952
19304TIP3    H279328   0.709   2.133  10.305  0.4877  0.9170 -1.4461
19305TIP3   OH279329   1.290   4.279  11.266 -0.3158  0.4357 -1.3320
19305TIP3    H179330   1.386   4.284  11.266 -0.2981  0.1032 -1.2411
19305TIP3    H279331   1.270   4.199  11.217 -0.5178  0.0612 -0.6428
19306TIP3   OH279332   3.733   5.663   4.888  0.5329 -0.0589 -0.7528
19306TIP3    H179333   3.718   5.602   4.960  0.4086  0.0857 -0.6548
19306TIP3    H279334   3.668   5.639   4.822 -1.1429  1.5012  0.2675
19307TIP3   OH279335   3.617   0.598  17.184 -0.0720  0.4948 -0.0543
19307TIP3    H179336   3.655   0.611  17.271  0.8138  0.6798 -0.4678
19307TIP3    H279337   3.534   0.552  17.201  0.2160  0.3040  0.8630
19308TIP3   OH279338   4.949   4.997  11.771 -0.4872  0.2248  0.3799
19308TIP3    H179339   4.886   5.040  11.828 -2.7019  1.8613 -3.1066
19308TIP3    H279340   4.916   4.907  11.762 -1.5507  0.6826 -0.3241
19309TIP3   OH279341   4.162   3.921  14.356  0.6000 -0.2311 -0.2506
19309TIP3    H179342   4.183   3.958  14.271  0.5021 -0.0993 -0.2166
19309TIP3    H279343   4.115   3.840  14.336 -1.7627  1.1016 -0.3329
19310TIP3   OH279344   6.046   1.587   5.515 -0.8887 -0.3242  0.2771
19310TIP3    H179345   6.037   1.667   5.567  0.6027 -0.3165  0.5551
19310TIP3    H279346   6.044   1.517   5.580  0.3009 -0.3520  0.3036
19311TIP3   OH279347   3.477   1.385  12.010  0.1658 -0.3770  0.6292
19311TIP3    H179348   3.386   1.370  12.036 -0.5224  3.5302  0.8093
19311TIP3    H279349   3.478   1.370  11.916 -0.5610 -0.8994  0.6992
19312TIP3   OH279350   4.851   0.455   3.635  0.2964 -0.0407 -0.2121
19312TIP3    H179351   4.809   0.536   3.604  0.3693  0.4473  0.9404
19312TIP3    H279352   4.840   0.458   3.730  0.9922 -1.0114 -0.1017
19313TIP3   OH279353   5.709   6.642  15.498 -0.0157 -0.3649  0.3394
19313TIP3    H179354   5.661   6.623  15.578  2.3517 -1.7327  1.4624
19313TIP3    H279355   5.736   6.734  15.507 -1.3531  0.0483  0.2389
19314TIP3   OH279356   5.576   2.915   6.403 -0.5074  0.3343 -0.5677
19314TIP3    H179357   5.513   2.985   6.385 -0.4993  0.8560  1.2521
19314TIP3    H279358   5.606   2.934   6.492  2.1895  0.0645 -1.3970
19315TIP3   OH279359   2.540   3.175  14.258  0.5013 -0.0749  0.3132
19315TIP3    H179360   2.614   3.220  14.219  0.1959 -0.3342 -0.5762
19315TIP3    H279361   2.463   3.224  14.228  0.2488 -0.4431  0.3467
19316TIP3   OH279362   4.327   2.116  14.444  0.4824  0.2876  0.0918
19316TIP3    H179363   4.402   2.089  14.497 -0.2863  3.2502  2.8347
19316TIP3    H279364   4.314   2.208  14.466 -3.8844 -0.1105 -0.4336
19317TIP3   OH279365   5.930   0.195   5.577 -0.4249  0.3094 -0.6963
19317TIP3    H179366   6.003   0.190   5.639 -1.7087 -0.2265  0.8247
19317TIP3    H279367   5.955   0.263   5.515  1.2994  0.2242 -0.1146
19318TIP3   OH279368   6.767   3.717  12.416  0.0206 -0.0205  0.0646
19318TIP3    H179369   6.753   3.812  12.417 -0.9492 -0.1521  2.2979
19318TIP3    H279370   6.861   3.707  12.431 -0.2176  0.5703  2.1451
19319TIP3   OH279371   0.007   3.917  12.712 -0.5471 -0.7517  0.4212
19319TIP3    H179372  -0.043   3.985  12.667  0.6175 -0.2004 -0.0590
19319TIP3    H279373  -0.054   3.844  12.721 -1.0155 -0.6170 -1.4604
19320TIP3   OH279374   2.581   3.500  16.275  0.6173  0.2589  0.0024
19320TIP3    H179375   2.645   3.429  16.282  0.0414 -0.1622  1.0127
19320TIP3    H279376   2.634   3.579  16.261  1.2861 -0.2833 -0.5441
19321TIP3   OH279377   2.376   1.215  10.505  0.2744 -0.2127 -0.1307
19321TIP3    H179378   2.453   1.173  10.464 -0.0680 -0.3970 -0.5929
19321TIP3    H279379   2.356   1.160  10.581 -0.7273 -1.4265 -1.2465
19322TIP3   OH279380   0.132   3.833   2.555 -0.1987  0.4203 -0.3160
19322TIP3    H179381   0.169   3.916   2.583 -1.2489  0.9467 -0.4749
19322TIP3    H279382   0.037   3.847   2.556 -0.4189 -0.9875  0.3435
19323TIP3   OH279383   3.980   0.741   4.660 -0.6582 -0.3506  0.2326
19323TIP3    H179384   3.939   0.664   4.621 -2.2610 -0.8849  2.8755
19323TIP3    H279385   4.033   0.706   4.731  0.6560  0.7864 -0.1642
19324TIP3   OH279386   1.167   1.442  16.733 -0.2958  0.4014 -0.4684
19324TIP3    H179387   1.190   1.350  16.745 -0.5287  0.1662 -1.7328
19324TIP3    H279388   1.242   1.480  16.687  0.0450  0.9883  0.5339
19325TIP3   OH279389   4.686   5.714  15.274 -0.8289  0.2717 -0.4446
19325TIP3    H179390   4.755   5.720  15.339 -0.4171 -0.4670 -0.8046
19325TIP3    H279391   4.632   5.640  15.301 -0.2987 -0.4265 -1.2715
19326TIP3   OH279392   5.118   1.741   5.978 -0.1301  0.3281  0.0704
19326TIP3    H179393   5.101   1.690   5.898  0.9575 -0.4766  0.3424
19326TIP3    H279394   5.039   1.729   6.031 -0.9693  1.0754 -0.9811
19327TIP3   OH279395   2.784   3.748   2.074 -0.0773  0.2901 -0.0021
19327TIP3    H179396   2.759   3.660   2.046  1.8159 -0.5217  0.7729
19327TIP3    H279397   2.876   3.740   2.100  0.5776  2.8193 -1.3328
19328TIP3   OH279398   4.732   0.906   0.875 -0.3009 -0.3085 -0.9045
19328TIP3    H179399   4.779   0.967   0.931  0.7767 -0.5730 -1.5046
19328TIP3    H279400   4.670   0.862   0.933 -0.6439  0.8932 -0.3467
19329TIP3   OH279401   4.857   6.314   0.649  0.3052 -0.6633 -0.7543
19329TIP3    H179402   4.885   6.403   0.670  0.3009 -0.1952 -2.6449
19329TIP3    H279403   4.772   6.305   0.693  1.0568 -0.3331  0.8037
19330TIP3   OH279404   3.299   0.700  13.970  0.3923  0.6059 -0.1896
19330TIP3    H179405   3.222   0.652  13.940  0.7826  0.1403 -0.4505
19330TIP3    H279406   3.264   0.774  14.020 -0.2531  1.5477 -2.0208
19331TIP3   OH279407   0.836   6.161   3.385  0.3196 -0.1404 -0.3646
19331TIP3    H179408   0.903   6.110   3.340 -1.4847 -2.0695 -0.9245
19331TIP3    H279409   0.795   6.100   3.446  0.8265  1.7092  1.9155
19332TIP3   OH279410   1.934   5.915  11.506 -0.1571 -0.1478  0.2595
19332TIP3    H179411   1.852   5.910  11.457 -0.3846  0.9194  0.5271
19332TIP3    H279412   1.919   5.983  11.572  0.1862 -1.5155  1.7670
19333TIP3   OH279413   5.367   5.656  14.814 -0.1995  0.2598 -0.0913
19333TIP3    H179414   5.352   5.656  14.909 -0.2468  2.9828 -0.0359
19333TIP3    H279415   5.321   5.579  14.782 -0.7521 -0.3324  2.0219
19334TIP3   OH279416   6.042   3.939  14.647  0.3499 -0.0628 -0.0300
19334TIP3    H179417   6.134   3.959  14.634  0.2175  1.2812  1.0136
19334TIP3    H279418   6.004   4.020  14.681 -0.5413 -1.6047  2.7889
19335TIP3   OH279419   0.064   2.993   5.172  0.0041 -0.1137  0.0892
19335TIP3    H179420   0.063   2.959   5.083  0.0181 -0.5612  0.2617
19335TIP3    H279421   0.094   3.084   5.163  0.7715 -0.4002 -0.2795
19336TIP3   OH279422   1.124   3.618   1.755 -0.1126 -0.0478  0.1417
19336TIP3    H179423   1.128   3.700   1.708  0.4654  0.5411  1.1835
19336TIP3    H279424   1.031   3.602   1.770 -0.2919 -0.1714 -1.0460
19337TIP3   OH279425   6.361   4.293  15.085  0.6653 -0.2486 -0.0768
19337TIP3    H179426   6.268   4.312  15.068  0.3783  0.6138  2.3005
19337TIP3    H279427   6.404   4.378  15.080  1.9028 -1.0156 -4.2336
19338TIP3   OH279428   0.672   0.935  15.619 -0.1825 -0.8959  0.4209
19338TIP3    H179429   0.709   0.918  15.706 -0.1325 -0.2114  0.5399
19338TIP3    H279430   0.748   0.955  15.565 -0.1392 -2.0823  0.0245
19339TIP3   OH279431   3.205   5.668  17.088  0.5502 -0.0120 -0.6164
19339TIP3    H179432   3.115   5.655  17.115  0.6799 -1.9037 -0.9778
19339TIP3    H279433   3.199   5.693  16.996  0.3061  2.0835 -0.0437
19340TIP3   OH279434   3.152   0.915  12.971  0.0753 -0.0394 -0.4087
19340TIP3    H179435   3.119   1.005  12.980 -0.7078 -0.4293  0.7703
19340TIP3    H279436   3.121   0.887  12.885 -0.9057  0.3288 -0.1820
19341TIP3   OH279437   6.573   1.884  11.958 -0.3632  0.0644 -0.6158
19341TIP3    H179438   6.594   1.797  11.923  2.2673  0.7275 -0.8280
19341TIP3    H279439   6.646   1.904  12.016 -1.1260  1.9989 -0.2955
19342TIP3   OH279440   3.311   6.757  11.997  0.1908 -0.2076  0.6117
19342TIP3    H179441   3.287   6.702  11.921 -2.1363  1.1908  0.2989
19342TIP3    H279442   3.258   6.836  11.987  2.1491  1.3258  2.0684
19343TIP3   OH279443   2.973   5.416   0.271 -0.0461  0.3475 -0.0250
19343TIP3    H179444   2.997   5.339   0.322  1.2791  0.9261  0.2665
19343TIP3    H279445   2.926   5.382   0.195  0.5947 -0.7494  0.0585
19344TIP3   OH279446   3.893   1.159  13.361  0.0656  0.3730  0.2352
19344TIP3    H179447   3.838   1.080  13.360  1.1857 -0.4016 -2.0677
19344TIP3    H279448   3.842   1.224  13.314  0.5783  0.0244 -0.8057
19345TIP3   OH279449   2.468   2.851   4.500 -0.9997 -0.0399  0.3717
19345TIP3    H179450   2.462   2.851   4.404  0.4655 -0.2071  0.2660
19345TIP3    H279451   2.381   2.826   4.530 -1.8142  1.2131 -0.9023
19346TIP3   OH279452   1.630   6.392  13.930 -0.0882  0.1562 -0.1789
19346TIP3    H179453   1.592   6.340  13.860  0.8780 -1.0737  0.2027
19346TIP3    H279454   1.637   6.332  14.004  1.7993  0.5887  0.0104
19347TIP3   OH279455   1.118   3.917   1.635 -0.1813  0.1925  0.5167
19347TIP3    H179456   1.052   3.921   1.704 -0.5895  0.8781  0.0869
19347TIP3    H279457   1.196   3.883   1.679 -0.5476  0.2666  1.2318
19348TIP3   OH279458   4.721   4.095  15.563 -0.2413  0.0464 -0.2486
19348TIP3    H179459   4.764   4.178  15.584  0.8192 -0.6682  0.4431
19348TIP3    H279460   4.792   4.032  15.556 -1.0668 -0.8885 -0.4049
19349TIP3   OH279461   1.387   5.300   6.080 -0.1250 -0.7543 -0.1228
19349TIP3    H179462   1.443   5.376   6.064 -0.8416 -0.4233 -1.1259
19349TIP3    H279463   1.327   5.329   6.149 -0.0594 -0.5869 -0.1344
19350TIP3   OH279464   0.371   4.626  10.368 -0.0680 -0.2145  0.0484
19350TIP3    H179465   0.344   4.581  10.448 -1.2586 -0.7825 -0.6550
19350TIP3    H279466   0.304   4.693  10.354 -1.1356 -1.5834 -1.6760
19351TIP3   OH279467   3.347   1.677   0.907  0.8327  0.5474  0.7690
19351TIP3    H179468   3.327   1.597   0.954  1.1214 -1.3022 -2.1123
19351TIP3    H279469   3.440   1.692   0.923  1.0091 -0.2611  0.5358
19352TIP3   OH279470   5.752   1.201   2.023 -0.1369  0.4606  0.5806
19352TIP3    H179471   5.826   1.220   2.080 -0.3585  1.1488  0.6436
19352TIP3    H279472   5.699   1.138   2.072  0.7509 -0.5410  0.2507
19353TIP3   OH279473   6.013   1.423  11.070 -0.4180  0.1372 -0.0906
19353TIP3    H179474   6.071   1.464  11.134  1.1479 -1.4969 -0.3964
19353TIP3    H279475   6.011   1.485  10.997  0.8188  0.3079  0.0003
19354TIP3   OH279476   1.827   3.845   4.631  0.4447 -0.4404  0.3644
19354TIP3    H179477   1.765   3.894   4.577  0.0799 -0.3669  0.8563
19354TIP3    H279478   1.808   3.872   4.720 -0.7191 -2.5605  0.7762
19355TIP3   OH279479   6.418   6.352  12.025  0.0342  0.4513  0.3077
19355TIP3    H179480   6.366   6.416  11.978 -0.7260 -0.3647  0.0242
19355TIP3    H279481   6.356   6.305  12.081  0.4193 -0.6458 -0.1570
19356TIP3   OH279482   4.864   3.789  15.212 -0.3128  0.3728 -0.0120
19356TIP3    H179483   4.816   3.848  15.154  0.6581  0.9504 -0.2253
19356TIP3    H279484   4.881   3.840  15.290 -0.5160 -0.0136  0.2895
19357TIP3   OH279485   1.085   5.029   0.824 -0.0508 -0.0104 -0.1156
19357TIP3    H179486   1.061   5.020   0.916  0.9200 -0.8282  0.0545
19357TIP3    H279487   1.079   4.941   0.788 -0.2869  0.2826 -0.8146
19358TIP3   OH279488   1.861   1.425   0.050 -0.4966 -0.1955  0.3083
19358TIP3    H179489   1.852   1.402   0.143 -2.2187  0.7097  0.3818
19358TIP3    H279490   1.813   1.356   0.003 -1.1958  0.3470  0.2161
19359TIP3   OH279491   0.359   5.876   4.338  0.6948  0.0389 -0.3781
19359TIP3    H179492   0.266   5.868   4.362  0.4079  0.0542 -1.4524
19359TIP3    H279493   0.406   5.847   4.416 -0.1972  1.3104  0.6534
19360TIP3   OH279494   4.371   5.777  12.363 -0.2919 -0.1364 -0.1562
19360TIP3    H179495   4.285   5.744  12.335 -0.1847  1.2723 -2.2627
19360TIP3    H279496   4.433   5.728  12.309  0.0129  1.4527 -1.2598
19361TIP3   OH279497   1.106   3.211  12.464  0.1968 -0.1624  0.4463
19361TIP3    H179498   1.032   3.159  12.495 -0.9828  0.1155 -1.7943
19361TIP3    H279499   1.167   3.146  12.428  0.2508 -0.2491  0.6905
19362TIP3   OH279500   0.270   1.816  16.135 -0.4512 -0.1250 -0.2660
19362TIP3    H179501   0.353   1.861  16.146 -0.4882 -0.0658 -0.2264
19362TIP3    H279502   0.212   1.857  16.199 -0.0596 -1.2901  0.8595
19363TIP3   OH279503   2.042   0.333   3.384  0.0600  0.0813 -0.5521
19363TIP3    H179504   1.978   0.267   3.412  0.8137 -0.5706 -0.3449
19363TIP3    H279505   2.097   0.346   3.461 -0.9485  2.0015 -0.1339
19364TIP3   OH279506   1.113   2.301  15.564  0.5239  0.3014 -0.3452
19364TIP3    H179507   1.206   2.299  15.587  0.0989 -0.5674  1.4250
19364TIP3    H279508   1.087   2.209  15.561 -0.0984  0.5152 -1.6251
19365TIP3   OH279509   0.856   6.073   0.618 -0.0747  0.1181 -0.4158
19365TIP3    H179510   0.841   5.989   0.576  1.5793 -0.5369  0.2601
19365TIP3    H279511   0.786   6.129   0.586 -1.6760 -1.7399 -0.2324
19366TIP3   OH279512   4.170   1.237   1.345  0.2241  0.2847  0.7713
19366TIP3    H179513   4.182   1.312   1.286 -2.6722 -0.4251 -0.7911
19366TIP3    H279514   4.213   1.164   1.300 -0.8132  0.0434  0.1576
19367TIP3   OH279515   1.832   1.847  12.326  0.4235 -0.9595  0.4120
19367TIP3    H179516   1.804   1.909  12.259  0.8844 -1.7985 -0.5580
19367TIP3    H279517   1.926   1.860  12.333  0.2024 -0.0026  1.7906
19368TIP3   OH279518   2.939   1.462   3.245 -0.3062  0.1296  0.2463
19368TIP3    H179519   2.900   1.379   3.272 -0.9545  1.0112  2.0775
19368TIP3    H279520   2.998   1.486   3.317  1.7159  0.0871 -1.3335
19369TIP3   OH279521   5.511   4.083   4.243 -0.1761  0.0238 -0.5348
19369TIP3    H179522   5.571   4.009   4.232  0.6105  0.9352 -2.8286
19369TIP3    H279523   5.434   4.059   4.191 -0.4024  0.3111 -0.3340
19370TIP3   OH279524   3.325   4.278  15.536  0.3496  0.1845 -0.4720
19370TIP3    H179525   3.232   4.292  15.519 -0.2423 -1.8116  1.0192
19370TIP3    H279526   3.334   4.183  15.547  2.4513  0.4123  0.0038
19371TIP3   OH279527   5.828   1.022  11.541 -0.1770 -0.3754 -0.0496
19371TIP3    H179528   5.790   1.087  11.483  0.8987  0.7264  0.4679
19371TIP3    H279529   5.771   0.946  11.533 -1.2478  0.5160 -0.9113
19372TIP3   OH279530   4.399   4.777  11.704 -0.0772  0.1903 -0.3274
19372TIP3    H179531   4.407   4.832  11.626 -1.3130 -0.1387 -0.6998
19372TIP3    H279532   4.336   4.709  11.678  0.6208 -0.7697  0.4774
19373TIP3   OH279533   2.848   6.030   5.423 -0.0145 -0.1534 -0.1485
19373TIP3    H179534   2.824   5.977   5.499 -0.4235 -0.3642 -0.4207
19373TIP3    H279535   2.941   6.049   5.435  0.1221 -0.8812 -0.0090
19374TIP3   OH279536   6.531   5.112   2.373  0.7710 -0.8681 -0.1575
19374TIP3    H179537   6.593   5.044   2.348  1.1654  0.0879 -1.8293
19374TIP3    H279538   6.516   5.162   2.293 -1.1445 -0.2650  0.5365
19375TIP3   OH279539   1.575   1.913  16.095 -0.0628 -0.3982  0.2067
19375TIP3    H179540   1.484   1.898  16.117 -0.7302  0.4711 -1.8359
19375TIP3    H279541   1.591   1.861  16.016  0.6392  0.9202 -0.5624
19376TIP3   OH279542   2.188   6.611   1.454  0.2980  0.4170  0.2973
19376TIP3    H179543   2.239   6.653   1.523  1.5319 -1.0405  0.3150
19376TIP3    H279544   2.203   6.517   1.467 -1.2593  0.0256 -0.5894
19377TIP3   OH279545   1.118   2.456   3.923  0.0086  0.2232  0.3975
19377TIP3    H179546   1.124   2.543   3.885  2.2678 -0.0865 -0.0182
19377TIP3    H279547   1.158   2.464   4.009  2.5589 -0.9227 -0.6233
19378TIP3   OH279548   6.770   4.723  14.776 -0.2615 -0.1787  0.3879
19378TIP3    H179549   6.772   4.785  14.704 -3.5780 -3.0317 -2.2854
19378TIP3    H279550   6.682   4.731  14.813  0.1377 -1.4707  1.6631
19379TIP3   OH279551   0.485   2.292   4.979 -0.2332  0.1581 -0.1910
19379TIP3    H179552   0.481   2.236   4.901 -0.9779  0.7354 -0.5746
19379TIP3    H279553   0.408   2.349   4.971  1.1422  2.0202 -0.3918
19380TIP3   OH279554   1.287   4.322   2.311  0.1354 -0.3746 -0.9991
19380TIP3    H179555   1.291   4.401   2.257  1.2227 -0.3921 -0.9611
19380TIP3    H279556   1.362   4.270   2.282  1.0942 -0.1091  0.9691
19381TIP3   OH279557   1.706   6.208  15.095 -0.1063 -0.4312 -0.1686
19381TIP3    H179558   1.636   6.142  15.097  0.9592 -1.6131 -1.2188
19381TIP3    H279559   1.708   6.243  15.184 -0.7369 -1.7879  0.3951
19382TIP3   OH279560   6.779   2.671  13.876 -0.7218 -0.1641 -0.0062
19382TIP3    H179561   6.700   2.681  13.824 -1.4339 -0.3051  1.0375
19382TIP3    H279562   6.753   2.614  13.949  0.5001 -0.7482 -0.0085
19383TIP3   OH279563   3.137   6.167   1.992 -0.3404  0.2229  0.5748
19383TIP3    H179564   3.123   6.075   2.017 -1.4251  0.6050  1.4085
19383TIP3    H279565   3.180   6.162   1.907 -0.3403 -1.0637  0.6374
19384TIP3   OH279566   3.137   1.669  12.734 -0.4791 -0.3522 -0.6889
19384TIP3    H179567   3.172   1.663  12.823 -0.8097 -1.2842 -0.6188
19384TIP3    H279568   3.186   1.740  12.694  1.3289 -1.4883 -0.5191
19385TIP3   OH279569   4.764   2.575  16.436  0.6867 -0.1160 -0.6225
19385TIP3    H179570   4.799   2.596  16.350  1.1054 -0.1027 -0.4494
19385TIP3    H279571   4.796   2.645  16.493 -0.4455  0.4530 -0.6664
19386TIP3   OH279572   4.979   6.238  15.262  0.0697  0.6327  0.2002
19386TIP3    H179573   4.983   6.303  15.191  1.4521  1.7434  1.2775
19386TIP3    H279574   4.889   6.244  15.295 -0.6706 -0.0679 -1.5926
19387TIP3   OH279575   0.332   5.115  12.856  0.6355 -0.4450 -0.5307
19387TIP3    H179576   0.280   5.072  12.924 -0.0114  1.2748  0.1093
19387TIP3    H279577   0.331   5.053  12.783 -1.2451 -1.0265 -0.0695
19388TIP3   OH279578   4.327   6.581  10.534 -0.3982 -0.0554  0.4504
19388TIP3    H179579   4.273   6.518  10.580 -1.2874  0.8610  0.6879
19388TIP3    H279580   4.360   6.534  10.458 -2.2874 -0.3601 -0.2130
19389TIP3   OH279581   0.544   2.574   5.390  0.1891  0.2401 -0.6191
19389TIP3    H179582   0.473   2.622   5.431 -1.1494 -3.0496  1.1003
19389TIP3    H279583   0.622   2.597   5.441 -0.5587  0.0638  0.6154
19390TIP3   OH279584   2.792   3.950   0.719 -0.6067  0.2690 -0.0036
19390TIP3    H179585   2.790   3.859   0.746  2.1230  0.4558  1.0003
19390TIP3    H279586   2.803   3.947   0.624 -1.9971 -0.4247 -0.1488
19391TIP3   OH279587   3.840   3.325   2.547 -0.0496 -0.2399 -0.4658
19391TIP3    H179588   3.771   3.289   2.604 -0.4576  1.9729  0.5078
19391TIP3    H279589   3.922   3.302   2.592 -0.2401 -1.0887 -0.5448
19392TIP3   OH279590   5.261   2.339   5.940 -0.1955  0.2311  0.0537
19392TIP3    H179591   5.215   2.422   5.926 -1.7003 -0.3034  1.5494
19392TIP3    H279592   5.354   2.362   5.937 -0.5921  1.9523  0.2913
19393TIP3   OH279593   4.261   0.009   4.730 -0.2355  0.4705 -0.4010
19393TIP3    H179594   4.315   0.042   4.802 -1.6545  0.9808  0.4653
19393TIP3    H279595   4.195   0.077   4.717 -0.7642 -0.2037 -1.3372
19394TIP3   OH279596   3.159   6.726  15.135  0.0619  0.3945 -0.7564
19394TIP3    H179597   3.090   6.763  15.190 -0.4281  0.0696 -1.1445
19394TIP3    H279598   3.214   6.801  15.113  1.0953  0.2727  1.3513
19395TIP3   OH279599   5.155   1.746   1.050  0.0895 -0.1348 -0.0707
19395TIP3    H179600   5.212   1.820   1.033  0.5330  0.0993  2.3171
19395TIP3    H279601   5.070   1.785   1.070 -0.6614 -0.4416 -2.5231
19396TIP3   OH279602   1.087   2.900  15.549 -0.0131 -0.2868  0.2155
19396TIP3    H179603   1.050   2.877  15.464  2.4810  1.0200 -1.2844
19396TIP3    H279604   1.123   2.818  15.583  1.0524 -0.3799 -1.0832
19397TIP3   OH279605   0.591   6.104  16.307 -0.1344 -0.2059  0.3853
19397TIP3    H179606   0.524   6.036  16.302 -1.6139  1.2685 -0.2089
19397TIP3    H279607   0.576   6.147  16.391 -0.3959  0.5781 -0.0564
19398TIP3   OH279608   2.179   0.520   2.462 -0.0338  0.6389 -0.6995
19398TIP3    H179609   2.205   0.542   2.552  1.4004 -1.9494 -0.4349
19398TIP3    H279610   2.229   0.441   2.441 -1.6625  0.1985 -3.1598
19399TIP3   OH279611   6.244   1.576  16.917 -0.0073 -0.4156 -0.0874
19399TIP3    H179612   6.235   1.562  16.822  2.3530 -0.5952 -0.3168
19399TIP3    H279613   6.270   1.491  16.951 -0.7228 -0.3144  0.7104
19400TIP3   OH279614   3.923   1.258  13.061  0.3817 -0.2843  0.2518
19400TIP3    H179615   3.856   1.281  13.125 -0.7101 -0.3336 -0.8369
19400TIP3    H279616   3.923   1.163  13.059 -1.2117 -0.2918 -1.4227
19401TIP3   OH279617   2.667   0.418  12.380  0.6747 -0.0280 -0.2850
19401TIP3    H179618   2.592   0.369  12.414 -0.1291  0.8677 -0.7382
19401TIP3    H279619   2.709   0.358  12.319  1.2967 -1.1317  1.2210
19402TIP3   OH279620   2.717   6.400   5.721  0.2453 -0.3030  0.0741
19402TIP3    H179621   2.776   6.463   5.680 -0.0824  0.0525  0.1488
19402TIP3    H279622   2.632   6.418   5.682  0.1443 -0.6755  0.1243
19403TIP3   OH279623   5.820   2.325  13.930  0.3841 -0.5332  0.2617
19403TIP3    H179624   5.826   2.421  13.933 -1.5691 -0.3925  0.8734
19403TIP3    H279625   5.877   2.294  14.000  0.5051  0.2162  0.4966
19404TIP3   OH279626   0.517   2.778   3.797  0.1449  0.1270 -0.0429
19404TIP3    H179627   0.525   2.700   3.852  0.5551  0.2327  0.0493
19404TIP3    H279628   0.458   2.835   3.846  0.5260  0.2300  0.3041
19405TIP3   OH279629   3.333   5.780  11.989 -0.4673 -0.3476 -0.1063
19405TIP3    H179630   3.395   5.790  11.917  1.9819 -1.1282  1.8467
19405TIP3    H279631   3.252   5.819  11.955  0.2847 -1.6604 -3.6543
19406TIP3   OH279632   3.047   3.537   3.908 -0.3205 -0.2745 -0.2012
19406TIP3    H179633   3.121   3.478   3.923 -0.7479 -0.2294  2.2709
19406TIP3    H279634   2.989   3.488   3.849 -0.4441 -2.1401  1.4346
19407TIP3   OH279635   2.002   5.808  15.877  0.3196 -0.1598 -0.1790
19407TIP3    H179636   2.087   5.852  15.884  0.7517 -1.0612  0.4421
19407TIP3    H279637   1.950   5.864  15.820  0.5479  1.6200  1.3080
19408TIP3   OH279638   3.696   3.863  16.927  0.1834 -0.3071  0.4870
19408TIP3    H179639   3.754   3.843  16.854  0.2897 -2.3060  1.0849
19408TIP3    H279640   3.701   3.958  16.937  2.1390 -0.2982 -0.4597
19409TIP3   OH279641   0.632   2.502  16.572  0.6449 -0.0220  0.0974
19409TIP3    H179642   0.704   2.549  16.616  0.5018  1.5976 -1.3393
19409TIP3    H279643   0.631   2.537  16.483 -1.7962 -0.1810  0.0264
19410TIP3   OH279644   5.450   3.402  12.431  0.0015  0.0262 -0.1223
19410TIP3    H179645   5.432   3.451  12.351  0.0398 -0.9125 -0.7059
19410TIP3    H279646   5.542   3.376  12.424  0.1162  0.2790  0.4060
19411TIP3   OH279647   6.277   2.970  12.206  0.4313 -0.1245  0.2657
19411TIP3    H179648   6.199   2.938  12.161  0.7337 -0.7259  0.1645
19411TIP3    H279649   6.244   3.027  12.275 -0.0910 -0.2706  0.1351
19412TIP3   OH279650   3.781   5.979  12.928 -0.1612  0.4087  0.0033
19412TIP3    H179651   3.816   5.918  12.863  1.6420  1.0388  0.3323
19412TIP3    H279652   3.737   5.924  12.992  0.7913 -0.5023 -0.1041
19413TIP3   OH279653   0.644   3.058  16.510  0.0180 -0.0058 -0.5855
19413TIP3    H179654   0.737   3.040  16.523  0.5000  2.8722  0.3387
19413TIP3    H279655   0.619   3.108  16.588 -2.5504 -1.5137 -0.3770
19414TIP3   OH279656   4.890   1.754   5.368 -0.0103 -0.4962  0.3756
19414TIP3    H179657   4.810   1.803   5.386  0.7767  0.7662  0.5659
19414TIP3    H279658   4.954   1.821   5.342  0.9817 -1.4733  0.2381
19415TIP3   OH279659   5.760   2.168  15.544 -0.1526 -0.0109 -0.0392
19415TIP3    H179660   5.760   2.218  15.625 -1.0744  0.1086 -0.1054
19415TIP3    H279661   5.807   2.087  15.565  0.7444  0.5770  0.2540
19416TIP3   OH279662   1.682   3.384  16.302 -0.0017 -0.5453 -0.2869
19416TIP3    H179663   1.766   3.354  16.337  0.3825  1.1414  0.3158
19416TIP3    H279664   1.697   3.397  16.209  0.6674  0.5461 -0.0377
19417TIP3   OH279665   2.933   6.240   2.345 -0.2884  0.3761 -0.1492
19417TIP3    H179666   2.852   6.285   2.320  0.3989  0.7687 -1.6862
19417TIP3    H279667   2.957   6.189   2.268  1.1820  0.6086  0.1528
19418TIP3   OH279668   6.337   0.914   5.537  0.3908  0.2066 -0.1280
19418TIP3    H179669   6.361   0.860   5.612  1.7978 -0.9417 -1.3845
19418TIP3    H279670   6.264   0.968   5.569  0.3629 -0.9143  1.7736
19419TIP3   OH279671   4.363   0.195  11.546  1.0676 -0.5629  0.1712
19419TIP3    H179672   4.352   0.163  11.636 -1.4804 -2.6334 -0.8190
19419TIP3    H279673   4.395   0.285  11.556 -1.1994 -0.0116  3.1843
19420TIP3   OH279674   2.666   6.410  12.597 -0.1045  0.0481  0.3902
19420TIP3    H179675   2.708   6.325  12.583  0.3777  0.4737 -0.8783
19420TIP3    H279676   2.649   6.414  12.691  1.5990 -0.6634  0.7529
19421TIP3   OH279677   3.478   0.945   1.881  0.6019 -0.8147 -0.2794
19421TIP3    H179678   3.537   0.882   1.839  0.6852 -0.8839 -0.0542
19421TIP3    H279679   3.525   0.975   1.958  0.0300 -1.4239  0.3067
19422TIP3   OH279680   6.629   5.094  14.946  0.0226 -0.1998 -0.4280
19422TIP3    H179681   6.587   5.009  14.949 -0.6307  0.0695 -1.5210
19422TIP3    H279682   6.578   5.144  14.882 -0.2774  1.3684  0.9835
19423TIP3   OH279683   6.697   5.519  16.362 -0.6562  0.0888  0.3662
19423TIP3    H179684   6.647   5.573  16.302 -1.6165  0.5930  1.6073
19423TIP3    H279685   6.664   5.541  16.449 -0.4905 -1.8766  0.9619
19424TIP3   OH279686   3.243   3.919  15.862  0.5046  0.4502 -0.7414
19424TIP3    H179687   3.327   3.944  15.825 -0.3239 -0.9722 -3.6952
19424TIP3    H279688   3.182   3.986  15.832  0.3582  0.8742  0.4763
19425TIP3   OH279689   4.886   0.541   5.839  0.4699 -0.0514  0.4921
19425TIP3    H179690   4.909   0.549   5.931 -0.0515  0.0608  0.6198
19425TIP3    H279691   4.848   0.454   5.830  1.2947 -0.3863  0.2033
19426TIP3   OH279692   0.120   0.393  12.093 -0.1334  0.1156 -0.3063
19426TIP3    H179693   0.178   0.321  12.118  0.7258  0.8633 -0.1084
19426TIP3    H279694   0.163   0.434  12.018 -0.8041  0.2023 -0.6477
19427TIP3   OH279695   4.511   4.935   1.990  0.7925  0.1610 -0.1393
19427TIP3    H179696   4.601   4.903   1.986  0.2982 -1.1703 -0.8195
19427TIP3    H279697   4.462   4.863   2.029 -0.1560  0.4989 -0.7002
19428TIP3   OH279698   6.018   5.249   0.781  0.0529  0.2965 -0.3750
19428TIP3    H179699   5.937   5.272   0.826  0.2612 -1.5871  1.0585
19428TIP3    H279700   5.995   5.249   0.688 -2.1445 -2.0641  0.0866
19429TIP3   OH279701   4.331   2.971  11.113  0.0662 -0.0574  0.2532
19429TIP3    H179702   4.256   2.915  11.135  0.8868 -1.3807 -0.2778
19429TIP3    H279703   4.391   2.960  11.186 -0.8942  2.2254  1.4459
19430TIP3   OH279704   5.575   1.487  13.284  0.3497  0.4011 -0.1963
19430TIP3    H179705   5.494   1.518  13.242  0.3821  1.6734  0.6544
19430TIP3    H279706   5.545   1.419  13.345 -0.1782  1.2809  0.5520
19431TIP3   OH279707   0.141   4.173   0.143  0.4661 -0.1504  0.1005
19431TIP3    H179708   0.122   4.266   0.157  0.1682 -0.0690 -0.7979
19431TIP3    H279709   0.221   4.173   0.090  1.1829 -0.4290  1.1846
19432TIP3   OH279710   1.075   6.203   2.466 -0.1824 -0.3324 -0.5891
19432TIP3    H179711   1.150   6.261   2.455 -0.0569 -0.5723 -1.0317
19432TIP3    H279712   1.083   6.169   2.555 -0.1730  0.2053 -0.3807
19433TIP3   OH279713   1.613   5.834  15.112  0.7649 -0.4492  0.2610
19433TIP3    H179714   1.536   5.871  15.067  0.9303 -1.3251 -0.7547
19433TIP3    H279715   1.610   5.872  15.200 -1.3440 -1.1868  0.5261
19434TIP3   OH279716   2.667   1.677  13.037 -0.4421 -0.2788 -0.2670
19434TIP3    H179717   2.727   1.744  13.070  0.9475 -1.7468  0.2599
19434TIP3    H279718   2.613   1.653  13.112 -1.7939  1.0958 -0.7584
19435TIP3   OH279719   1.699   1.538  12.833 -0.7776  0.1370  0.0384
19435TIP3    H179720   1.696   1.548  12.738  2.5292  1.3099 -0.0104
19435TIP3    H279721   1.707   1.628  12.866 -1.9283 -0.2561  1.4256
19436TIP3   OH279722   1.480   3.373  15.857 -0.7460 -0.3004 -0.0404
19436TIP3    H179723   1.453   3.282  15.869 -1.0451 -0.1800  0.2174
19436TIP3    H279724   1.399   3.423  15.864 -0.8208 -0.1505 -1.8227
19437TIP3   OH279725   1.939   5.014   3.799 -0.3180  0.2690 -0.5775
19437TIP3    H179726   1.902   5.101   3.813  0.4439  0.5025 -0.0407
19437TIP3    H279727   1.967   4.985   3.885 -1.4745 -0.9234 -0.5834
19438TIP3   OH279728   0.963   2.463  14.060  0.5633  0.4148 -0.1412
19438TIP3    H179729   0.899   2.470  13.989  2.0746 -0.8910 -1.6774
19438TIP3    H279730   1.042   2.505  14.025  1.8083 -1.6247  0.1516
19439TIP3   OH279731   3.745   1.759  12.982  0.5655  0.6085  0.0637
19439TIP3    H179732   3.697   1.766  13.064  0.1545  2.0835 -0.2954
19439TIP3    H279733   3.788   1.843  12.972  2.7102 -0.4558  0.0405
19440TIP3   OH279734   1.096   2.105   6.000 -0.0932 -0.5330 -0.0558
19440TIP3    H179735   1.058   2.176   5.949 -0.8520 -0.8195  0.1077
19440TIP3    H279736   1.048   2.027   5.973  1.0517 -1.0603 -0.5649
19441TIP3   OH279737   2.800   4.894   4.418 -0.1131  0.5101  0.1787
19441TIP3    H179738   2.729   4.928   4.473 -0.5525  0.3844 -0.3054
19441TIP3    H279739   2.761   4.820   4.371  0.6420 -0.2194  0.6897
19442TIP3   OH279740   6.749   2.228   1.680  0.3238 -0.1816 -0.4152
19442TIP3    H179741   6.666   2.275   1.691  0.7220  0.3238  0.4452
19442TIP3    H279742   6.727   2.136   1.696 -0.0681 -0.0459 -0.1654
19443TIP3   OH279743   6.683   0.259  13.740  0.1566 -0.3598 -0.3325
19443TIP3    H179744   6.660   0.337  13.790 -0.9754 -1.2186  0.4933
19443TIP3    H279745   6.755   0.288  13.683 -0.7739  1.4879 -0.6058
19444TIP3   OH279746   5.275   0.339  11.245 -0.1491 -0.0622  0.2361
19444TIP3    H179747   5.310   0.279  11.311 -0.3266 -0.8509 -0.3840
19444TIP3    H279748   5.333   0.328  11.170 -1.1107 -0.5926 -0.4229
19445TIP3   OH279749   3.190   1.138  11.203 -0.0242  0.1720  0.4683
19445TIP3    H179750   3.152   1.068  11.255  1.3296 -1.3580 -0.5693
19445TIP3    H279751   3.270   1.163  11.250  0.6747 -0.5277 -0.3384
19446TIP3   OH279752   6.552   2.984  14.498 -0.1545 -0.2841 -0.0048
19446TIP3    H179753   6.547   2.935  14.415  0.6336  1.0787 -0.8818
19446TIP3    H279754   6.588   3.070  14.473 -0.6050  0.4060  1.6460
19447TIP3   OH279755   5.089   4.943   2.708  0.3288  0.5061 -0.8378
19447TIP3    H179756   5.106   4.908   2.621 -0.1401 -0.9478 -0.3615
19447TIP3    H279757   4.997   4.922   2.725  0.3498  0.9925 -0.0920
19448TIP3   OH279758   4.324   6.039   5.685 -0.5112 -0.9096 -0.0535
19448TIP3    H179759   4.327   6.114   5.743 -1.0234 -0.1305 -1.0206
19448TIP3    H279760   4.240   5.996   5.706 -0.8714 -0.4172 -0.4695
19449TIP3   OH279761   2.469   2.370  15.761 -0.9783  0.1158 -1.2622
19449TIP3    H179762   2.396   2.415  15.803 -1.3686 -0.2487 -1.5522
19449TIP3    H279763   2.432   2.333  15.681 -0.3284  0.4559 -1.7239
19450TIP3   OH279764   5.955   4.090  14.017  0.4120 -0.1339  0.2976
19450TIP3    H179765   5.929   4.066  14.106 -1.5927  1.6468  0.2368
19450TIP3    H279766   5.898   4.164  13.995  1.5586  0.0683 -2.1051
19451TIP3   OH279767   4.078   4.572   2.645  0.3701  0.6942  0.1074
19451TIP3    H179768   4.063   4.590   2.738  2.1419 -1.2155  0.7986
19451TIP3    H279769   3.992   4.550   2.610 -0.0424 -0.2907  1.7091
19452TIP3   OH279770   6.235   5.000   5.859 -0.4422 -0.2077  0.1982
19452TIP3    H179771   6.164   4.983   5.920  1.3880  2.0436  3.1094
19452TIP3    H279772   6.312   4.959   5.899  0.4029 -0.4879 -1.6358
19453TIP3   OH279773   4.626   3.469   3.029 -0.2874  0.4043  0.3420
19453TIP3    H179774   4.538   3.501   3.046 -0.6321 -0.1410 -0.3922
19453TIP3    H279775   4.662   3.530   2.965 -0.8773 -0.5450 -0.9156
19454TIP3   OH279776   4.198   4.189   3.032 -0.2042  0.3687  0.2584
19454TIP3    H179777   4.284   4.212   3.068 -0.0805  0.2168  0.0613
19454TIP3    H279778   4.136   4.220   3.098 -0.0645  1.6343 -0.2009
19455TIP3   OH279779   3.773   0.034   4.229 -0.0512  0.0406  0.1165
19455TIP3    H179780   3.844   0.097   4.234  0.3362 -0.4225  0.5521
19455TIP3    H279781   3.727   0.042   4.313 -0.6810  0.5260 -0.2668
19456TIP3   OH279782   2.074   2.685   6.409 -0.0439 -0.2882 -0.4701
19456TIP3    H179783   2.123   2.662   6.330  1.0044 -0.4082  0.2197
19456TIP3    H279784   2.060   2.602   6.455 -1.2914 -0.3237 -0.8771
19457TIP3   OH279785   2.563   1.185  12.014 -0.2975  0.7016  0.1361
19457TIP3    H179786   2.643   1.140  11.986 -0.5974 -0.5445  1.2749
19457TIP3    H279787   2.595   1.261  12.063  0.1871 -0.3078  1.3953
19458TIP3   OH279788   5.844   4.713   1.156  0.1613 -0.1052 -0.1759
19458TIP3    H179789   5.917   4.751   1.108  1.9164 -1.9208  0.9468
19458TIP3    H279790   5.766   4.750   1.116  1.7302  3.4118 -0.1354
19459TIP3   OH279791   6.648   3.067   1.672  0.2735  0.2086 -0.0969
19459TIP3    H179792   6.695   3.022   1.603  1.7669  0.4559  0.7309
19459TIP3    H279793   6.666   3.016   1.751 -1.3341 -0.0191  0.1422
19460TIP3   OH279794   0.919   6.299  14.991 -0.0757 -0.3038  0.1934
19460TIP3    H179795   0.834   6.290  14.947  0.0381  1.6982 -0.4768
19460TIP3    H279796   0.978   6.331  14.922  0.6332  0.7446  1.2877
19461TIP3   OH279797   6.239   2.238   2.311 -0.3882 -0.0047 -0.5727
19461TIP3    H179798   6.162   2.246   2.254  0.7678 -1.2876 -2.3875
19461TIP3    H279799   6.306   2.291   2.268  0.5882 -1.2090 -0.5876
19462TIP3   OH279800   1.935   5.864   4.758 -0.0890 -0.7988 -0.1686
19462TIP3    H179801   1.946   5.871   4.852  2.1936  0.2098 -0.4801
19462TIP3    H279802   1.840   5.863   4.744 -0.4472 -1.5416  2.1506
19463TIP3   OH279803   5.606   5.027  13.451  0.3209 -0.5097 -0.1244
19463TIP3    H179804   5.606   4.968  13.376 -0.6884  0.1938 -0.6836
19463TIP3    H279805   5.699   5.046  13.466  0.6149 -1.7198 -0.3347
19464TIP3   OH279806   0.438   3.948  13.671  0.0478  0.0871 -0.0562
19464TIP3    H179807   0.488   3.950  13.589 -0.8688 -0.1234 -0.6196
19464TIP3    H279808   0.472   4.022  13.721  0.1787  0.5878 -0.8779
19465TIP3   OH279809   1.418   2.400   1.721 -0.6928  0.5215  0.4209
19465TIP3    H179810   1.492   2.393   1.781 -0.4214 -1.0848 -0.0741
19465TIP3    H279811   1.420   2.319   1.671 -0.1675  2.3149 -2.6251
19466TIP3   OH279812   6.103   3.381   2.391 -0.9732 -0.3217 -0.2937
19466TIP3    H179813   6.188   3.355   2.357 -0.4884  0.6381  0.1888
19466TIP3    H279814   6.069   3.302   2.433  0.8975  0.0123  1.9798
19467TIP3   OH279815   5.841   0.897   0.579  0.0901 -0.1665  0.3687
19467TIP3    H179816   5.808   0.985   0.596  0.8763  0.1476  0.2630
19467TIP3    H279817   5.922   0.910   0.531 -1.6565 -1.0329 -2.9232
19468TIP3   OH279818   0.947   0.350  17.158  0.0091  0.3947 -0.4098
19468TIP3    H179819   1.035   0.320  17.181  0.2718  0.2281 -1.5931
19468TIP3    H279820   0.947   0.443  17.177  1.3151  0.9380 -2.8935
19469TIP3   OH279821   2.793   5.104  12.494  0.2465 -0.3892  0.1215
19469TIP3    H179822   2.865   5.103  12.431 -0.5461  0.9819 -0.8398
19469TIP3    H279823   2.731   5.039  12.460  1.2327 -1.9186  1.2124
19470TIP3   OH279824   6.752   0.169   4.011  0.3532 -0.3994  0.0593
19470TIP3    H179825   6.743   0.261   3.986 -0.1354 -0.8978 -1.6177
19470TIP3    H279826   6.697   0.160   4.089  2.0729  1.2106  1.4973
19471TIP3   OH279827   1.554   5.085  15.649  0.2533 -0.5680  0.1694
19471TIP3    H179828   1.635   5.134  15.643 -0.4065  0.2898 -2.7822
19471TIP3    H279829   1.502   5.131  15.715  1.0893  0.5222  0.0810
19472TIP3   OH279830   4.815   2.875   6.019  0.4716  0.0700 -0.4113
19472TIP3    H179831   4.730   2.878   6.063  0.0728  0.1856 -1.1853
19472TIP3    H279832   4.878   2.897   6.088 -0.1501  0.2798  0.0958
19473TIP3   OH279833   2.519   1.760  13.588 -0.2267 -0.3084  0.2025
19473TIP3    H179834   2.540   1.799  13.673 -0.2081 -0.9093  0.4799
19473TIP3    H279835   2.429   1.730  13.597  0.3648 -2.0308  0.6517
19474TIP3   OH279836   6.575   1.289  12.504  0.1098 -0.0065  0.7578
19474TIP3    H179837   6.592   1.272  12.597  0.5656  0.5735  0.7876
19474TIP3    H279838   6.566   1.202  12.465 -1.2223 -0.2425  1.5441
19475TIP3   OH279839   4.743   4.775   0.363 -0.3089  0.1923 -0.0901
19475TIP3    H179840   4.797   4.830   0.419 -1.2046  2.5126 -1.4010
19475TIP3    H279841   4.805   4.719   0.316  1.0326  2.9611 -1.7403
19476TIP3   OH279842   3.625   5.634  16.185 -0.7115  0.1133 -0.0651
19476TIP3    H179843   3.710   5.654  16.224 -0.3349 -0.9541 -0.3062
19476TIP3    H279844   3.563   5.639  16.258 -0.6373  2.1147 -0.1254
19477TIP3   OH279845   5.248   4.740   2.936  0.1829  0.8644  0.5862
19477TIP3    H179846   5.210   4.815   2.891  1.6082  1.6140  0.5985
19477TIP3    H279847   5.178   4.707   2.993 -0.6021  1.8776  0.2080
19478TIP3   OH279848   1.126   4.768   5.611 -0.1527 -0.1016 -0.0785
19478TIP3    H179849   1.165   4.849   5.577 -2.1069  0.7422 -0.3822
19478TIP3    H279850   1.181   4.744   5.685  2.5150 -0.4124 -2.0806
19479TIP3   OH279851   1.314   4.564   3.278 -0.5819 -0.4717 -0.5008
19479TIP3    H179852   1.401   4.555   3.317 -2.0746  2.3272  3.8510
19479TIP3    H279853   1.269   4.483   3.300  0.1066 -0.8284 -0.4129
19480TIP3   OH279854   4.269   4.304  11.924 -0.2757  0.0397 -0.5310
19480TIP3    H179855   4.327   4.298  11.849 -1.6788 -0.8381 -1.5532
19480TIP3    H279856   4.194   4.249  11.902 -0.2534 -1.0355  1.9207
19481TIP3   OH279857   1.600   2.957   0.199  0.1259  0.3069 -0.8334
19481TIP3    H179858   1.581   2.930   0.289  0.8485 -0.5960 -0.9441
19481TIP3    H279859   1.563   2.888   0.144  0.5936  0.3265 -1.1834
19482TIP3   OH279860   5.637   0.663  11.124  0.2914  0.4615 -0.3667
19482TIP3    H179861   5.565   0.724  11.141  0.0561  0.3152 -0.8595
19482TIP3    H279862   5.634   0.647  11.030 -1.1502 -2.2083  0.0895
19483TIP3   OH279863   1.573   6.488  16.265 -0.6188  0.4405  0.1619
19483TIP3    H179864   1.625   6.408  16.254  1.6689  1.4407  3.1127
19483TIP3    H279865   1.600   6.544  16.192  1.0036  0.1527  0.5035
19484TIP3   OH279866   6.502   0.687   1.578  0.2734  0.0843 -0.2040
19484TIP3    H179867   6.586   0.696   1.534  1.0513 -0.2377  1.1965
19484TIP3    H279868   6.488   0.771   1.622  0.4069 -0.2498  0.4880
19485TIP3   OH279869   5.539   0.321  12.640  0.0692  0.6514  0.2773
19485TIP3    H179870   5.457   0.322  12.592  0.2503  1.4643 -0.0223
19485TIP3    H279871   5.588   0.396  12.605  1.2935 -0.3500 -0.1916
19486TIP3   OH279872   1.480   3.287  11.684 -0.3898  0.0305 -0.5273
19486TIP3    H179873   1.528   3.269  11.603  0.9672  0.1687  0.2273
19486TIP3    H279874   1.523   3.233  11.750 -1.0866  0.3888  0.2261
19487TIP3   OH279875   2.229   5.544   5.283  0.0592 -0.2829 -0.1925
19487TIP3    H179876   2.250   5.592   5.203 -1.1032 -1.4137 -1.1993
19487TIP3    H279877   2.222   5.452   5.255 -0.6884 -0.6466  1.1415
19488TIP3   OH279878   2.304   3.353  13.457  0.1537 -0.8576  0.5682
19488TIP3    H179879   2.255   3.326  13.379 -0.6186 -1.9938  1.4385
19488TIP3    H279880   2.238   3.391  13.515  0.5722 -0.9336  1.0974
19489TIP3   OH279881   0.562   6.691   3.771 -0.5168 -0.1882  0.9246
19489TIP3    H179882   0.608   6.693   3.688 -0.7521 -0.9964  0.7667
19489TIP3    H279883   0.552   6.783   3.796 -0.7979  0.0661 -0.1239
19490TIP3   OH279884   6.665   0.439   4.706  0.2684  0.5443  0.2187
19490TIP3    H179885   6.739   0.409   4.654 -0.6169 -0.4303 -0.4769
19490TIP3    H279886   6.680   0.401   4.793  1.1017  1.1827  0.3690
19491TIP3   OH279887   0.429   1.487  12.274  0.4887  0.6847  0.2133
19491TIP3    H179888   0.371   1.538  12.332 -0.2697 -0.2587  0.3066
19491TIP3    H279889   0.369   1.429  12.226  1.2049  0.8374 -0.8727
19492TIP3   OH279890   4.583   1.428  12.101 -0.2523  0.0855 -0.2691
19492TIP3    H179891   4.624   1.497  12.049  0.1426 -1.3113 -1.8717
19492TIP3    H279892   4.533   1.474  12.168 -0.4989  1.9472 -1.6868
19493TIP3   OH279893   5.460   0.246  11.068  0.3034 -0.5856  0.3580
19493TIP3    H179894   5.457   0.271  10.976 -0.6803 -1.5712  0.1244
19493TIP3    H279895   5.441   0.153  11.069  1.9661 -0.9460  1.4175
19494TIP3   OH279896   4.521   6.450   5.419  0.0877  0.4056  0.5135
19494TIP3    H179897   4.493   6.501   5.495 -0.7071 -1.9637  1.8692
19494TIP3    H279898   4.439   6.430   5.372  0.1682 -1.2594  1.0678
19495TIP3   OH279899   5.561   1.613  11.669 -0.2578 -0.7253 -0.3362
19495TIP3    H179900   5.538   1.623  11.577 -2.7757 -2.2827  0.0865
19495TIP3    H279901   5.636   1.554  11.669  0.5011  0.2071 -1.4319
19496TIP3   OH279902   4.098   6.494   1.112 -0.1588  0.1730 -0.0504
19496TIP3    H179903   4.143   6.434   1.171  1.0261  0.7213 -0.3621
19496TIP3    H279904   4.117   6.461   1.024 -1.5717 -0.4055 -0.1484
19497TIP3   OH279905   2.725   6.353   2.973  0.3173  0.1513 -0.6701
19497TIP3    H179906   2.818   6.339   2.992  0.0809  0.1206  0.5556
19497TIP3    H279907   2.724   6.429   2.915  1.1379 -0.2157 -1.1835
19498TIP3   OH279908   4.360   0.886   5.200 -0.2782 -0.1456  0.6307
19498TIP3    H179909   4.315   0.849   5.124 -1.5580  1.7959  0.3807
19498TIP3    H279910   4.357   0.981   5.185  3.7254  0.0684  0.7427
19499TIP3   OH279911   3.130   2.248   3.012  0.4548  0.1331  0.4191
19499TIP3    H179912   3.162   2.302   2.939  0.2911 -1.5741 -0.9670
19499TIP3    H279913   3.050   2.207   2.978  0.7774 -1.2469  1.2825
19500TIP3   OH279914   4.958   6.444  10.794 -0.6007  0.4630  0.6947
19500TIP3    H179915   4.982   6.433  10.702  0.5566  0.1199  1.0239
19500TIP3    H279916   4.937   6.355  10.824 -3.0332  0.8646  0.2184
19501TIP3   OH279917   1.799   2.147  16.771 -0.7353 -0.5450  0.2484
19501TIP3    H179918   1.732   2.084  16.746 -2.0442  1.7395 -2.2074
19501TIP3    H279919   1.774   2.175  16.859 -0.9818 -2.3235  0.7525
19502TIP3   OH279920   5.040   2.959  12.195  0.3733 -0.1350  0.4658
19502TIP3    H179921   5.023   2.865  12.207 -0.2963  0.0614  1.0644
19502TIP3    H279922   5.135   2.967  12.207  0.5107 -0.8200 -0.1538
19503TIP3   OH279923   5.111   2.034   0.028 -0.0105 -0.3423 -0.0591
19503TIP3    H179924   5.046   1.987  -0.024 -0.6269 -0.3587  0.7268
19503TIP3    H279925   5.075   2.122   0.037  1.5188  0.5449 -2.2153
19504TIP3   OH279926   5.810   1.626   3.180  0.0550 -0.4263  0.2447
19504TIP3    H179927   5.745   1.557   3.190  0.0140 -0.2710  1.1349
19504TIP3    H279928   5.828   1.654   3.270  1.0320 -0.1795 -0.0217
19505TIP3   OH279929   4.755   4.792   1.667 -0.1244  0.4651  0.4914
19505TIP3    H179930   4.844   4.811   1.697 -0.3837 -0.0394  1.5915
19505TIP3    H279931   4.724   4.722   1.724 -0.7855 -0.2234 -0.6864
19506TIP3   OH279932   5.959   2.908  13.363 -0.9433  0.3276 -0.2081
19506TIP3    H179933   5.879   2.915  13.415 -1.1695  2.3205 -0.8045
19506TIP3    H279934   5.968   2.993  13.320  1.3997  0.0793 -0.2873
19507TIP3   OH279935   0.496   3.313  13.479  0.1151  0.4002 -0.3333
19507TIP3    H179936   0.450   3.232  13.458  0.7361  0.0796 -0.4874
19507TIP3    H279937   0.522   3.349  13.395  0.9882  0.0682 -0.2201
19508TIP3   OH279938   5.378   0.722   3.528  0.0535 -0.1648 -0.0663
19508TIP3    H179939   5.336   0.671   3.597  0.7164  0.3633  0.7363
19508TIP3    H279940   5.464   0.683   3.518 -0.6605 -1.3721 -1.8503
19509TIP3   OH279941   1.772   2.945  13.996  0.2656  0.4698  0.2656
19509TIP3    H179942   1.836   2.876  14.016 -0.2646  0.0752  0.6129
19509TIP3    H279943   1.782   3.008  14.067  0.9141  0.8725 -0.1776
19510TIP3   OH279944   4.674   2.030   5.413  0.4824  0.5374 -0.3454
19510TIP3    H179945   4.587   2.035   5.372  0.8616  1.0362 -1.0915
19510TIP3    H279946   4.735   2.044   5.341  1.1854  0.2402  0.1920
19511TIP3   OH279947   6.748   3.899  13.750 -0.0556  0.1203 -0.1166
19511TIP3    H179948   6.744   3.857  13.664 -1.2513  0.3666 -0.1840
19511TIP3    H279949   6.718   3.989  13.734  0.8025  0.4964  0.3533
19512TIP3   OH279950   4.758   2.620   4.724 -0.4706 -0.4718  0.2084
19512TIP3    H179951   4.800   2.566   4.791  3.2840  0.3860 -1.3682
19512TIP3    H279952   4.717   2.692   4.773 -0.8045 -1.7390  1.8414
19513TIP3   OH279953   3.584   2.747  16.968  0.0431  0.0118  0.0342
19513TIP3    H179954   3.610   2.836  16.991  0.7797 -0.4303  0.9489
19513TIP3    H279955   3.527   2.720  17.039 -2.0701  0.5697 -1.4091
19514TIP3   OH279956   3.781   6.071   0.002 -0.3021 -0.2039 -0.2978
19514TIP3    H179957   3.735   6.133   0.058 -0.5871 -0.5456 -0.1484
19514TIP3    H279958   3.712   6.031  -0.051 -0.2128 -0.9056  0.1115
19515TIP3   OH279959   4.125   4.692  11.481 -0.1595 -0.7756 -0.0589
19515TIP3    H179960   4.037   4.654  11.483  0.0774 -1.2653  1.1188
19515TIP3    H279961   4.110   4.786  11.473 -0.7802 -0.9064 -0.4978
19516TIP3   OH279962   2.991   2.379   4.186 -0.0205  0.4862 -0.3434
19516TIP3    H179963   3.046   2.325   4.243  0.0910  1.0892  0.1301
19516TIP3    H279964   3.047   2.454   4.165 -0.6349  1.0576  0.0649
19517TIP3   OH279965   0.484   6.593  15.943  0.0072  0.1619  0.3149
19517TIP3    H179966   0.503   6.499  15.944 -1.1048 -0.0948 -1.6253
19517TIP3    H279967   0.566   6.633  15.912  0.1061 -0.2569  0.0284
19518TIP3   OH279968   3.227   1.374   5.773 -0.0198 -0.1534  0.0737
19518TIP3    H179969   3.142   1.417   5.782  0.3421  0.7773 -0.7890
19518TIP3    H279970   3.253   1.351   5.862 -1.1480 -0.3753  0.3403
19519TIP3   OH279971   4.072   6.317  13.702  0.3619 -0.8878  0.2514
19519TIP3    H179972   4.121   6.340  13.780 -1.0989  1.4775  0.5412
19519TIP3    H279973   4.135   6.324  13.630  1.8028 -3.4529  1.2050
19520TIP3   OH279974   1.530   1.748  15.836 -0.2715  0.4642  0.8223
19520TIP3    H179975   1.523   1.798  15.755 -0.5235 -0.8982  0.0082
19520TIP3    H279976   1.444   1.706  15.846 -0.5836  1.3721  2.3013
19521TIP3   OH279977   5.346   5.008  12.573 -0.2752 -0.0353 -0.4319
19521TIP3    H179978   5.345   4.913  12.566  0.5781 -0.0503 -0.4100
19521TIP3    H279979   5.292   5.038  12.500 -0.3353 -0.5311 -0.5909
19522TIP3   OH279980   0.944   0.878  13.854  1.1343 -0.1882 -0.4629
19522TIP3    H179981   1.024   0.928  13.867  1.9150 -1.0927 -1.6794
19522TIP3    H279982   0.930   0.832  13.937 -0.5497  3.3103  1.3138
19523TIP3   OH279983   4.730   2.151  13.108  0.5202 -0.5595  0.1715
19523TIP3    H179984   4.810   2.165  13.058 -0.3868  3.9522 -0.2278
19523TIP3    H279985   4.744   2.198  13.190 -0.9033 -1.6050  1.0438
19524TIP3   OH279986   4.954   5.174  14.829 -0.3153 -0.0528  0.1563
19524TIP3    H179987   5.019   5.207  14.891 -0.0221  0.5366 -0.4568
19524TIP3    H279988   4.888   5.243  14.823  0.1091  0.2732 -0.8485
19525TIP3   OH279989   6.051   6.707  12.183 -0.6170  0.0717  0.0667
19525TIP3    H179990   5.974   6.732  12.235 -0.0215 -0.6896  1.3431
19525TIP3    H279991   6.125   6.724  12.241  0.1230 -0.0852 -0.8172
19526TIP3   OH279992   2.893   3.889  16.969 -0.0041 -0.2127  0.7480
19526TIP3    H179993   2.966   3.909  16.911 -0.5588  0.4843  0.2813
19526TIP3    H279994   2.815   3.915  16.919 -0.6152 -1.5768  0.9615
19527TIP3   OH279995   0.087   0.066  12.410 -0.5695 -0.4416 -0.1445
19527TIP3    H179996   0.020   0.051  12.476  1.5192 -1.5851  1.7739
19527TIP3    H279997   0.165   0.090  12.460  0.7424 -0.1462 -2.2695
19528TIP3   OH279998   1.230   5.346   0.011  0.0519  0.2127 -0.3350
19528TIP3    H179999   1.310   5.321   0.058 -0.8454  0.4718  1.3352
19528TIP3    H280000   1.166   5.280   0.035 -0.5275  0.5494 -0.9314
19529TIP3   OH280001   4.083   4.059  15.220 -0.4119  0.0105  0.1674
19529TIP3    H180002   4.059   4.023  15.135 -1.6625  0.7545  0.1907
19529TIP3    H280003   4.136   3.991  15.261 -0.7680 -0.8247 -0.7446
19530TIP3   OH280004   2.653   4.390  15.017  0.2497 -0.6524  0.2239
19530TIP3    H180005   2.573   4.441  15.006  0.5623 -0.1146  0.4089
19530TIP3    H280006   2.635   4.307  14.973 -0.3089 -0.4293  0.0240
19531TIP3   OH280007   3.202   1.151  16.920 -0.0349  0.3575  0.4410
19531TIP3    H180008   3.107   1.141  16.917 -0.2832  1.7566  2.9522
19531TIP3    H280009   3.231   1.085  16.983  0.7394 -0.4704 -0.7635
19532TIP3   OH280010   0.468   5.770  13.869  0.2681  0.2384 -0.0637
19532TIP3    H180011   0.497   5.687  13.833  1.5697  0.6908 -0.0697
19532TIP3    H280012   0.548   5.821  13.881 -0.4407  1.2071  0.6572
19533TIP3   OH280013   4.433   5.338  13.986  0.0124  0.0800  0.1775
19533TIP3    H180014   4.471   5.290  13.913  0.4696 -0.2337  0.6204
19533TIP3    H280015   4.402   5.270  14.046  2.3869  0.2943  1.7160
19534TIP3   OH280016   1.594   3.468   6.336  0.2688  0.5493 -0.2293
19534TIP3    H180017   1.586   3.393   6.276 -1.4742 -0.4165  1.1612
19534TIP3    H280018   1.608   3.429   6.422 -0.4775  1.8261  0.4903
19535TIP3   OH280019   6.461   1.484   4.961  0.3887  0.1000  0.6921
19535TIP3    H180020   6.542   1.516   5.001  0.1368 -1.2116  2.3138
19535TIP3    H280021   6.489   1.444   4.878  1.1704  1.1497  0.4453
19536TIP3   OH280022   5.569   2.079  14.047  0.0439 -0.8511 -0.3447
19536TIP3    H180023   5.475   2.059  14.041 -0.1588  0.1406 -0.5497
19536TIP3    H280024   5.596   2.097  13.957  0.3211 -0.6322 -0.2184
19537TIP3   OH280025   6.183   0.710   0.266 -0.5383 -0.1227 -0.3700
19537TIP3    H180026   6.170   0.633   0.322  0.0692 -0.3905 -0.5974
19537TIP3    H280027   6.094   0.739   0.245 -0.7893  0.5511  1.5186
19538TIP3   OH280028   3.946   3.162  12.453  0.1105  0.2665 -0.0871
19538TIP3    H180029   3.895   3.201  12.525  0.2081 -0.0422  0.1474
19538TIP3    H280030   3.950   3.231  12.387  0.1333  0.5983  0.2575
19539TIP3   OH280031   6.411   6.695  11.232  0.4629  0.3732 -0.1001
19539TIP3    H180032   6.438   6.603  11.230 -0.9027 -0.0091 -2.1633
19539TIP3    H280033   6.480   6.741  11.186 -0.4125 -0.0821 -1.9228
19540TIP3   OH280034   3.336   6.200  16.044  0.4502 -0.2654 -0.5158
19540TIP3    H180035   3.243   6.184  16.060  0.6766 -0.4521  0.6522
19540TIP3    H280036   3.348   6.293  16.062 -0.0569  0.4185 -3.4155
19541TIP3   OH280037   0.864   2.645   5.041 -0.1305 -0.2477 -0.3029
19541TIP3    H180038   0.861   2.715   5.107  0.0213 -0.5290  0.0026
19541TIP3    H280039   0.793   2.586   5.065 -0.5440  0.0395 -0.8291
19542TIP3   OH280040   2.617   1.398   5.773  0.5934 -0.1443  0.2091
19542TIP3    H180041   2.650   1.441   5.852 -0.1769  0.4648  0.2032
19542TIP3    H280042   2.680   1.421   5.705  0.0020  1.2957  0.1225
19543TIP3   OH280043   1.693   4.463  15.396 -0.3196 -0.0577  0.3034
19543TIP3    H180044   1.783   4.437  15.417  0.0726  0.9175 -0.1448
19543TIP3    H280045   1.671   4.415  15.317 -0.0290  0.0586  0.1528
19544TIP3   OH280046   4.225   0.437  14.225 -0.1439  0.0249 -0.1591
19544TIP3    H180047   4.247   0.403  14.312 -1.0761  0.1465  0.1367
19544TIP3    H280048   4.302   0.418  14.171  1.6501  2.5570  1.3915
19545TIP3   OH280049   0.491   4.383  13.221  0.2886  0.2614  0.3032
19545TIP3    H180050   0.402   4.351  13.206 -0.3720  1.1350  2.2068
19545TIP3    H280051   0.486   4.477  13.208  1.3750  0.1174 -1.4097
19546TIP3   OH280052   0.176   2.924   1.518 -0.5020  0.1464 -0.1731
19546TIP3    H180053   0.249   2.950   1.462 -0.7937 -0.7458 -0.9871
19546TIP3    H280054   0.214   2.920   1.606  0.1819  0.6800 -0.4413
19547TIP3   OH280055   4.004   0.310  11.868 -0.2993 -0.7216  0.0462
19547TIP3    H180056   3.942   0.369  11.910  1.2199 -0.1087  1.5039
19547TIP3    H280057   4.088   0.329  11.910  0.8284 -1.7452 -1.6423
19548TIP3   OH280058   2.205   0.627   4.430 -0.2317  0.3101  0.3498
19548TIP3    H180059   2.262   0.563   4.388 -1.4769 -0.6548  0.1180
19548TIP3    H280060   2.211   0.705   4.375 -0.1189 -0.2062 -0.3690
19549TIP3   OH280061   3.528   5.977   4.353  0.2076  0.6858 -0.4708
19549TIP3    H180062   3.622   5.992   4.342  0.1944  0.3589 -1.0427
19549TIP3    H280063   3.487   6.058   4.323  0.2348  0.2704 -1.6615
19550TIP3   OH280064   0.191   3.580   4.327  0.5412  0.1701 -0.2153
19550TIP3    H180065   0.116   3.555   4.382  1.6354  0.2359  1.3271
19550TIP3    H280066   0.175   3.672   4.306  0.5235  0.3710  0.6599
19551TIP3   OH280067   2.931   2.172   4.886  0.6500 -0.1894  0.3418
19551TIP3    H180068   2.892   2.089   4.858 -0.1528 -0.0025  0.8966
19551TIP3    H280069   2.857   2.232   4.893  1.0832  0.2615  1.0815
19552TIP3   OH280070   5.554   3.598  14.033  0.0741  0.3542  0.4636
19552TIP3    H180071   5.584   3.679  13.992  1.8713  1.1185  3.1471
19552TIP3    H280072   5.584   3.528  13.975  2.9706  1.3754  0.6693
19553TIP3   OH280073   5.738   5.020   4.152  0.2429 -0.4985  0.0563
19553TIP3    H180074   5.811   5.039   4.211  1.0563 -0.5287 -0.9201
19553TIP3    H280075   5.689   5.102   4.147  1.7209  0.3496 -1.3392
19554TIP3   OH280076   0.842   2.912  13.547 -0.5777  0.2266 -0.4361
19554TIP3    H180077   0.758   2.956  13.562 -1.2358 -0.2821 -2.5782
19554TIP3    H280078   0.908   2.981  13.563 -1.5010  1.3648 -1.4462
19555TIP3   OH280079   6.649   5.883   2.149 -0.1714  0.2082  0.4387
19555TIP3    H180080   6.616   5.966   2.115 -0.7091 -0.0279  0.3898
19555TIP3    H280081   6.743   5.885   2.128 -0.4094  0.2664 -0.6451
19556TIP3   OH280082   3.789   0.432   4.393  0.5427  0.5961 -0.1163
19556TIP3    H180083   3.852   0.385   4.338  0.2498  0.1306 -0.0582
19556TIP3    H280084   3.751   0.363   4.449  0.4032  0.9677  0.2461
19557TIP3   OH280085   6.665   0.672  12.336  0.5738  0.3950 -0.3262
19557TIP3    H180086   6.657   0.604  12.270  1.5727 -0.6305  0.5870
19557TIP3    H280087   6.723   0.737  12.297  2.5492 -1.0295  0.1853
19558TIP3   OH280088   6.054   2.723  16.825  0.1915 -0.1623  0.1994
19558TIP3    H180089   6.002   2.803  16.821 -1.0176 -0.8345  1.6836
19558TIP3    H280090   6.087   2.721  16.915 -0.8312 -1.9495  0.5538
19559TIP3   OH280091   1.588   4.829   1.177 -0.5764  0.3803  0.7981
19559TIP3    H180092   1.657   4.848   1.240 -0.7410 -0.5976  1.2896
19559TIP3    H280093   1.520   4.785   1.229 -0.4717 -0.9263 -0.1569
19560TIP3   OH280094   1.194   6.474  15.922 -0.0979 -0.0455 -0.0017
19560TIP3    H180095   1.233   6.402  15.972  4.0634  1.3455 -1.0456
19560TIP3    H280096   1.135   6.517  15.984  2.1868 -0.5625  2.6061
19561TIP3   OH280097   1.731   0.106  12.407 -0.4450  0.0514 -0.6505
19561TIP3    H180098   1.724   0.051  12.485  1.7383  2.2524  1.1592
19561TIP3    H280099   1.812   0.076  12.364 -0.1562  0.7073 -0.5656
19562TIP3   OH280100   3.326   2.819  15.167 -0.4277  0.8332  0.4461
19562TIP3    H180101   3.308   2.816  15.261 -0.9447  1.3747  0.3668
19562TIP3    H280102   3.401   2.879  15.159  0.2895 -0.0357  0.6092
19563TIP3   OH280103   1.746   2.997  16.927  0.2527 -0.2271 -0.2352
19563TIP3    H180104   1.735   3.000  17.022 -0.6553 -2.1105 -0.2612
19563TIP3    H280105   1.674   3.050  16.893  2.4995  3.2852  0.1717
19564TIP3   OH280106   2.282   5.512  11.392 -0.2562 -0.1823  0.2812
19564TIP3    H180107   2.298   5.583  11.454  1.1757 -0.0019 -0.2762
19564TIP3    H280108   2.248   5.555  11.314 -1.9013 -0.3930  0.8614
19565TIP3   OH280109   4.714   4.736  16.574  0.7606 -0.2578  0.3337
19565TIP3    H180110   4.729   4.702  16.486  0.3988 -0.7731  0.4712
19565TIP3    H280111   4.620   4.750  16.580  0.7308 -0.6173  0.7788
19566TIP3   OH280112   3.825   1.187   3.569  0.6866  0.4132 -1.0213
19566TIP3    H180113   3.756   1.150   3.624  0.0279  0.7699 -1.6071
19566TIP3    H280114   3.875   1.244   3.629  2.0633 -1.8409  0.0237
19567TIP3   OH280115   1.029   6.019   5.418 -0.2544 -0.0150  0.0238
19567TIP3    H180116   1.113   6.000   5.376 -0.4749  0.9754 -0.8916
19567TIP3    H280117   0.966   6.021   5.346 -1.1099 -0.9838  0.7292
19568TIP3   OH280118   5.821   5.064   3.871 -0.1706  0.3565  0.1195
19568TIP3    H180119   5.761   5.046   3.944  0.0415 -0.4242  0.1077
19568TIP3    H280120   5.771   5.122   3.813 -0.9675 -0.3969  0.0482
19569TIP3   OH280121   0.123   4.512  13.703  0.0475  0.0868 -0.0017
19569TIP3    H180122   0.208   4.527  13.743 -0.1448  1.4953 -0.1062
19569TIP3    H280123   0.069   4.476  13.774  0.0399  1.4948  0.7102
19570TIP3   OH280124   3.377   1.642   5.738  0.0732 -0.2038  0.0854
19570TIP3    H180125   3.304   1.621   5.679 -0.3754  1.8707 -0.1406
19570TIP3    H280126   3.455   1.617   5.689 -0.4718 -2.4081  0.3074
19571TIP3   OH280127   2.138   4.657   5.842 -0.8015 -0.4014  0.1792
19571TIP3    H180128   2.087   4.738   5.837 -2.0431 -1.1925 -0.1230
19571TIP3    H280129   2.195   4.660   5.765 -1.6762 -0.3593 -0.4773
19572TIP3   OH280130   4.095   1.759  15.809 -0.1389  0.0165  0.1817
19572TIP3    H180131   4.168   1.794  15.758 -2.4908  0.8835 -2.7222
19572TIP3    H280132   4.096   1.665  15.791  0.4105 -0.0247  0.4070
19573TIP3   OH280133   1.985   0.621  11.738  0.6583 -0.9710  1.0825
19573TIP3    H180134   1.982   0.609  11.833  1.3299  2.9989  1.6688
19573TIP3    H280135   2.075   0.649  11.720  0.5117 -1.6218 -0.7307
19574TIP3   OH280136   0.245   2.386   5.209 -0.2587 -0.3999 -0.0005
19574TIP3    H180137   0.301   2.363   5.282  0.3352  1.9864  0.3513
19574TIP3    H280138   0.285   2.465   5.172 -1.3653 -0.7268 -1.9797
19575TIP3   OH280139   1.174   3.921  13.414  0.2452  0.5424 -0.1558
19575TIP3    H180140   1.090   3.879  13.430  0.6332 -1.0265 -2.0704
19575TIP3    H280141   1.193   3.968  13.496 -1.3544 -1.0295  1.1590
19576TIP3   OH280142   6.415   2.370   6.263  0.8838 -0.7633 -0.0487
19576TIP3    H180143   6.501   2.392   6.299  2.1603 -2.3290 -2.0204
19576TIP3    H280144   6.416   2.274   6.256 -0.1861 -0.6550 -2.0998
19577TIP3   OH280145   0.363   6.550   3.939  0.3169 -0.5094 -0.2177
19577TIP3    H180146   0.301   6.608   3.983  0.3349  0.6505 -1.6728
19577TIP3    H280147   0.430   6.609   3.905  0.0531 -1.3132 -2.1832
19578TIP3   OH280148   1.274   5.900  15.192 -0.5894 -0.6878 -0.1218
19578TIP3    H180149   1.194   5.868  15.150 -0.4569 -1.5953  0.2938
19578TIP3    H280150   1.262   5.881  15.285  0.2960 -1.2514 -0.1150
19579TIP3   OH280151   6.554   0.932   4.102 -0.4387  0.2613  0.0191
19579TIP3    H180152   6.481   0.958   4.046 -2.0902  0.3793  2.1902
19579TIP3    H280153   6.527   0.848   4.139  0.3837  0.4402  1.0565
19580TIP3   OH280154   5.328   1.644   3.553  0.1063  0.1769  0.0223
19580TIP3    H180155   5.240   1.659   3.588  0.2188 -0.2137  0.4791
19580TIP3    H280156   5.344   1.551   3.567  0.3770  0.1331 -0.5709
19581TIP3   OH280157   5.363   5.099  13.922 -0.4990  0.4071  0.1879
19581TIP3    H180158   5.381   5.048  13.843 -2.0841 -0.4728  0.3743
19581TIP3    H280159   5.312   5.040  13.977  1.0030  0.8532  2.0733
19582TIP3   OH280160   3.026   2.509  10.860 -0.0517 -0.4971 -0.4669
19582TIP3    H180161   3.108   2.558  10.867 -0.6457  0.4283  0.0350
19582TIP3    H280162   2.958   2.575  10.847 -0.9085 -1.1293  0.6056
19583TIP3   OH280163   1.105   6.192   5.149  0.0197 -0.4490  1.0533
19583TIP3    H180164   1.185   6.234   5.182  0.2830  1.4211 -1.8315
19583TIP3    H280165   1.034   6.245   5.184  0.2011  0.2081  0.4274
19584TIP3   OH280166   2.172   3.145  12.181  0.5775  0.4768 -0.2799
19584TIP3    H180167   2.110   3.166  12.111 -2.1066 -2.4224  1.1164
19584TIP3    H280168   2.153   3.208  12.249 -1.3477 -0.7782  0.3878
19585TIP3   OH280169   1.549   4.986   0.918  0.2099  0.0315  0.2131
19585TIP3    H180170   1.476   4.929   0.894  1.5757 -1.5535 -0.2720
19585TIP3    H280171   1.553   4.981   1.013  0.1654 -0.5108  0.1900
19586TIP3   OH280172   5.449   5.615   6.354 -0.0006  0.2329  0.2359
19586TIP3    H180173   5.464   5.632   6.447 -2.0203 -1.3953  0.9024
19586TIP3    H280174   5.515   5.550   6.331  0.8404  1.0255  0.3966
19587TIP3   OH280175   4.140   2.528   4.679  0.2169 -0.2206  0.2446
19587TIP3    H180176   4.090   2.602   4.645 -2.6590 -1.0190  2.5199
19587TIP3    H280177   4.202   2.567   4.741 -0.1446  0.4276  0.1944
19588TIP3   OH280178   2.551   5.486  11.235  0.2874 -0.0794  0.0377
19588TIP3    H180179   2.612   5.546  11.192 -1.4650  1.9715  0.3563
19588TIP3    H280180   2.466   5.506  11.196 -0.4965 -1.6959  0.8723
19589TIP3   OH280181   2.825   6.637  11.080  0.2158 -0.0899 -0.5676
19589TIP3    H180182   2.858   6.625  11.169  0.8707 -0.9002 -0.9116
19589TIP3    H280183   2.895   6.684  11.034 -1.4248  3.1675  0.1753
19590TIP3   OH280184   3.442   2.048  14.290  0.5818  0.0547  0.1636
19590TIP3    H180185   3.371   2.097  14.331  0.2266 -0.1473 -0.2009
19590TIP3    H280186   3.397   1.985  14.233  0.9782 -1.8567  1.9151
19591TIP3   OH280187   3.488   2.491  11.661  0.5237 -0.4936  0.3684
19591TIP3    H180188   3.563   2.440  11.690  2.7181  0.9554 -2.5775
19591TIP3    H280189   3.428   2.426  11.624  0.7633 -1.5132  1.6992
19592TIP3   OH280190   4.804   3.669   4.740 -0.5927  0.3403  0.0244
19592TIP3    H180191   4.822   3.663   4.646 -0.2606 -0.4127  0.1338
19592TIP3    H280192   4.861   3.740   4.771  1.5855 -1.4298  0.2040
19593TIP3   OH280193   3.739   0.580   3.973  0.3412  0.2193  0.0173
19593TIP3    H180194   3.694   0.587   4.057 -0.0198  1.6838 -0.2822
19593TIP3    H280195   3.714   0.493   3.940 -2.8899  1.2305 -0.4421
19594TIP3   OH280196   0.100   2.013  11.869  0.1226  0.9452 -0.3240
19594TIP3    H180197   0.175   2.036  11.924  0.1274 -1.3783  0.6996
19594TIP3    H280198   0.138   1.957  11.801 -0.4260  1.1346 -0.7880
19595TIP3   OH280199   6.096   5.316  13.489 -0.0426 -0.0321 -0.2811
19595TIP3    H180200   6.050   5.339  13.408 -1.9392  1.1104  1.1003
19595TIP3    H280201   6.124   5.400  13.525  0.3237 -0.5034  0.5249
19596TIP3   OH280202   3.423   2.338  12.250  0.0948  0.3637 -0.3847
19596TIP3    H180203   3.385   2.350  12.163 -0.1596 -0.9463 -0.4497
19596TIP3    H280204   3.507   2.295  12.234  1.6409  3.1741 -0.2322
19597TIP3   OH280205   5.354   1.804   4.967 -0.1152 -0.2908  0.0401
19597TIP3    H180206   5.370   1.749   4.890 -0.5250 -0.6681  0.2274
19597TIP3    H280207   5.425   1.781   5.028 -0.1821 -0.4745  0.0465
19598TIP3   OH280208   1.962   4.358  15.019  0.5385  0.3724  0.2109
19598TIP3    H180209   1.896   4.323  15.079  1.3569 -0.4916  0.6158
19598TIP3    H280210   1.945   4.315  14.936  1.6036 -1.0753  0.7325
19599TIP3   OH280211   3.462   2.778  12.025  0.0459  0.0832 -0.3891
19599TIP3    H180212   3.424   2.831  12.096  0.3099  1.5662 -1.3248
19599TIP3    H280213   3.545   2.747  12.061 -0.8338 -0.9880  0.7255
19600TIP3   OH280214   3.079   0.311   6.544  0.1470  0.1087  0.0509
19600TIP3    H180215   3.057   0.231   6.593  0.6879  0.2488  0.5248
19600TIP3    H280216   3.010   0.318   6.478 -0.0902 -0.5720  0.2203
19601TIP3   OH280217   6.709   3.303  13.993  0.1699  0.0595  0.3015
19601TIP3    H180218   6.627   3.302  13.943  0.5958  0.7682 -0.4301
19601TIP3    H280219   6.712   3.391  14.032  1.1217  0.4421 -0.6077
19602TIP3   OH280220   3.446   2.936  15.734 -0.4118  0.2379 -0.3366
19602TIP3    H180221   3.419   3.028  15.734  0.4417  0.4909 -0.4361
19602TIP3    H280222   3.365   2.888  15.715 -0.9114  0.9485 -0.0577
19603TIP3   OH280223   6.006   2.431   3.298 -0.4250  0.3095 -0.6668
19603TIP3    H180224   6.081   2.421   3.356 -0.5166  0.5547 -0.5066
19603TIP3    H280225   6.043   2.423   3.210 -0.2288  0.3326 -0.5862
19604TIP3   OH280226   2.462   5.575   2.418 -0.3940  0.1704 -0.1088
19604TIP3    H180227   2.392   5.640   2.426  2.3031  3.0607  1.1693
19604TIP3    H280228   2.493   5.585   2.327 -0.1315  0.5289  0.0185
19605TIP3   OH280229   2.899   4.737  10.520  0.0524  0.3214  0.6598
19605TIP3    H180230   2.804   4.740  10.517  0.0687  0.8291  0.7418
19605TIP3    H280231   2.924   4.812  10.574  0.4727 -0.1051  1.0626
19606TIP3   OH280232   0.223   3.976  14.664  0.4076 -0.3475  0.0632
19606TIP3    H180233   0.268   4.057  14.689 -0.0263 -0.0355 -0.1352
19606TIP3    H280234   0.239   3.968  14.570 -0.3567  0.0396 -0.1106
19607TIP3   OH280235   0.435   0.325   3.643 -0.4914  0.0254 -0.7051
19607TIP3    H180236   0.487   0.336   3.564 -1.0350  0.1013 -1.0544
19607TIP3    H280237   0.349   0.298   3.612 -0.3996 -1.0289 -0.0827
19608TIP3   OH280238   0.353   1.187  14.285 -0.2598  0.4493 -0.1347
19608TIP3    H180239   0.376   1.215  14.197  3.1348  0.4449  0.6800
19608TIP3    H280240   0.354   1.091  14.281  0.7757  0.4462  0.1054
19609TIP3   OH280241   5.768   2.198   3.153 -0.0801 -0.6364  0.1948
19609TIP3    H180242   5.799   2.234   3.236 -0.1838  0.9503 -0.4452
19609TIP3    H280243   5.675   2.183   3.167  0.0035 -0.8805  0.5274
19610TIP3   OH280244   2.672   4.284  13.014  0.1129  0.1457  0.0097
19610TIP3    H180245   2.734   4.219  12.983  0.0432  0.3787 -0.6195
19610TIP3    H280246   2.677   4.279  13.110  1.1156  0.1883 -0.0441
19611TIP3   OH280247   6.457   0.898   1.296 -0.2422  0.0786 -0.2499
19611TIP3    H180248   6.535   0.842   1.304 -0.1115  0.4763  1.5175
19611TIP3    H280249   6.386   0.836   1.279  0.2264 -0.4250 -0.4387
19612TIP3   OH280250   0.574   2.374  12.417  0.5824  0.2695 -0.2133
19612TIP3    H180251   0.660   2.395  12.380 -0.3501  2.3085 -1.2955
19612TIP3    H280252   0.518   2.359  12.342 -1.0206  3.1977  0.3200
19613TIP3   OH280253   5.943   4.559  14.083  0.5649  0.8221 -0.0535
19613TIP3    H180254   5.928   4.647  14.116  0.9023  0.5696  0.7948
19613TIP3    H280255   5.874   4.545  14.019 -1.4654  0.5193  2.1278
19614TIP3   OH280256   1.466   0.847   0.838  0.2658 -0.0361 -0.5500
19614TIP3    H180257   1.481   0.885   0.925  0.6660  1.4254 -1.2352
19614TIP3    H280258   1.373   0.862   0.821  0.3405  0.3211 -0.6594
19615TIP3   OH280259   0.491   1.816  11.307 -0.3005  0.3025 -0.0392
19615TIP3    H180260   0.455   1.777  11.386  0.4240  2.4469  1.3991
19615TIP3    H280261   0.415   1.854  11.262 -0.7181 -0.9615 -0.4371
19616TIP3   OH280262   2.830   2.306   4.604  0.0176  0.0097 -0.4132
19616TIP3    H180263   2.798   2.216   4.612 -0.0590 -0.0922 -1.7205
19616TIP3    H280264   2.794   2.351   4.680 -0.7336 -0.8365 -0.2569
19617TIP3   OH280265   0.531   0.933  13.214  0.3421 -0.0306  0.0376
19617TIP3    H180266   0.607   0.952  13.269  0.0847  0.9140  0.0752
19617TIP3    H280267   0.460   0.915  13.276  0.0670  0.9738  0.0191
19618TIP3   OH280268   1.477   4.473   5.155 -0.2602  0.1297 -0.0300
19618TIP3    H180269   1.492   4.393   5.206  0.1629 -0.4764 -1.0886
19618TIP3    H280270   1.513   4.543   5.209 -1.1917 -0.3113  1.1858
19619TIP3   OH280271   4.400   3.582   2.671 -0.0740 -0.3006 -0.5265
19619TIP3    H180272   4.458   3.506   2.668 -0.2212 -0.4956  1.1678
19619TIP3    H280273   4.408   3.615   2.760 -1.5683  0.4564 -0.6580
19620TIP3   OH280274   0.132   3.987   1.080 -0.2711  0.4569  0.6857
19620TIP3    H180275   0.050   3.954   1.042  0.5485  0.3003 -1.0162
19620TIP3    H280276   0.192   3.992   1.006  1.5703 -0.3711  2.0969
19621TIP3   OH280277   6.512   5.872   4.943 -0.3717 -0.0412  0.0918
19621TIP3    H180278   6.475   5.811   5.008  2.5998 -1.6221  0.3715
19621TIP3    H280279   6.582   5.917   4.990  0.5245  0.2128 -1.4696
19622TIP3   OH280280   4.760   3.210  17.113  0.2198 -0.3700 -0.0803
19622TIP3    H180281   4.796   3.121  17.113  0.2070 -0.3754 -0.0394
19622TIP3    H280282   4.836   3.267  17.123  0.0554 -0.4672  2.0206
19623TIP3   OH280283   6.295   4.296   3.486  0.4404  0.3442  0.1678
19623TIP3    H180284   6.288   4.386   3.517 -1.0445 -0.2826  1.7222
19623TIP3    H280285   6.204   4.266   3.478  0.9065 -2.1693  3.1257
19624TIP3   OH280286   3.898   5.686   3.844 -0.4848  0.2236 -0.0054
19624TIP3    H180287   3.859   5.679   3.931 -1.8242 -2.0157 -0.7352
19624TIP3    H280288   3.956   5.610   3.838  0.7480  1.1974 -0.5232
19625TIP3   OH280289   2.622   1.739  16.086  0.3562 -0.4479 -0.6865
19625TIP3    H180290   2.612   1.801  16.014  0.2648  0.0887 -0.2192
19625TIP3    H280291   2.707   1.698  16.072  0.2167 -0.5487 -1.2472
19626TIP3   OH280292   0.990   1.417   3.173  0.0643 -0.0683  0.4595
19626TIP3    H180293   1.074   1.406   3.127 -0.0447  2.2675 -0.3660
19626TIP3    H280294   1.004   1.375   3.258  1.5654 -1.0170 -0.2239
19627TIP3   OH280295   4.488   4.380  17.100  0.5068 -0.3411 -0.0988
19627TIP3    H180296   4.463   4.367  17.008  1.0880 -0.2456 -0.2741
19627TIP3    H280297   4.455   4.303  17.145 -0.3491 -0.0843 -0.2762
19628TIP3   OH280298   5.189   0.456  15.675 -0.4700 -0.1240 -0.1797
19628TIP3    H180299   5.252   0.483  15.608  0.4260 -0.0607  0.6704
19628TIP3    H280300   5.179   0.362  15.661  2.0250 -0.6772  1.4732
19629TIP3   OH280301   6.042   4.777  11.256  0.5606 -0.4387  0.1617
19629TIP3    H180302   6.046   4.757  11.162 -0.9184  0.0546 -0.0220
19629TIP3    H280303   6.124   4.824  11.273  1.2003 -1.2144 -0.7127
19630TIP3   OH280304   3.840   1.821  15.915  0.6316  0.1908  0.1636
19630TIP3    H180305   3.818   1.736  15.953 -0.4507 -0.0287 -0.9604
19630TIP3    H280306   3.933   1.813  15.892  1.0211 -0.0496  1.7205
19631TIP3   OH280307   3.930   5.121  11.161 -0.4085 -0.7538 -0.1505
19631TIP3    H180308   3.991   5.193  11.173  0.5998 -1.9333  2.1495
19631TIP3    H280309   3.847   5.163  11.141  0.4128  0.9995  0.0248
19632TIP3   OH280310   0.176   6.245  15.678  0.6218  0.4497  0.5559
19632TIP3    H180311   0.179   6.206  15.765 -2.7932 -0.3781  0.3819
19632TIP3    H280312   0.087   6.278  15.669  2.0036  4.0072 -1.1917
19633TIP3   OH280313   3.260   2.141  12.465 -0.7154  0.2294  0.1211
19633TIP3    H180314   3.340   2.191  12.475 -0.2287 -0.8611  1.9116
19633TIP3    H280315   3.192   2.194  12.507 -0.5407  0.2114  0.4236
19634TIP3   OH280316   5.638   6.692  13.452  0.6913  0.2197  0.1001
19634TIP3    H180317   5.577   6.621  13.432  1.6811 -0.1361 -1.8356
19634TIP3    H280318   5.593   6.746  13.516  0.0476 -2.3357  1.8823
19635TIP3   OH280319   5.777   0.454  13.898  0.1377  0.0359  0.2866
19635TIP3    H180320   5.834   0.509  13.844 -0.2561  1.1205  0.9703
19635TIP3    H280321   5.702   0.436  13.842  0.0526  0.5783  0.2265
19636TIP3   OH280322   2.920   1.864  13.434 -0.0610 -0.0119  0.1169
19636TIP3    H180323   2.888   1.774  13.439 -0.7016  0.2247  0.2665
19636TIP3    H280324   2.846   1.917  13.463  0.4393  0.5397  0.3737
19637TIP3   OH280325   2.047   0.223  15.169  0.8712  0.5771  0.3150
19637TIP3    H180326   1.981   0.291  15.184  0.3100  0.2750 -0.7001
19637TIP3    H280327   1.996   0.141  15.166  1.3170  0.3161 -0.2200
19638TIP3   OH280328   4.076   3.721  13.849  0.5249  0.2663 -0.1352
19638TIP3    H180329   4.162   3.680  13.835  0.1690 -0.2490 -0.8268
19638TIP3    H280330   4.078   3.798  13.793  0.0894 -0.3911 -1.0692
19639TIP3   OH280331   3.857   5.282  13.437 -0.4707  0.1819  0.4602
19639TIP3    H180332   3.768   5.278  13.401  0.2156 -1.3731 -1.1672
19639TIP3    H280333   3.904   5.211  13.393  1.8774  1.6466  0.4992
19640TIP3   OH280334   3.539   5.308  13.351  0.0317 -0.2369  0.3089
19640TIP3    H180335   3.473   5.246  13.381 -0.3757 -0.0684 -0.2344
19640TIP3    H280336   3.554   5.365  13.426 -0.0216 -0.6263  0.6203
19641TIP3   OH280337   6.517   5.083  12.265 -0.2486  0.5356  0.1298
19641TIP3    H180338   6.585   5.044  12.209 -2.8976 -2.2606 -1.2817
19641TIP3    H280339   6.488   5.012  12.321 -3.8548  0.8704 -1.1435
19642TIP3   OH280340   5.482   4.124   4.549 -0.3017  0.1238  0.0791
19642TIP3    H180341   5.489   4.083   4.463 -0.7851 -0.0563  0.1216
19642TIP3    H280342   5.462   4.216   4.531  0.9461  0.3730 -0.0178
19643TIP3   OH280343   5.822   5.713   6.243  0.4502  0.2292 -0.3479
19643TIP3    H180344   5.808   5.619   6.252  0.7633 -0.0607 -2.7433
19643TIP3    H280345   5.915   5.725   6.260 -0.2266  0.6476  3.6976
19644TIP3   OH280346   0.462   4.056  10.778 -0.5369 -0.0628 -0.3334
19644TIP3    H180347   0.471   4.151  10.781 -1.0722 -0.0243  0.1300
19644TIP3    H280348   0.540   4.023  10.822 -0.7992  0.1814  0.3204
19645TIP3   OH280349   6.726   6.606  14.060 -0.2569 -0.0672  0.0959
19645TIP3    H180350   6.736   6.665  13.985 -0.2672 -0.2436 -0.0435
19645TIP3    H280351   6.661   6.650  14.116 -2.1588 -1.1544 -1.2035
19646TIP3   OH280352   2.023   1.323  15.526  0.3339 -0.9311 -0.5691
19646TIP3    H180353   1.936   1.297  15.496  0.9165 -1.6035 -1.7141
19646TIP3    H280354   2.042   1.403  15.477 -0.0494 -0.2139  0.4351
19647TIP3   OH280355   0.916   0.296   1.572  0.0140  0.1632 -0.2740
19647TIP3    H180356   0.946   0.270   1.659  0.6710  1.9715  0.0638
19647TIP3    H280357   0.837   0.348   1.588  0.1447  0.5150 -0.7367
19648TIP3   OH280358   6.129   3.165   6.532  0.2132  0.5284  0.0277
19648TIP3    H180359   6.209   3.113   6.539  0.7136  1.3046  0.2480
19648TIP3    H280360   6.088   3.137   6.451 -0.4865 -1.5365  1.0737
19649TIP3   OH280361   6.675   1.967   1.746  0.3728 -0.6542 -0.7329
19649TIP3    H180362   6.623   1.888   1.762 -0.2034 -0.2158 -0.4168
19649TIP3    H280363   6.702   1.997   1.832 -1.1564  0.6494 -0.6741
19650TIP3   OH280364   0.586   5.912  16.800  0.3241  0.6408 -0.2210
19650TIP3    H180365   0.551   5.907  16.711  1.6533  2.5775 -0.8999
19650TIP3    H280366   0.515   5.880  16.856 -0.6565 -0.2514 -1.9496
19651TIP3   OH280367   2.903   4.437  16.442 -0.7890 -1.0111  0.5665
19651TIP3    H180368   2.985   4.446  16.393 -1.7441 -0.8483 -1.0563
19651TIP3    H280369   2.921   4.370  16.508  1.0259 -0.0691  1.0779
19652TIP3   OH280370   4.352   0.633   2.115  0.4821 -0.0291  0.4272
19652TIP3    H180371   4.443   0.608   2.105 -0.0924 -1.4672 -1.6660
19652TIP3    H280372   4.337   0.636   2.209  2.0101 -2.4056  0.7783
19653TIP3   OH280373   3.886   2.520   2.488  0.7276  0.4699  0.1886
19653TIP3    H180374   3.905   2.449   2.548  0.7434  0.9677  0.7838
19653TIP3    H280375   3.971   2.560   2.469  0.5800  1.1459  0.8996
19654TIP3   OH280376   4.907   0.141  15.442  0.3344 -0.2046  0.2954
19654TIP3    H180377   4.977   0.158  15.506  0.2072 -1.0833  0.6842
19654TIP3    H280378   4.875   0.054  15.465 -1.6903  0.6582  0.8719
19655TIP3   OH280379   3.548   4.999   3.924 -0.3382 -0.2753 -0.2675
19655TIP3    H180380   3.571   5.078   3.874 -0.1645 -1.0419 -1.4319
19655TIP3    H280381   3.496   5.031   3.997  1.8634  1.1975  0.7199
19656TIP3   OH280382   3.388   6.507   2.952  0.3907  0.1942  0.3603
19656TIP3    H180383   3.476   6.469   2.949  1.1491  1.8597  0.5394
19656TIP3    H280384   3.381   6.559   2.872 -0.2019  0.5543  0.6397
19657TIP3   OH280385   0.039   2.885  16.630  0.2449  0.4028  0.4019
19657TIP3    H180386   0.112   2.921  16.679  0.4022  0.2120  0.3076
19657TIP3    H280387  -0.001   2.821  16.689 -0.4118  1.1651  0.8064
19658TIP3   OH280388   3.439   1.215   1.509 -0.1794  0.0986  0.2726
19658TIP3    H180389   3.513   1.217   1.568 -0.2730 -0.1914  0.3978
19658TIP3    H280390   3.386   1.140   1.538  0.1322 -0.4693 -0.6081
19659TIP3   OH280391   5.691   4.674  15.414  0.4214  0.1520 -0.0797
19659TIP3    H180392   5.681   4.762  15.451  0.0334  0.1385 -0.1452
19659TIP3    H280393   5.660   4.616  15.483 -2.6302  0.2381 -1.2622
19660TIP3   OH280394   1.494   2.513   4.361 -0.5037  0.3533  0.0064
19660TIP3    H180395   1.559   2.548   4.300 -0.4515 -1.5857 -1.0638
19660TIP3    H280396   1.424   2.578   4.361  0.4562  1.4029 -0.4793
19661TIP3   OH280397   1.578   5.012   5.516 -0.2377  0.7459 -0.5426
19661TIP3    H180398   1.578   4.918   5.500  0.7563  0.9746 -2.0473
19661TIP3    H280399   1.621   5.023   5.600  0.8709 -0.0611 -0.9971
19662TIP3   OH280400   5.089   5.272   3.320 -0.1163  0.0324 -0.1988
19662TIP3    H180401   5.106   5.187   3.280 -0.6061  0.5438 -1.5179
19662TIP3    H280402   5.177   5.309   3.334  0.0603  0.2408 -1.7015
19663TIP3   OH280403   1.870   0.547   1.775 -0.3575  0.0206 -0.2512
19663TIP3    H180404   1.961   0.526   1.756 -0.1907  0.3018  0.2245
19663TIP3    H280405   1.873   0.591   1.860 -0.9309  0.0694 -0.2552
19664TIP3   OH280406   2.977   5.235   5.208  0.0903  0.2439 -0.4216
19664TIP3    H180407   2.996   5.316   5.160  0.5431  0.5867  0.3388
19664TIP3    H280408   2.908   5.193   5.156 -0.2202  1.1593 -0.7673
19665TIP3   OH280409   5.103   2.412   0.630 -0.1180 -0.6294  0.4085
19665TIP3    H180410   5.137   2.334   0.587  0.1048  1.1439 -2.8507
19665TIP3    H280411   5.018   2.427   0.589 -0.6961  0.1916  1.8611
19666TIP3   OH280412   6.371   4.689  17.045  0.2734 -0.1281 -0.1841
19666TIP3    H180413   6.453   4.692  16.994  0.8376  1.9189  0.7698
19666TIP3    H280414   6.317   4.625  17.000  1.7499 -0.2283 -1.8719
19667TIP3   OH280415   3.629   4.168  16.202 -0.3854 -1.3462  0.0531
19667TIP3    H180416   3.571   4.224  16.150 -1.6473 -1.8795  0.8663
19667TIP3    H280417   3.572   4.129  16.268  1.2461 -0.4028  2.0784
19668TIP3   OH280418   2.257   6.620   5.398 -0.2210 -0.3716 -0.0249
19668TIP3    H180419   2.208   6.690   5.440  0.7777  1.4500 -1.8248
19668TIP3    H280420   2.338   6.661   5.369  0.3346 -2.2428 -1.2396
19669TIP3   OH280421   2.994   2.145  17.033  0.1514  0.0191 -0.4173
19669TIP3    H180422   2.983   2.220  16.975 -0.2784 -1.0910 -1.8253
19669TIP3    H280423   3.070   2.098  16.997 -0.0586 -0.6299 -0.0183
19670TIP3   OH280424   1.609   4.451   1.826 -0.0990  0.7354  0.0410
19670TIP3    H180425   1.674   4.465   1.895  0.2896  1.1240 -0.3958
19670TIP3    H280426   1.594   4.356   1.826 -0.9693  0.8619  1.4257
19671TIP3   OH280427   2.322   2.570  14.396 -0.1783  0.0706 -0.0708
19671TIP3    H180428   2.291   2.511  14.464  5.2486 -3.2952 -0.2422
19671TIP3    H280429   2.301   2.525  14.314 -0.6641  0.9259 -0.4263
19672TIP3   OH280430   2.340   4.592   2.814 -0.2650  0.3454 -0.7570
19672TIP3    H180431   2.423   4.585   2.767  0.2113  0.5082  0.0515
19672TIP3    H280432   2.300   4.672   2.781 -0.2720  0.0772 -1.4122
19673TIP3   OH280433   0.705   3.887  15.893 -0.5568 -0.1187 -0.2580
19673TIP3    H180434   0.676   3.979  15.889  0.0681  0.0922  0.0339
19673TIP3    H280435   0.787   3.886  15.845 -2.2612 -1.2132 -3.2481
19674TIP3   OH280436   4.161   4.399   3.500  0.5137  0.1417 -0.0506
19674TIP3    H180437   4.095   4.458   3.538  1.7534  0.3962  1.7732
19674TIP3    H280438   4.236   4.455   3.483  2.0686 -1.0308  2.6313
19675TIP3   OH280439   3.652   0.187   4.482 -0.8728  0.3091  0.3432
19675TIP3    H180440   3.599   0.110   4.460 -1.0073  0.7970 -1.0833
19675TIP3    H280441   3.629   0.206   4.573 -0.8183 -1.3536  0.7265
19676TIP3   OH280442   2.804   3.610   4.076 -0.1535  0.5548 -0.0566
19676TIP3    H180443   2.892   3.597   4.040  1.0028  2.7505  1.8351
19676TIP3    H280444   2.788   3.704   4.067 -2.9103 -0.0025 -1.6030
19677TIP3   OH280445   3.866   5.460   5.808  0.4960  0.8016 -0.3302
19677TIP3    H180446   3.867   5.412   5.725  0.4403  1.1625 -0.5410
19677TIP3    H280447   3.954   5.496   5.817  0.4079  1.0395 -0.3985
19678TIP3   OH280448   5.840   3.502   5.952  0.5018  0.0614  0.8795
19678TIP3    H180449   5.824   3.586   5.993  0.8641  0.2622  0.6152
19678TIP3    H280450   5.755   3.459   5.950 -0.0231  1.1215 -0.5416
19679TIP3   OH280451   3.675   3.591   4.473  0.4165  0.0874 -0.6153
19679TIP3    H180452   3.737   3.637   4.417 -0.3987  0.4946 -1.1794
19679TIP3    H280453   3.642   3.659   4.533  1.1134 -0.2954  0.2173
19680TIP3   OH280454   5.187   4.322  12.815 -0.3473  0.3379  0.0773
19680TIP3    H180455   5.175   4.406  12.859 -1.5594 -0.1652  0.7302
19680TIP3    H280456   5.240   4.271  12.875 -1.7814 -0.2566  0.8685
19681TIP3   OH280457   5.431   5.660   2.206  0.1196 -0.1780 -0.2521
19681TIP3    H180458   5.465   5.637   2.119  2.0150  1.0661  0.1295
19681TIP3    H280459   5.442   5.755   2.211 -1.6216 -0.0242  0.6800
19682TIP3   OH280460   3.559   6.123   2.203  0.5826  0.8471 -0.0292
19682TIP3    H180461   3.504   6.098   2.278  0.3587  0.0152 -0.4758
19682TIP3    H280462   3.629   6.176   2.242  3.0221 -3.2708  1.4014
19683TIP3   OH280463   3.428   5.785   2.330  0.4095 -0.1048  0.2819
19683TIP3    H180464   3.396   5.760   2.417  1.3823  2.0541  1.2874
19683TIP3    H280465   3.507   5.731   2.318  0.8494  0.3218  1.1819
19684TIP3   OH280466   6.195   1.302   2.066 -0.1463 -0.1852 -0.7622
19684TIP3    H180467   6.165   1.376   2.014 -0.5237 -0.6140 -1.1581
19684TIP3    H280468   6.276   1.332   2.107 -0.6130  0.6498 -0.4437
19685TIP3   OH280469   6.216   0.964  11.028  0.0917  0.9613  0.0429
19685TIP3    H180470   6.137   0.920  11.058  1.2599 -0.3884  1.2088
19685TIP3    H280471   6.271   0.893  10.994  0.4858  1.9758 -1.4626
19686TIP3   OH280472   0.809   1.210   3.190  0.4190  0.4895 -0.2469
19686TIP3    H180473   0.748   1.212   3.116 -0.4440  0.7375  0.4548
19686TIP3    H280474   0.880   1.268   3.164  0.2741  0.3288 -1.0138
19687TIP3   OH280475   2.177   4.354  15.298  0.0707  0.4379  0.0849
19687TIP3    H180476   2.257   4.383  15.254  0.6369 -1.9053 -0.4622
19687TIP3    H280477   2.157   4.269  15.259 -1.7333  0.2126  1.4357
19688TIP3   OH280478   2.998   5.854  11.466  0.6744 -0.2613  0.5851
19688TIP3    H180479   2.942   5.907  11.408 -0.0613  0.1417  1.6553
19688TIP3    H280480   3.083   5.898  11.463  0.6790 -0.3073 -0.2718
19689TIP3   OH280481   5.725   3.074   6.083  0.2554 -0.0748  0.4638
19689TIP3    H180482   5.791   3.109   6.023  1.0222 -0.6996  0.9258
19689TIP3    H280483   5.766   2.997   6.121 -0.4373 -0.0109  1.3653
19690TIP3   OH280484   6.151   1.101   5.601 -0.2470 -0.2236  0.6403
19690TIP3    H180485   6.192   1.180   5.566 -0.9574 -0.7403 -1.4495
19690TIP3    H280486   6.058   1.113   5.583 -0.5096 -0.9607  1.4928
19691TIP3   OH280487   4.778   3.696   2.553  0.8319  0.3371 -0.4711
19691TIP3    H180488   4.845   3.763   2.569  0.7326  0.4447 -0.5079
19691TIP3    H280489   4.698   3.746   2.536  0.6129  0.2043  0.1571
19692TIP3   OH280490   4.157   6.526   5.368  0.2425  0.4601 -0.3237
19692TIP3    H180491   4.173   6.620   5.381 -0.6877  0.5721  0.0198
19692TIP3    H280492   4.169   6.488   5.455  1.0419  0.1980 -0.5471
19693TIP3   OH280493   4.107   5.977   3.004 -0.0702 -0.2081 -0.0265
19693TIP3    H180494   4.062   5.999   2.922 -0.6015 -0.3603  0.2296
19693TIP3    H280495   4.054   5.908   3.043  1.3442 -1.6409 -0.5966
19694TIP3   OH280496   0.796   0.792  16.525 -0.3569  0.2095 -0.3378
19694TIP3    H180497   0.843   0.786  16.442  0.4173  2.0141 -0.0675
19694TIP3    H280498   0.808   0.706  16.566  0.1323 -0.3426 -1.6275
19695TIP3   OH280499   6.387   3.359   2.274  0.9534  0.1107  0.5431
19695TIP3    H180500   6.424   3.315   2.351  1.3684  0.0752  0.3244
19695TIP3    H280501   6.428   3.315   2.200  0.5830  0.1738  0.3050
19696TIP3   OH280502   6.513   4.843   1.674  0.3224  0.5094 -0.2399
19696TIP3    H180503   6.528   4.760   1.629  1.1416  0.5688 -0.0753
19696TIP3    H280504   6.419   4.843   1.693  0.1952 -0.0648 -0.8612
19697TIP3   OH280505   4.328   5.100  15.165  0.4354 -0.3491 -0.4656
19697TIP3    H180506   4.358   5.191  15.158 -2.0825  0.4205 -1.7605
19697TIP3    H280507   4.310   5.088  15.258  1.8323  0.0997 -0.1170
19698TIP3   OH280508   2.645   5.347   2.856  0.0194 -0.2206  0.2717
19698TIP3    H180509   2.712   5.281   2.877  0.8337  0.6277  0.3585
19698TIP3    H280510   2.681   5.429   2.891 -0.7393  0.3669 -0.3282
19699TIP3   OH280511   6.161   1.699   5.111  0.4319 -0.7570 -0.0757
19699TIP3    H180512   6.074   1.684   5.074 -1.9081  0.4430  4.5623
19699TIP3    H280513   6.180   1.620   5.162  1.0699 -0.1390  0.6823
19700TIP3   OH280514   2.315   3.360  13.827 -0.1404 -0.0714 -0.0574
19700TIP3    H180515   2.390   3.335  13.774  1.3661  2.3258  0.8900
19700TIP3    H280516   2.330   3.451  13.850 -2.0104 -0.3069  2.3683
19701TIP3   OH280517   3.576   2.494   5.565  0.2013  0.6738  0.3407
19701TIP3    H180518   3.651   2.493   5.624  1.8425  0.5219 -1.7099
19701TIP3    H280519   3.500   2.496   5.623  1.7885  1.3977  2.4448
19702TIP3   OH280520   1.476   1.226  14.434 -1.4880 -0.3343 -0.0679
19702TIP3    H180521   1.508   1.151  14.484 -0.0021  0.4029  0.1312
19702TIP3    H280522   1.535   1.232  14.359 -1.9633  0.2620 -0.3997
19703TIP3   OH280523   1.527   4.812   3.704 -0.2767  0.1977 -0.7922
19703TIP3    H180524   1.453   4.840   3.651 -0.5459 -0.4230 -0.7486
19703TIP3    H280525   1.530   4.716   3.693  0.0148  0.1317 -0.1517
19704TIP3   OH280526   3.891   2.653   4.484  0.2693  0.3877 -0.5276
19704TIP3    H180527   3.876   2.564   4.451 -1.1794 -0.2922  1.9054
19704TIP3    H280528   3.813   2.702   4.458 -0.6673 -0.0335  1.4286
19705TIP3   OH280529   6.267   5.075   0.629  0.5707 -0.0309  0.0247
19705TIP3    H180530   6.320   5.142   0.672 -0.9663  0.3441  1.4009
19705TIP3    H280531   6.226   5.121   0.555  0.1105  0.3714  0.5213
19706TIP3   OH280532   3.155   2.564   4.032 -0.0842  0.0219  0.4821
19706TIP3    H180533   3.192   2.576   4.119  0.2299  0.0060  0.3499
19706TIP3    H280534   3.100   2.642   4.019 -0.1001  0.0439  0.6775
19707TIP3   OH280535   5.466   2.306  15.037 -0.4492  0.7672  0.1098
19707TIP3    H180536   5.521   2.381  15.060 -0.1420 -0.1775  2.6260
19707TIP3    H280537   5.411   2.292  15.114 -2.7109  0.3147 -1.5343
19708TIP3   OH280538   5.999   4.869  13.409 -0.0426 -0.4298  0.0159
19708TIP3    H180539   6.057   4.830  13.474 -1.2763 -1.1487  0.6943
19708TIP3    H280540   5.966   4.949  13.451 -0.3645 -0.5745  0.0383
19709TIP3   OH280541   1.138   4.701   1.515 -0.5722  0.7557  0.2212
19709TIP3    H180542   1.160   4.791   1.539 -0.6600  0.6415  0.7520
19709TIP3    H280543   1.075   4.674   1.583  0.3613 -0.1006  0.7426
19710TIP3   OH280544   4.151   6.635  10.816 -1.0546 -0.0652  0.2596
19710TIP3    H180545   4.206   6.557  10.805 -0.2394  0.4776  0.4241
19710TIP3    H280546   4.204   6.693  10.871 -2.5894 -0.3100  2.0323
19711TIP3   OH280547   0.025   6.461   5.068 -0.5491  0.1437  0.4670
19711TIP3    H180548   0.043   6.555   5.073 -0.1216  0.0957 -0.0687
19711TIP3    H280549   0.100   6.420   5.113 -1.4111  0.1101  1.9018
19712TIP3   OH280550   2.850   0.435   0.998  0.1153 -0.4195 -0.5644
19712TIP3    H180551   2.819   0.393   1.078 -2.0539  0.1342 -1.0828
19712TIP3    H280552   2.901   0.368   0.953  1.6300 -0.6313  1.4229
19713TIP3   OH280553   4.848   0.295  14.253 -0.2914  0.2268 -0.1190
19713TIP3    H180554   4.847   0.233  14.326  0.0289  0.2356 -0.1044
19713TIP3    H280555   4.901   0.368  14.285  0.3828 -0.0504 -0.5843
19714TIP3   OH280556   3.562   5.888   1.027 -0.0796 -0.5637  0.2438
19714TIP3    H180557   3.566   5.975   1.067  0.3002 -0.5301  0.1371
19714TIP3    H280558   3.562   5.828   1.101 -0.5368 -0.4662  0.3231
19715TIP3   OH280559   1.358   0.286   3.255 -0.5651  0.1175  0.5384
19715TIP3    H180560   1.357   0.193   3.230  0.4920 -0.1457  1.4104
19715TIP3    H280561   1.291   0.326   3.200  0.0657 -0.8787 -1.0086
19716TIP3   OH280562   0.116   5.852   2.957  0.8001 -0.2570 -0.5093
19716TIP3    H180563   0.110   5.780   2.894 -0.4016 -1.1121  0.5518
19716TIP3    H280564   0.206   5.847   2.990  0.1979 -2.4692  0.9065
19717TIP3   OH280565   4.693   2.108   1.352  0.3578 -0.1003 -0.2690
19717TIP3    H180566   4.605   2.129   1.384 -0.2169 -0.9841 -1.2412
19717TIP3    H280567   4.714   2.024   1.395  0.8899  0.2932  0.2547
19718TIP3   OH280568   1.810   2.038   3.336 -0.0423  0.8156 -0.9482
19718TIP3    H180569   1.761   2.084   3.404  0.0098 -0.2762 -0.1650
19718TIP3    H280570   1.902   2.043   3.363  0.0729  1.1343 -1.3876
19719TIP3   OH280571   3.557   4.571  15.861  0.0927  0.1688 -0.4183
19719TIP3    H180572   3.496   4.561  15.788 -0.9474  0.6602  0.3757
19719TIP3    H280573   3.563   4.665  15.875  0.0716  0.0677  0.2935
19720TIP3   OH280574   1.885   0.995  16.583  0.5547  0.6068  0.1298
19720TIP3    H180575   1.959   0.973  16.527  0.6362  1.8668 -0.2839
19720TIP3    H280576   1.840   0.912  16.599  1.6069 -0.0416 -0.2618
19721TIP3   OH280577   3.749   5.071   4.199 -0.1716  0.0715 -0.2008
19721TIP3    H180578   3.770   5.149   4.147 -1.2785 -1.0385 -2.4073
19721TIP3    H280579   3.657   5.084   4.224  0.2984  0.5023  1.3348
19722TIP3   OH280580   5.785   1.346   1.773  0.2825 -0.0983 -0.1166
19722TIP3    H180581   5.799   1.329   1.866 -0.7528  0.0282  0.0666
19722TIP3    H280582   5.776   1.442   1.767  2.9592  0.1496 -0.7119
19723TIP3   OH280583   5.732   5.780  10.958 -0.5293 -0.2319  0.3609
19723TIP3    H180584   5.759   5.870  10.938 -0.6732 -0.9791 -3.6268
19723TIP3    H280585   5.653   5.766  10.905 -0.8741 -2.4882  1.4100
19724TIP3   OH280586   1.484   3.709   3.568  0.3313 -0.1697  0.5771
19724TIP3    H180587   1.419   3.715   3.497 -0.8825 -1.2436  1.5749
19724TIP3    H280588   1.461   3.780   3.628 -0.4042 -1.0252  1.3159
19725TIP3   OH280589   4.664   3.320  15.820 -1.2126  0.2809 -0.1505
19725TIP3    H180590   4.630   3.349  15.905 -1.5017 -1.1024  0.2156
19725TIP3    H280591   4.587   3.291  15.772 -0.7306 -1.8092  0.2682
19726TIP3   OH280592   3.118   4.225  16.279  0.1398 -0.3311 -0.0153
19726TIP3    H180593   3.058   4.207  16.351 -0.5867  2.4091  0.1115
19726TIP3    H280594   3.069   4.200  16.201 -0.2518 -0.3399  0.2328
19727TIP3   OH280595   2.724   4.733  11.550  0.1108  0.0528 -0.5256
19727TIP3    H180596   2.718   4.812  11.603  0.0379 -0.7764  0.7148
19727TIP3    H280597   2.818   4.717  11.541  0.1064 -0.7703  0.8142
19728TIP3   OH280598   0.304   2.123   1.722  0.5139 -0.0030  0.1508
19728TIP3    H180599   0.301   2.114   1.627 -0.1477  0.7985  0.0914
19728TIP3    H280600   0.366   2.194   1.739  0.5070 -0.0337  0.3144
19729TIP3   OH280601   5.173   6.104  14.888  0.1147 -0.6723 -0.4344
19729TIP3    H180602   5.115   6.151  14.828 -1.9982 -0.7798  1.4533
19729TIP3    H280603   5.145   6.012  14.881  0.2312 -0.7675  0.2866
19730TIP3   OH280604   2.099   0.775  14.656  0.3903  0.1732  0.9492
19730TIP3    H180605   2.157   0.756  14.582  0.6901  0.1797  1.1829
19730TIP3    H280606   2.011   0.753  14.624  0.6920 -1.2971  1.1043
19731TIP3   OH280607   4.214   2.305   0.224 -0.4772  0.4712 -0.6950
19731TIP3    H180608   4.265   2.248   0.281  0.3150  1.7315 -0.1177
19731TIP3    H280609   4.202   2.254   0.143  0.4934 -0.3794 -0.3160
19732TIP3   OH280610   0.924   2.438  16.898 -0.4072 -0.1033 -0.3335
19732TIP3    H180611   0.933   2.366  16.836  0.2514  0.4373 -0.8716
19732TIP3    H280612   0.875   2.506  16.850 -0.5802  0.0104  0.0014
19733TIP3   OH280613   1.084   4.825  12.590  0.5116  0.3475  0.0045
19733TIP3    H180614   1.078   4.750  12.531 -1.7484  0.7882 -0.3537
19733TIP3    H280615   1.045   4.794  12.672 -1.2508  1.3588 -0.4174
19734TIP3   OH280616   1.553   4.534  16.065 -0.2292 -0.1978 -0.0050
19734TIP3    H180617   1.621   4.485  16.018  0.9110 -0.6211  2.0186
19734TIP3    H280618   1.588   4.623  16.073  0.3220 -0.5302  1.4461
19735TIP3   OH280619   4.312   0.710   1.561 -0.3339 -0.1739  0.0105
19735TIP3    H180620   4.293   0.782   1.621 -1.7368 -0.8764  0.4169
19735TIP3    H280621   4.382   0.661   1.604 -0.7565 -0.1936  0.6778
19736TIP3   OH280622   5.652   1.829  13.331  0.2234 -0.6088  0.0724
19736TIP3    H180623   5.627   1.751  13.380 -0.5509 -0.8742 -0.7338
19736TIP3    H280624   5.601   1.824  13.250  1.5363 -0.2177 -0.7975
19737TIP3   OH280625   0.739   2.275   5.870  0.5779  0.0425 -0.3956
19737TIP3    H180626   0.835   2.281   5.864  0.6625 -0.7858  0.0606
19737TIP3    H280627   0.723   2.202   5.930 -0.3208  1.5929  1.3170
19738TIP3   OH280628   0.403   6.264  11.245  0.0870 -0.2135 -0.5709
19738TIP3    H180629   0.396   6.324  11.172  2.1499 -0.0160 -0.6561
19738TIP3    H280630   0.465   6.197  11.215  0.9340 -0.1431  0.9459
19739TIP3   OH280631   4.170   0.445  15.664  0.1777  0.3566  0.5999
19739TIP3    H180632   4.204   0.371  15.714 -1.3858 -0.3788  0.6012
19739TIP3    H280633   4.176   0.416  15.573  0.1453  0.4843  0.5577
19740TIP3   OH280634   0.919   6.598   6.029 -0.4672 -0.8861  0.3023
19740TIP3    H180635   0.939   6.691   6.041 -2.2878 -0.3585 -0.5570
19740TIP3    H280636   0.845   6.582   6.087 -1.1749 -1.4022 -0.7271
19741TIP3   OH280637   1.816   4.551   4.769  0.3873  0.1874 -0.0950
19741TIP3    H180638   1.742   4.567   4.827 -1.7279  0.1595 -2.6880
19741TIP3    H280639   1.884   4.612   4.799 -1.2003  1.3088  1.3435
19742TIP3   OH280640   0.829   2.686  14.461  0.8626 -0.0137  0.0972
19742TIP3    H180641   0.810   2.673  14.554 -4.2581  1.3305 -0.5802
19742TIP3    H280642   0.882   2.765  14.458  1.7732 -0.5351  1.9244
19743TIP3   OH280643   1.989   1.920   5.701  0.4495 -0.4469  0.4032
19743TIP3    H180644   1.952   1.834   5.726  2.4993 -1.7142 -0.8276
19743TIP3    H280645   2.082   1.913   5.723  0.8897  1.0008 -0.9595
19744TIP3   OH280646   2.351   5.452  12.725 -0.0970 -0.1938 -0.5821
19744TIP3    H180647   2.323   5.408  12.644 -0.8023  1.8912 -1.5141
19744TIP3    H280648   2.398   5.384  12.774 -2.1221 -2.3188 -1.4319
19745TIP3   OH280649   0.861   6.054  11.567 -0.4393 -0.8318  0.3215
19745TIP3    H180650   0.838   6.084  11.479 -1.3574 -1.1727  0.4408
19745TIP3    H280651   0.808   5.976  11.580  1.1771 -1.9280  0.4092
19746TIP3   OH280652   0.820   4.764  12.283  0.8337  0.0033 -0.5257
19746TIP3    H180653   0.813   4.763  12.379  1.3444 -1.0289 -0.4902
19746TIP3    H280654   0.875   4.840  12.264  1.1439 -0.0772  0.0284
19747TIP3   OH280655   0.722   6.003   3.589 -0.4049 -0.4738  0.7058
19747TIP3    H180656   0.695   6.032   3.676  0.0424  0.4906  0.5321
19747TIP3    H280657   0.767   5.920   3.604 -0.4169 -0.3601  1.3780
19748TIP3   OH280658   2.126   4.836   1.257  0.3492 -0.0105 -0.0317
19748TIP3    H180659   2.136   4.772   1.328 -3.4155  1.0031  1.5343
19748TIP3    H280660   2.177   4.912   1.287 -1.9570  0.7616  2.1249
19749TIP3   OH280661   2.640   6.190   3.918 -0.2732  0.1654 -0.1989
19749TIP3    H180662   2.695   6.265   3.895 -0.0812  0.6296  1.6694
19749TIP3    H280663   2.644   6.186   4.014 -5.2368  1.5541  0.1655
19750TIP3   OH280664   4.363   5.373  15.119  0.0138 -0.8353  0.3437
19750TIP3    H180665   4.283   5.419  15.093  0.9013  0.2229 -0.5401
19750TIP3    H280666   4.405   5.349  15.036  0.5353 -1.5413  0.8062
19751TIP3   OH280667   0.378   2.125   1.456  0.3163 -0.0738  0.3034
19751TIP3    H180668   0.376   2.068   1.378 -0.3080  0.8673 -0.3711
19751TIP3    H280669   0.463   2.106   1.496  0.7612 -0.3673 -0.7531
19752TIP3   OH280670   5.579   0.196   4.075  0.1077 -0.2384 -0.5778
19752TIP3    H180671   5.579   0.290   4.059  3.8567  0.4654  2.5486
19752TIP3    H280672   5.665   0.167   4.044  0.3048 -1.9677  1.4438
19753TIP3   OH280673   6.267   6.342  16.578  0.4989  0.2411 -0.6635
19753TIP3    H180674   6.298   6.403  16.512  1.1129 -0.3878 -0.9621
19753TIP3    H280675   6.320   6.263  16.565 -0.1941 -0.3099 -0.2030
19754TIP3   OH280676   3.775   5.013   6.212 -0.4767  0.0104 -0.0667
19754TIP3    H180677   3.733   4.933   6.243 -0.1915 -0.6201 -1.2508
19754TIP3    H280678   3.800   5.060   6.291 -0.1102 -1.3615  0.6381
19755TIP3   OH280679   5.805   1.212  16.249  0.3391  0.5108 -0.5711
19755TIP3    H180680   5.845   1.133  16.286 -1.3284 -0.0462  0.1119
19755TIP3    H280681   5.737   1.236  16.312 -0.0880  1.7025 -1.4695
19756TIP3   OH280682   4.876   4.475   5.341 -0.0342 -0.3153  0.1213
19756TIP3    H180683   4.917   4.561   5.347  3.1416 -1.7377 -0.5557
19756TIP3    H280684   4.895   4.432   5.425  0.7641 -1.3409 -0.5651
19757TIP3   OH280685   3.213   4.801   0.032 -0.2284  0.2188  0.0270
19757TIP3    H180686   3.120   4.795   0.056 -0.1432 -2.3001 -0.1283
19757TIP3    H280687   3.259   4.760   0.105  0.5616 -0.8142 -1.0280
19758TIP3   OH280688   2.763   0.301  12.129  0.6405  0.3653  0.0490
19758TIP3    H180689   2.841   0.258  12.094  1.6227  0.4452  2.0662
19758TIP3    H280690   2.696   0.289  12.061  1.7385 -1.7480 -0.6899
19759TIP3   OH280691   3.598   0.053   4.000 -0.3030  0.1807  0.3930
19759TIP3    H180692   3.655   0.062   4.077 -0.9982  0.1879  0.9135
19759TIP3    H280693   3.653   0.011   3.934 -0.9443 -3.8858  2.3005
19760TIP3   OH280694   0.813   0.701  14.999 -0.1746  0.5012  0.2135
19760TIP3    H180695   0.852   0.772  14.947 -0.2209  0.6555  0.3889
19760TIP3    H280696   0.719   0.712  14.986 -0.1097 -1.0382 -1.7503
19761TIP3   OH280697   0.147   4.857  12.349  0.0331 -0.9308 -0.1374
19761TIP3    H180698   0.155   4.932  12.290  0.3714 -0.2776  0.7263
19761TIP3    H280699   0.164   4.781  12.294 -1.0045 -0.4265 -1.1839
19762TIP3   OH280700   5.929   3.411   1.951  0.3938  0.3568 -0.1136
19762TIP3    H180701   6.017   3.394   1.917  0.2688  0.5167 -0.5233
19762TIP3    H280702   5.935   3.499   1.989  1.0653 -0.6129  2.0993
19763TIP3   OH280703   4.801   5.957  12.213 -0.2478  0.2785 -0.2300
19763TIP3    H180704   4.817   5.877  12.263 -0.7292 -0.3827 -1.1208
19763TIP3    H280705   4.707   5.972  12.222 -0.6239 -0.7358 -2.2337
19764TIP3   OH280706   4.219   0.548   4.729  0.2832 -0.7899  0.5940
19764TIP3    H180707   4.268   0.474   4.764  0.9912 -1.9119 -2.6770
19764TIP3    H280708   4.280   0.594   4.672 -0.8505  1.0074  0.7625
19765TIP3   OH280709   0.794   1.859   1.002 -0.6449 -0.2117  0.0994
19765TIP3    H180710   0.794   1.894   1.091 -1.1981  1.9620 -0.7293
19765TIP3    H280711   0.712   1.810   0.996 -0.2126 -1.0669  1.0329
19766TIP3   OH280712   2.371   0.902   4.021  0.3582  0.3508 -0.0033
19766TIP3    H180713   2.358   0.969   3.954 -0.3952 -0.5427 -0.7806
19766TIP3    H280714   2.455   0.862   3.999  0.5895  0.7469  0.1808
19767TIP3   OH280715   3.684   4.193   0.165 -0.2408  0.1504  0.2940
19767TIP3    H180716   3.677   4.276   0.214  1.2675  0.5790 -0.1868
19767TIP3    H280717   3.761   4.150   0.203  0.2503 -0.0446 -0.9243
19768TIP3   OH280718   5.899   3.711   4.205 -0.8591 -0.2825 -0.2139
19768TIP3    H180719   5.983   3.669   4.221 -0.7062  0.2889  0.5015
19768TIP3    H280720   5.838   3.639   4.192 -0.3423 -0.7065 -0.3262
19769TIP3   OH280721   4.972   4.221   2.900  0.1354  0.1062 -0.3342
19769TIP3    H180722   4.942   4.255   2.985 -1.8442 -1.8783 -0.1917
19769TIP3    H280723   5.063   4.196   2.916 -0.0380  0.2913  1.0602
19770TIP3   OH280724   5.114   0.959  10.888  0.6141 -0.9543 -0.3582
19770TIP3    H180725   5.149   0.938  10.801 -0.6944 -0.1639 -1.1033
19770TIP3    H280726   5.069   1.042  10.875 -2.5474 -2.5022  0.2583
19771TIP3   OH280727   6.567   6.728   5.174 -0.7054  0.4706 -0.2919
19771TIP3    H180728   6.492   6.669   5.168 -0.9507  0.7336  0.1370
19771TIP3    H280729   6.616   6.697   5.250 -0.9363  0.9302  0.0495
19772TIP3   OH280730   5.248   4.285   1.197  0.0877  0.3220  0.6719
19772TIP3    H180731   5.298   4.366   1.195  0.0878  0.2916 -0.4143
19772TIP3    H280732   5.263   4.251   1.286  2.4417  0.0307  0.2038
19773TIP3   OH280733   2.709   3.678   1.613  0.7932  0.1455 -0.0264
19773TIP3    H180734   2.645   3.659   1.544  1.1680  0.6693 -0.5170
19773TIP3    H280735   2.659   3.725   1.679  0.6511  0.4943 -0.3791
19774TIP3   OH280736   6.480   4.890  14.408  0.1836 -0.2653 -0.0071
19774TIP3    H180737   6.385   4.898  14.405  0.4108  2.2359 -2.0483
19774TIP3    H280738   6.510   4.921  14.322  2.9758  1.5822  1.5433
19775TIP3   OH280739   6.267   6.715   3.135  0.0696 -0.3232 -0.4005
19775TIP3    H180740   6.328   6.686   3.203 -0.2281 -0.1828 -0.0745
19775TIP3    H280741   6.293   6.805   3.116 -0.3441 -0.1051  0.0790
19776TIP3   OH280742   6.422   3.115   2.696 -0.2337  0.2380 -0.9671
19776TIP3    H180743   6.354   3.086   2.636 -1.5093 -1.8998  1.4002
19776TIP3    H280744   6.462   3.034   2.729  0.3588  1.3202  1.1255
19777TIP3   OH280745   3.940   5.273  16.508  0.0497 -0.1416 -0.6686
19777TIP3    H180746   3.995   5.352  16.512 -0.9141  0.5132 -0.2063
19777TIP3    H280747   3.945   5.245  16.416 -0.7332  1.2762 -1.1578
19778TIP3   OH280748   5.931   6.381   4.425  0.3723  0.1325  0.2652
19778TIP3    H180749   5.870   6.362   4.496 -0.9264  0.3596 -0.7718
19778TIP3    H280750   5.883   6.359   4.346  1.0325  1.8833 -0.6498
19779TIP3   OH280751   0.287   5.093  13.579 -0.2976 -0.4515  0.1065
19779TIP3    H180752   0.340   5.018  13.552 -0.6006 -1.0114  1.0406
19779TIP3    H280753   0.350   5.154  13.617 -0.1367 -0.5245 -0.0426
19780TIP3   OH280754   5.957   5.205  15.267 -0.1174  0.2966 -0.2243
19780TIP3    H180755   5.952   5.241  15.355  0.5655 -1.0791  0.3861
19780TIP3    H280756   5.978   5.281  15.211 -0.4733  1.1506  0.7893
19781TIP3   OH280757   2.893   1.809   3.617 -0.1884  0.4668 -0.5923
19781TIP3    H180758   2.835   1.772   3.550 -1.0622 -1.0838  1.0023
19781TIP3    H280759   2.939   1.734   3.654  0.5090  1.3455  0.3541
19782TIP3   OH280760   4.876   6.069  13.848  0.8401  0.3580  0.0520
19782TIP3    H180761   4.855   5.980  13.875  0.4444  0.5802  0.4771
19782TIP3    H280762   4.940   6.100  13.913  0.9360  0.4060 -0.0628
19783TIP3   OH280763   4.880   3.824  14.902 -0.3584  0.2734 -0.0026
19783TIP3    H180764   4.911   3.914  14.898 -0.5176  0.3192 -0.2259
19783TIP3    H280765   4.792   3.827  14.863 -0.2618 -0.0242 -0.2421
19784TIP3   OH280766   4.966   5.384   4.785 -0.0129 -0.1801 -0.6980
19784TIP3    H180767   5.041   5.442   4.772  1.7371 -2.3046 -0.4341
19784TIP3    H280768   4.902   5.411   4.719  0.2465  2.8091  0.2078
19785TIP3   OH280769   1.179   6.417   1.856 -0.7876 -0.5196 -0.5873
19785TIP3    H180770   1.138   6.347   1.906  0.6052 -1.1088 -0.2311
19785TIP3    H280771   1.155   6.400   1.765 -0.1646 -1.6747 -0.5398
19786TIP3   OH280772   5.589   4.495  15.668  0.6752  0.0521 -0.1418
19786TIP3    H180773   5.558   4.503  15.758  0.3618  1.4724 -0.3756
19786TIP3    H280774   5.682   4.518  15.672  0.7508 -0.2533 -0.1241
19787TIP3   OH280775   2.047   1.459   2.087  0.5081 -0.1802 -0.5479
19787TIP3    H180776   2.068   1.513   2.162  1.8489  0.5104 -1.4012
19787TIP3    H280777   2.018   1.376   2.124  1.7295 -0.0550  0.7182
19788TIP3   OH280778   6.008   5.240  16.418 -0.6322  0.4112  0.1208
19788TIP3    H180779   6.088   5.234  16.470 -0.9541 -0.4352  0.5306
19788TIP3    H280780   6.038   5.265  16.331  0.0218  0.6948  0.4231
19789TIP3   OH280781   0.864   4.709   4.881  0.0558 -0.0568 -0.1269
19789TIP3    H180782   0.930   4.750   4.937  0.0185  0.4103 -0.4261
19789TIP3    H280783   0.822   4.644   4.938 -1.8017  2.2441  1.2192
19790TIP3   OH280784   1.020   1.096  12.323  0.4382 -0.0183  0.4656
19790TIP3    H180785   1.062   1.140  12.248  0.0018 -3.8487 -2.1754
19790TIP3    H280786   0.930   1.080  12.294  0.3989 -1.9702  1.5822
19791TIP3   OH280787   3.383   4.084   4.426  0.3303 -0.7629  0.6046
19791TIP3    H180788   3.354   4.153   4.485  1.1131  1.9312 -2.0048
19791TIP3    H280789   3.363   4.003   4.471  0.3547  1.1793  4.2614
19792TIP3   OH280790   0.803   6.724   0.646 -0.3221 -0.4083  0.3279
19792TIP3    H180791   0.890   6.723   0.607  0.1813  1.3174  1.3188
19792TIP3    H280792   0.801   6.647   0.703  0.8294 -0.0718  0.8460
19793TIP3   OH280793   2.145   1.011  13.802 -0.5047  0.0988 -0.4776
19793TIP3    H180794   2.151   1.033  13.710  0.7094 -0.8755 -0.6373
19793TIP3    H280795   2.057   0.976  13.813  0.1748 -2.0899 -1.7868
19794TIP3   OH280796   1.576   6.537  15.366  0.6241 -0.1041  0.4579
19794TIP3    H180797   1.555   6.630  15.372 -0.5845 -0.4233  1.3999
19794TIP3    H280798   1.492   6.493  15.377  1.1972 -1.3120  0.0767
19795TIP3   OH280799   1.674   5.020  13.282 -0.1025  0.2354 -0.7587
19795TIP3    H180800   1.579   5.028  13.280 -0.1386  0.3953  0.8959
19795TIP3    H280801   1.691   4.927  13.264 -0.4882  0.5156 -2.6232
19796TIP3   OH280802   5.195   6.552  13.489 -0.4618  0.5819  0.4320
19796TIP3    H180803   5.285   6.556  13.521 -0.2763 -0.0769  0.0053
19796TIP3    H280804   5.187   6.627  13.430 -0.3980  1.0166  0.9640
19797TIP3   OH280805   5.986   0.495   3.752  0.2150 -0.1711 -0.0042
19797TIP3    H180806   6.072   0.481   3.791  0.4665  0.9229 -0.1547
19797TIP3    H280807   5.967   0.413   3.706  2.0539  0.2929 -1.6439
19798TIP3   OH280808   6.083   1.891   5.290  0.2688 -0.5185  0.3307
19798TIP3    H180809   6.124   1.821   5.240 -0.9256 -1.3977  0.5645
19798TIP3    H280810   6.114   1.972   5.249  1.8421 -1.1817  0.2144
19799TIP3   OH280811   5.861   4.164   1.573  0.9265 -1.2389 -0.5979
19799TIP3    H180812   5.827   4.150   1.661 -1.4303 -1.0046 -1.4478
19799TIP3    H280813   5.953   4.137   1.579  1.8448  2.1274  2.8220
19800TIP3   OH280814   6.481   1.980   1.326  0.1991 -0.1174 -0.1538
19800TIP3    H180815   6.439   2.034   1.258  2.3029  0.5989 -0.9227
19800TIP3    H280816   6.503   2.041   1.396  2.7383  0.1114 -1.0975
19801TIP3   OH280817   3.208   0.060  12.452 -0.0300  0.5381  0.3459
19801TIP3    H180818   3.155  -0.011  12.487 -0.0419  0.3665 -0.0149
19801TIP3    H280819   3.272   0.016  12.395 -1.2300  0.9717 -1.3717
19802TIP3   OH280820   4.757   3.422  13.762 -0.3540  0.1107 -0.3857
19802TIP3    H180821   4.801   3.489  13.709 -0.5665  1.6565  1.3416
19802TIP3    H280822   4.825   3.356  13.778  0.9210  1.6849  0.8932
19803TIP3   OH280823   4.331   3.996   6.132 -0.4612 -0.2376  0.0155
19803TIP3    H180824   4.315   4.050   6.209  0.7748 -0.9957  0.8151
19803TIP3    H280825   4.400   4.042   6.085 -1.5618  0.4908 -0.9251
19804TIP3   OH280826   2.048   2.093  14.341 -0.1790 -0.3092 -0.1593
19804TIP3    H180827   2.036   2.179  14.301  1.4035 -1.4701 -3.2555
19804TIP3    H280828   2.124   2.055  14.296 -0.3151 -3.0052  1.7343
19805TIP3   OH280829   4.932   2.606  13.290  0.3247  0.4509  0.1442
19805TIP3    H180830   4.853   2.648  13.257 -0.6790 -0.6703  1.0725
19805TIP3    H280831   4.946   2.646  13.376  1.2898  1.2889 -0.3931
19806TIP3   OH280832   0.346   6.224  11.674  0.1078 -0.6993 -0.7655
19806TIP3    H180833   0.404   6.157  11.710  0.2925 -1.0116 -1.6463
19806TIP3    H280834   0.385   6.307  11.703 -1.2161 -0.9921  2.0016
19807TIP3   OH280835   5.953   2.886   4.583 -0.3021  0.5193  0.0025
19807TIP3    H180836   5.977   2.864   4.493  0.4179 -0.8258  0.5104
19807TIP3    H280837   6.036   2.911   4.624 -0.7090  1.6495  0.1568
19808TIP3   OH280838   3.448   1.363  11.742  0.2545 -0.4115  0.2295
19808TIP3    H180839   3.520   1.312  11.704  0.8450 -0.1932  1.0446
19808TIP3    H280840   3.369   1.320  11.709  0.7365 -0.1303 -1.3776
19809TIP3   OH280841   1.787   3.412  13.194 -0.0340  0.0399  0.7205
19809TIP3    H180842   1.772   3.325  13.233  0.6479 -0.3062  0.2132
19809TIP3    H280843   1.835   3.460  13.261  0.2273 -0.2154  0.7185
19810TIP3   OH280844   5.283   2.207  13.681 -0.2162  0.0914 -0.1421
19810TIP3    H180845   5.334   2.132  13.711  1.2647  1.5954  1.2038
19810TIP3    H280846   5.286   2.200  13.585  0.6691 -1.0764 -0.0432
19811TIP3   OH280847   0.472   2.897  12.700  0.0121 -0.2595 -0.1691
19811TIP3    H180848   0.406   2.879  12.633 -1.5382 -0.1334  1.3114
19811TIP3    H280849   0.509   2.811  12.720 -2.4018 -0.9065  1.7492
19812TIP3   OH280850   4.842   4.775   3.868 -0.2327 -0.2568  0.1652
19812TIP3    H180851   4.849   4.842   3.800  1.3196 -0.7219 -0.1747
19812TIP3    H280852   4.855   4.822   3.950  0.6326 -0.1016 -0.0559
19813TIP3   OH280853   5.988   6.636   0.301 -0.0122  1.0017  0.7628
19813TIP3    H180854   6.025   6.564   0.353  1.2217  0.2831 -1.0849
19813TIP3    H280855   6.010   6.715   0.351 -0.6828  0.1962  2.3931
19814TIP3   OH280856   4.502   1.752   4.050 -0.4882 -0.1297 -0.5519
19814TIP3    H180857   4.429   1.814   4.056 -1.1873 -0.9758 -0.0956
19814TIP3    H280858   4.575   1.798   4.092 -0.8996  0.5281 -0.5371
19815TIP3   OH280859   0.985   3.956   5.876 -0.0820 -0.1598 -0.4175
19815TIP3    H180860   0.944   3.929   5.794 -1.6518 -2.8627  1.1996
19815TIP3    H280861   0.930   4.028   5.908 -0.8078 -0.6368 -0.5891
19816TIP3   OH280862   0.629   5.474  10.918  0.7328  0.0913  0.0252
19816TIP3    H180863   0.621   5.387  10.957  1.0912 -0.2092 -0.5791
19816TIP3    H280864   0.558   5.479  10.855  0.3859  0.4399  0.4350
19817TIP3   OH280865   3.172   3.888   6.024  1.2689 -0.1509  0.1112
19817TIP3    H180866   3.265   3.863   6.027  1.0831 -0.8353  0.3494
19817TIP3    H280867   3.151   3.912   6.114  1.3243  0.4358 -0.0280
19818TIP3   OH280868   4.822   0.811   3.108 -0.3108 -0.7417 -0.3009
19818TIP3    H180869   4.771   0.879   3.152  0.2096  0.1668 -1.0651
19818TIP3    H280870   4.838   0.745   3.175  1.0666  0.9387  1.0660
19819TIP3   OH280871   3.259   0.685  13.468 -0.1946 -0.3139 -0.1954
19819TIP3    H180872   3.224   0.758  13.518 -2.5867 -2.5091  1.4930
19819TIP3    H280873   3.197   0.672  13.397 -0.3460 -1.3340  0.1105
19820TIP3   OH280874   2.248   4.557   3.716 -0.3913  0.3210 -0.2280
19820TIP3    H180875   2.242   4.549   3.621 -1.4874  1.7969 -0.3051
19820TIP3    H280876   2.202   4.639   3.736  2.2795  1.5485  1.2606
19821TIP3   OH280877   1.780   6.309  16.218  0.3760 -0.9406  0.2770
19821TIP3    H180878   1.821   6.367  16.156 -2.0298  1.1139  0.5188
19821TIP3    H280879   1.838   6.309  16.294 -0.0884  1.9482  0.6525
19822TIP3   OH280880   1.693   0.876   4.753 -0.1502  0.5241  0.5968
19822TIP3    H180881   1.650   0.917   4.678  1.3670 -0.8092 -1.0269
19822TIP3    H280882   1.632   0.890   4.826 -2.2149  0.7652 -1.1289
19823TIP3   OH280883   3.226   4.866   1.665  0.0694 -0.8560 -0.0947
19823TIP3    H180884   3.272   4.782   1.670  1.0842 -0.4815 -2.4004
19823TIP3    H280885   3.195   4.872   1.575  1.1350  1.7900 -0.3599
19824TIP3   OH280886   6.192   4.916  14.361 -0.7914  0.4608  0.5148
19824TIP3    H180887   6.157   4.991  14.411  1.2859  1.9005 -0.1352
19824TIP3    H280888   6.151   4.925  14.275 -2.6454 -0.7405  1.2415
19825TIP3   OH280889   4.747   0.567   1.530 -0.3415 -0.9512 -0.1544
19825TIP3    H180890   4.795   0.649   1.519 -0.2940 -0.6623  1.9404
19825TIP3    H280891   4.752   0.525   1.444  1.0873  0.4456 -0.7945
19826TIP3   OH280892   5.114   2.777   1.236  0.1800 -0.2904  0.0290
19826TIP3    H180893   5.104   2.725   1.156 -3.8778 -0.1815  0.3700
19826TIP3    H280894   5.046   2.744   1.294  1.5701  1.2198  2.6009
19827TIP3   OH280895   2.990   1.495   5.831 -0.1891 -0.2022 -0.6199
19827TIP3    H180896   2.955   1.502   5.919  0.5142 -0.3409 -0.3240
19827TIP3    H280897   2.961   1.575   5.787 -1.2062 -0.5048 -0.5095
19828TIP3   OH280898   1.988   5.230  11.841 -0.0201 -0.4108 -0.5733
19828TIP3    H180899   1.978   5.309  11.787 -0.1831 -0.7767 -1.0853
19828TIP3    H280900   2.081   5.207  11.831 -0.3759 -1.3086 -1.8684
19829TIP3   OH280901   2.744   3.126   2.862 -0.3336 -0.2746 -0.2795
19829TIP3    H180902   2.700   3.206   2.832  0.0678 -0.1519 -0.5425
19829TIP3    H280903   2.836   3.141   2.842  0.0652  0.1189  1.6514
19830TIP3   OH280904   1.937   6.295   4.763  0.1241 -0.0535 -0.1831
19830TIP3    H180905   1.952   6.383   4.728 -1.7059 -0.2347 -1.4925
19830TIP3    H280906   1.852   6.301   4.806  0.8277 -0.7246  1.3062
19831TIP3   OH280907   2.387   3.539  14.705 -0.4356  0.2367 -0.3734
19831TIP3    H180908   2.359   3.455  14.741  0.2256 -0.5692 -1.6955
19831TIP3    H280909   2.357   3.604  14.769 -1.0690 -0.9872  0.5930
19832TIP3   OH280910   0.446   4.047  15.371  0.0283  0.1639  0.1145
19832TIP3    H180911   0.455   4.049  15.466  3.7277  0.7612 -0.1786
19832TIP3    H280912   0.413   4.133  15.347 -1.6101 -0.2314  0.8731
19833TIP3   OH280913   1.760   3.683   3.138  0.6265 -0.1097  0.6575
19833TIP3    H180914   1.832   3.688   3.074  1.1073  0.2966  1.2277
19833TIP3    H280915   1.748   3.590   3.153  0.9465 -0.1841  0.4611
19834TIP3   OH280916   1.397   0.993   4.054  0.1558  0.1760  0.2164
19834TIP3    H180917   1.339   0.917   4.062  1.0026 -0.5058 -0.0088
19834TIP3    H280918   1.479   0.957   4.020  1.1762  0.9256  1.8176
19835TIP3   OH280919   0.570   0.531  11.983  0.1222 -0.3250 -0.3819
19835TIP3    H180920   0.477   0.552  11.986  0.0088 -0.8289 -0.2302
19835TIP3    H280921   0.614   0.609  12.018 -0.2790 -0.3012  0.0723
19836TIP3   OH280922   6.291   6.624   4.595  0.2421  0.7488  0.0713
19836TIP3    H180923   6.355   6.588   4.534 -0.4744 -1.4620  0.5679
19836TIP3    H280924   6.208   6.623   4.548 -0.0616  0.3104  0.6013
19837TIP3   OH280925   6.417   1.742   2.514  0.4313  0.2572  0.3528
19837TIP3    H180926   6.443   1.768   2.602 -1.3152  0.2355  0.9027
19837TIP3    H280927   6.357   1.810   2.485 -0.8519 -0.9439  0.1254
19838TIP3   OH280928   3.252   1.355   1.365 -0.4212 -0.1458  0.2866
19838TIP3    H180929   3.317   1.292   1.396 -0.0965  0.9344  1.8332
19838TIP3    H280930   3.169   1.310   1.374 -0.1299 -0.5967  0.7627
19839TIP3   OH280931   4.956   2.386   2.199  0.1810 -0.1714  0.3390
19839TIP3    H180932   5.029   2.327   2.214  0.5752  0.0343 -0.7836
19839TIP3    H280933   4.940   2.426   2.285 -1.1148 -3.0322  1.4763
19840TIP3   OH280934   4.420   1.912  16.092 -0.5054 -0.1994 -0.4225
19840TIP3    H180935   4.420   1.887  16.185  0.5609 -0.9756 -0.6246
19840TIP3    H280936   4.466   1.996  16.090  2.8063 -1.9373 -0.6782
19841TIP3   OH280937   1.620   3.134  17.137 -0.3275 -0.3330 -0.3906
19841TIP3    H180938   1.562   3.182  17.077 -0.4606  1.1503  0.8820
19841TIP3    H280939   1.570   3.131  17.219  0.2165 -1.5699 -0.1113
19842TIP3   OH280940   6.739   3.288   2.859 -0.1727 -0.3918  0.5113
19842TIP3    H180941   6.648   3.316   2.871 -0.4900 -1.3810  0.4551
19842TIP3    H280942   6.763   3.249   2.943  1.1415  2.3940  1.5015
19843TIP3   OH280943   0.426   2.950   2.213 -0.4418  0.0444 -0.0785
19843TIP3    H180944   0.331   2.964   2.208 -0.0572  2.4537 -1.1343
19843TIP3    H280945   0.452   2.992   2.295 -0.1956 -0.0065 -0.1298
19844TIP3   OH280946   5.987   3.712  12.939  0.3159 -0.7653 -0.0867
19844TIP3    H180947   5.894   3.724  12.955  0.2441 -1.1666 -0.1905
19844TIP3    H280948   6.024   3.695  13.026  0.3570 -0.2009  0.0078
19845TIP3   OH280949   5.262   5.247  11.065 -0.3900 -0.3938 -0.4116
19845TIP3    H180950   5.355   5.260  11.081 -0.2834 -0.8049 -0.6901
19845TIP3    H280951   5.246   5.287  10.980 -0.0120 -2.2778 -1.3785
19846TIP3   OH280952   3.171   4.977  14.153 -0.5018 -0.0481  0.3428
19846TIP3    H180953   3.175   4.884  14.132  0.8619  0.5976 -2.3986
19846TIP3    H280954   3.259   5.010  14.134 -0.9320  1.7924  1.4060
19847TIP3   OH280955   5.281   5.513   2.417 -0.1887  0.5880  0.7493
19847TIP3    H180956   5.204   5.478   2.371  0.2169 -0.7379  1.0653
19847TIP3    H280957   5.323   5.570   2.353 -1.1322  0.8900  0.3866
19848TIP3   OH280958   4.839   5.852   0.985  0.0032  0.3060 -0.5716
19848TIP3    H180959   4.830   5.906   1.063 -1.9580 -1.1943  0.2948
19848TIP3    H280960   4.847   5.763   1.018  0.5272 -0.2139 -2.0373
19849TIP3   OH280961   3.907   1.779  13.759  0.0644  0.7164 -0.0478
19849TIP3    H180962   3.962   1.833  13.816 -0.9075  1.8545 -0.1890
19849TIP3    H280963   3.935   1.803  13.670 -0.9513  1.6227 -0.1319
19850TIP3   OH280964   2.192   6.576  12.276  0.0132 -0.3141 -0.3273
19850TIP3    H180965   2.280   6.540  12.265 -0.2056 -1.4275  1.4674
19850TIP3    H280966   2.155   6.527  12.349 -1.8484  0.6419 -0.6072
19851TIP3   OH280967   3.512   2.678   0.507 -0.0093  0.0406  0.4239
19851TIP3    H180968   3.433   2.717   0.469 -0.2929 -2.2006 -1.4392
19851TIP3    H280969   3.494   2.584   0.505  3.0814 -0.5676 -0.9556
19852TIP3   OH280970   0.872   2.838  11.029  0.1994 -0.0591  0.0630
19852TIP3    H180971   0.930   2.807  11.098 -0.8301 -1.8627  0.1437
19852TIP3    H280972   0.908   2.801  10.948  1.0329  1.5263 -0.3301
19853TIP3   OH280973   4.622   6.626  10.909  0.1153 -0.3923  0.5950
19853TIP3    H180974   4.553   6.575  10.951  0.8213 -0.6921  1.4105
19853TIP3    H280975   4.589   6.716  10.910 -1.2044 -0.8507 -1.0010
19854TIP3   OH280976   1.439   2.131   1.613  0.3173 -0.1958  0.3574
19854TIP3    H180977   1.411   2.061   1.671  0.0534 -0.8345 -0.5304
19854TIP3    H280978   1.401   2.109   1.528  0.2035  1.0314  0.0712
19855TIP3   OH280979   3.705   5.906   0.766  0.1250  0.0488 -0.3711
19855TIP3    H180980   3.700   5.882   0.859 -0.5901  3.3744  0.5468
19855TIP3    H280981   3.614   5.917   0.740  0.3903  0.7860 -0.9926
19856TIP3   OH280982   0.958   3.765   3.595  0.1582  0.1817  0.4669
19856TIP3    H180983   0.919   3.719   3.521 -2.5591  0.4229  1.6963
19856TIP3    H280984   0.908   3.846   3.602  1.8142  1.1575  1.2319
19857TIP3   OH280985   4.802   5.671   1.415  0.6946 -0.4353 -0.5716
19857TIP3    H180986   4.768   5.715   1.492 -0.7069  0.9273 -1.9316
19857TIP3    H280987   4.849   5.595   1.449 -0.2393 -0.0751  1.5739
19858TIP3   OH280988   6.146   1.170   2.850  0.0893 -0.5640  0.8031
19858TIP3    H180989   6.065   1.142   2.808  0.1080 -0.7091  0.8649
19858TIP3    H280990   6.125   1.255   2.889  0.6169  0.5433 -1.2161
19859TIP3   OH280991   0.548   4.375  15.491  0.2761  0.1727  1.1851
19859TIP3    H180992   0.618   4.330  15.444  1.1379  1.5820  1.0754
19859TIP3    H280993   0.472   4.368  15.433 -0.3290 -3.3037  2.3023
19860TIP3   OH280994   4.743   4.806   1.999 -0.2861 -0.0694 -0.0501
19860TIP3    H180995   4.837   4.798   1.989 -0.4826 -2.4383 -0.1979
19860TIP3    H280996   4.721   4.752   2.075 -1.4526  1.0226  0.4289
19861TIP3   OH280997   0.945   0.070  10.612  0.0066  0.1127 -0.6337
19861TIP3    H180998   1.033   0.045  10.584 -0.0969 -0.6571 -0.3015
19861TIP3    H280999   0.957   0.147  10.667  0.7391 -1.4343  1.4425
19862TIP3   OH281000   1.153   6.586  11.637  0.0316 -0.3028  0.1733
19862TIP3    H181001   1.099   6.633  11.573  1.6444 -1.1287 -1.8201
19862TIP3    H281002   1.192   6.655  11.690 -0.2146  0.4595 -0.6179
19863TIP3   OH281003   5.609   3.238   0.165  0.0397  0.6201  0.3557
19863TIP3    H181004   5.530   3.191   0.194 -1.1518  0.1810 -3.3316
19863TIP3    H281005   5.576   3.305   0.105  2.5651 -0.7878 -2.7340
19864TIP3   OH281006   2.634   2.060   0.899  0.0828  0.1743  0.2659
19864TIP3    H181007   2.679   2.116   0.836 -1.2550  1.2951  0.2585
19864TIP3    H281008   2.558   2.027   0.851  0.9325 -1.7714  0.2358
19865TIP3   OH281009   5.031   1.545   5.770 -0.0993  0.3470  0.2726
19865TIP3    H181010   4.990   1.462   5.794  2.1863 -0.8751  0.0411
19865TIP3    H281011   4.992   1.566   5.685  3.1069 -3.2554 -2.2832
19866TIP3   OH281012   1.917   5.457  11.724 -0.5679 -0.0766 -0.3748
19866TIP3    H181013   1.829   5.493  11.732  0.6515  2.4950  2.5397
19866TIP3    H281014   1.969   5.529  11.688  0.7779 -0.7923  0.1074
19867TIP3   OH281015   0.925   3.494   5.423 -0.3624  0.2866 -0.5361
19867TIP3    H181016   0.928   3.400   5.403 -1.0298  0.7217 -2.7773
19867TIP3    H281017   1.013   3.514   5.455 -0.5212 -1.3011  1.0093
19868TIP3   OH281018   6.638   0.458   5.057 -0.2223  0.3068 -0.6318
19868TIP3    H181019   6.553   0.497   5.075  0.0750 -0.0444  1.7219
19868TIP3    H281020   6.623   0.363   5.063  0.2977  0.2379 -0.3919
19869TIP3   OH281021   5.919   4.585   1.839 -0.5103  0.0995 -0.8446
19869TIP3    H181022   5.978   4.549   1.772  1.2716  0.8743  0.2630
19869TIP3    H281023   5.960   4.561   1.922 -1.8045  0.6065 -0.0457
19870TIP3   OH281024   0.457   2.352  13.056  0.3740  0.4969 -0.0185
19870TIP3    H181025   0.502   2.433  13.033  1.5543  0.0543  0.6925
19870TIP3    H281026   0.521   2.283  13.038 -0.1661 -0.1772  0.6175
19871TIP3   OH281027   3.218   4.239  11.360  0.4190 -0.1203  0.1256
19871TIP3    H181028   3.314   4.241  11.364  0.4823 -1.3614 -0.6187
19871TIP3    H281029   3.197   4.262  11.269 -0.0691  1.8065  0.6889
19872TIP3   OH281030   3.610   0.528  16.202  0.2598  0.1616 -0.1742
19872TIP3    H181031   3.681   0.591  16.207 -1.2228  1.8570 -0.0766
19872TIP3    H281032   3.640   0.464  16.137  2.3349  0.2023  0.6889
19873TIP3   OH281033   4.077   2.957   1.641  0.1451  0.2439 -0.2274
19873TIP3    H181034   4.096   3.023   1.574 -0.9181  1.5590  0.7239
19873TIP3    H281035   4.014   3.000   1.700 -0.3208 -1.5131  0.6019
19874TIP3   OH281036   2.824   0.292   4.192  0.2271 -0.4907 -0.1336
19874TIP3    H181037   2.856   0.216   4.143 -0.3570 -0.5995 -0.3484
19874TIP3    H281038   2.882   0.297   4.268  0.5268 -0.9037 -0.3294
19875TIP3   OH281039   4.820   4.081   4.089  0.2387 -0.4583  0.0565
19875TIP3    H181040   4.734   4.072   4.049  0.5524 -2.5625 -0.1841
19875TIP3    H281041   4.882   4.059   4.019  1.0248  1.9750 -0.0549
19876TIP3   OH281042   6.380   3.053   3.757  0.1879 -0.5256 -0.1160
19876TIP3    H181043   6.448   3.093   3.811 -0.7212  1.8747 -0.7284
19876TIP3    H281044   6.428   2.989   3.703  1.8258  0.4870  0.0902
19877TIP3   OH281045   4.739   5.835   2.330  0.0387  0.0225 -0.0086
19877TIP3    H181046   4.829   5.853   2.303  0.1112 -1.1745 -0.6214
19877TIP3    H281047   4.746   5.758   2.387 -0.5724  0.0315  0.0890
19878TIP3   OH281048   3.634   1.950   2.625 -0.2517  0.3509 -0.3139
19878TIP3    H181049   3.555   2.003   2.614 -1.2426 -0.8823  0.7411
19878TIP3    H281050   3.672   1.978   2.708 -1.3189 -1.2386  0.7435
19879TIP3   OH281051   6.274   5.553  15.010  0.5491 -0.0094  0.0895
19879TIP3    H181052   6.367   5.572  15.026  0.4348  0.5995  0.0489
19879TIP3    H281053   6.240   5.633  14.971 -0.0032 -0.2224  0.1356
19880TIP3   OH281054   3.104   4.586  13.547 -0.0243  0.3937  0.2019
19880TIP3    H181055   3.074   4.663  13.594 -0.9461 -0.4331  0.9854
19880TIP3    H281056   3.138   4.528  13.615  1.3255  0.3972 -0.4555
19881TIP3   OH281057   2.135   3.371   2.516  0.8051  0.1593  0.4702
19881TIP3    H181058   2.117   3.297   2.457 -1.1371  0.1003  1.0964
19881TIP3    H281059   2.162   3.329   2.598 -0.4295  0.1245  0.8682
19882TIP3   OH281060   4.560   5.594  15.774 -0.0492  0.7477  0.2833
19882TIP3    H181061   4.556   5.671  15.717  2.2817  1.2131  0.6788
19882TIP3    H281062   4.633   5.543  15.740 -1.0785 -0.8917  0.5249
19883TIP3   OH281063   1.690   5.102   2.428 -0.1893  0.0590 -0.2697
19883TIP3    H181064   1.632   5.169   2.391 -0.8351 -1.3062 -1.8122
19883TIP3    H281065   1.667   5.022   2.380  1.1248 -1.0874  0.9808
19884TIP3   OH281066   5.541   2.620   3.473 -0.3118  0.4583 -0.1114
19884TIP3    H181067   5.626   2.655   3.445  0.2337 -0.8501 -0.1430
19884TIP3    H281068   5.522   2.666   3.554  0.5793  0.5497  0.0554
19885TIP3   OH281069   0.074   0.598   2.144  0.7016  0.0501 -0.3104
19885TIP3    H181070   0.061   0.610   2.238  1.1393 -0.6550 -0.1566
19885TIP3    H281071   0.027   0.517   2.123 -0.6039  0.9595 -0.9754
19886TIP3   OH281072   3.695   1.269  10.542  0.2199 -0.4944 -0.0571
19886TIP3    H181073   3.735   1.192  10.584  1.6743  0.5278  0.4716
19886TIP3    H281074   3.762   1.299  10.480 -0.4855  0.1383 -0.5146
19887TIP3   OH281075   2.755   6.210   1.676 -0.2037  0.6758  0.0698
19887TIP3    H181076   2.739   6.164   1.594 -0.7858  2.6515 -0.9797
19887TIP3    H281077   2.682   6.184   1.732  1.0545 -1.9208  0.5461
19888TIP3   OH281078   0.679   4.517   4.949  0.1718 -0.2084 -0.1020
19888TIP3    H181079   0.633   4.447   4.903 -0.3329 -0.8588  1.3606
19888TIP3    H281080   0.610   4.565   4.995  0.5019  1.3339 -1.1925
19889TIP3   OH281081   2.305   5.203   5.378  0.0429  0.2019  0.2556
19889TIP3    H181082   2.293   5.276   5.438 -1.1884 -0.4591  0.8433
19889TIP3    H281083   2.230   5.208   5.319 -1.1427 -1.7236  1.5286
19890TIP3   OH281084   3.900   0.203   3.408 -0.1555  0.2631  0.1853
19890TIP3    H181085   3.941   0.271   3.462 -0.7544 -0.6961  1.8589
19890TIP3    H281086   3.969   0.178   3.346  1.3946 -0.4464  2.1661
19891TIP3   OH281087   2.544   5.411   3.838 -0.7397 -0.0183 -0.0417
19891TIP3    H181088   2.554   5.362   3.919  0.6147  2.0998  1.1319
19891TIP3    H281089   2.464   5.463   3.851 -1.8403 -1.4297 -1.0387
19892TIP3   OH281090   5.410   0.614  11.284  0.0905  0.3787 -0.0964
19892TIP3    H181091   5.351   0.683  11.315  1.9937  3.2490 -2.6085
19892TIP3    H281092   5.453   0.582  11.364 -0.1483  2.7751  1.0455
19893TIP3   OH281093   5.478   2.112   4.377  0.4863 -0.0752 -0.7852
19893TIP3    H181094   5.516   2.124   4.465  0.5483 -0.4449 -0.7582
19893TIP3    H281095   5.429   2.029   4.384 -0.0536  0.2319 -0.9134
19894TIP3   OH281096   1.504   2.914   4.832  0.0359  0.2690 -0.3455
19894TIP3    H181097   1.471   2.831   4.865 -0.7363  1.0286  0.8655
19894TIP3    H281098   1.599   2.909   4.844  0.0828 -0.7997 -1.1588
19895TIP3   OH281099   2.464   6.741   2.264  0.0458 -0.6287 -0.1156
19895TIP3    H181100   2.541   6.760   2.317  0.4087 -1.5439 -0.3057
19895TIP3    H281101   2.400   6.705   2.326 -0.5983  1.0424  0.2230
19896TIP3   OH281102   2.420   3.102  17.153 -0.3449 -0.4037  0.1777
19896TIP3    H181103   2.469   3.126  17.074 -1.0482 -0.3711 -0.2545
19896TIP3    H281104   2.399   3.185  17.194 -0.9618 -0.3686 -0.2040
19897TIP3   OH281105   1.760   0.822   6.299 -0.2290 -0.0520  0.3480
19897TIP3    H181106   1.799   0.781   6.376 -0.0389  2.4865  1.6487
19897TIP3    H281107   1.835   0.854   6.248 -0.4488  0.4526  0.3443
19898TIP3   OH281108   2.971   0.429   2.069  0.1714  0.2334 -0.3849
19898TIP3    H181109   2.938   0.341   2.089  0.9898 -0.0328 -0.1981
19898TIP3    H281110   3.060   0.414   2.036  0.5210  1.0336  0.1896
19899TIP3   OH281111   3.265   2.699  12.585 -0.1960 -0.0932 -0.2876
19899TIP3    H181112   3.350   2.722  12.547 -1.5093  2.5112 -1.8301
19899TIP3    H281113   3.278   2.612  12.624  2.9641 -0.0232 -1.0787
19900TIP3   OH281114   3.340   4.623   4.297  0.3753  0.3554 -0.0547
19900TIP3    H181115   3.289   4.583   4.368  0.4302 -2.4412 -1.5363
19900TIP3    H281116   3.273   4.653   4.235  0.4433 -1.2685 -0.9283
19901TIP3   OH281117   6.203   2.743  11.007  0.4058  0.2232  0.2968
19901TIP3    H181118   6.113   2.749  11.040  0.1403 -0.2225 -0.3400
19901TIP3    H281119   6.233   2.834  11.005  0.3168  0.2805  1.4567
19902TIP3   OH281120   1.511   4.096   2.667  0.2291  0.2664  0.0490
19902TIP3    H181121   1.473   4.080   2.754  0.4635  0.2592  0.1516
19902TIP3    H281122   1.444   4.067   2.606  0.0150  0.3773  0.2276
19903TIP3   OH281123   3.950   3.416  11.549 -0.2939 -0.4011 -0.1487
19903TIP3    H181124   3.899   3.434  11.628  1.1345  0.8297  0.5169
19903TIP3    H281125   3.906   3.468  11.481 -0.6737 -0.3247  0.1526
19904TIP3   OH281126   0.055   3.402  11.353 -0.4281  0.7165 -0.1438
19904TIP3    H181127  -0.020   3.347  11.332  0.2813  0.1149 -1.0910
19904TIP3    H281128   0.132   3.350  11.328  0.3013  1.4443  0.5373
19905TIP3   OH281129   1.655   1.374   4.077 -0.8946 -0.3283 -0.3392
19905TIP3    H181130   1.610   1.438   4.132 -3.5229 -0.8929 -1.7178
19905TIP3    H281131   1.634   1.401   3.988 -0.1043 -1.7810 -0.9778
19906TIP3   OH281132   0.491   3.779   2.305  0.5424 -1.3263  0.0487
19906TIP3    H181133   0.579   3.744   2.292  1.0468  1.4174 -5.1809
19906TIP3    H281134   0.505   3.866   2.343  0.2092 -0.4496 -1.7852
19907TIP3   OH281135   5.436   3.421   4.414  0.4449 -0.0496 -0.0154
19907TIP3    H181136   5.485   3.503   4.418 -0.0967  0.2045  1.5599
19907TIP3    H281137   5.458   3.376   4.496  0.1920 -1.1717 -0.5490
19908TIP3   OH281138   5.596   4.838   4.379  0.3215 -0.3781  0.7844
19908TIP3    H181139   5.643   4.921   4.371  0.2523 -0.4922 -1.1513
19908TIP3    H281140   5.657   4.773   4.345 -0.7913 -0.6777 -0.6853
19909TIP3   OH281141   3.187   3.218  12.192 -0.3702  0.2620  0.1828
19909TIP3    H181142   3.215   3.253  12.276  0.5958 -1.2016  0.4981
19909TIP3    H281143   3.106   3.171  12.211  0.6913 -1.4206  0.6156
19910TIP3   OH281144   2.654   4.867  15.268 -0.2153 -0.3029  0.2063
19910TIP3    H181145   2.743   4.902  15.274 -0.4168 -0.1688  2.8556
19910TIP3    H281146   2.666   4.772  15.261  0.1408 -0.3132  0.8961
19911TIP3   OH281147   4.134   4.824  17.011 -0.5132 -1.1382 -0.2707
19911TIP3    H181148   4.123   4.919  17.015 -0.9230 -1.2333  0.9362
19911TIP3    H281149   4.193   4.810  16.937 -1.8811 -0.0656 -1.6017
19912TIP3   OH281150   3.532   0.895  15.563 -0.7275 -0.4711 -0.1082
19912TIP3    H181151   3.469   0.950  15.516 -1.3165 -0.5235  0.6144
19912TIP3    H281152   3.560   0.948  15.637  2.6237  0.8812 -2.2081
19913TIP3   OH281153   6.782   0.238  15.241 -0.3100 -0.2335  0.2286
19913TIP3    H181154   6.854   0.213  15.299 -0.1948  2.0374  1.0857
19913TIP3    H281155   6.703   0.229  15.295 -0.4173 -0.2284  0.0739
19914TIP3   OH281156   4.381   1.125  11.432  0.4829 -0.1219  0.1820
19914TIP3    H181157   4.379   1.174  11.514  3.8287  0.7975 -0.2123
19914TIP3    H281158   4.378   1.033  11.459 -1.1400  0.2113  1.1773
19915TIP3   OH281159   6.350   4.775   1.988 -0.2689 -0.0925  0.1728
19915TIP3    H181160   6.367   4.732   2.072  1.1573  0.4545  0.1905
19915TIP3    H281161   6.341   4.704   1.926 -0.9456 -0.4940  0.7253
19916TIP3   OH281162   4.196   5.372   0.562 -0.3713  0.0238  0.3776
19916TIP3    H181163   4.234   5.294   0.603  2.4873  0.7715 -0.7291
19916TIP3    H281164   4.140   5.410   0.629 -1.7137 -2.8789  0.9971
19917TIP3   OH281165   4.604   3.368   5.515  0.0018  0.9297 -0.1078
19917TIP3    H181166   4.602   3.404   5.604 -0.1578 -0.7677  0.6006
19917TIP3    H281167   4.524   3.401   5.475  1.4928  4.0830 -0.6165
19918TIP3   OH281168   2.169   3.615   4.599 -0.2099 -0.5990 -0.0358
19918TIP3    H181169   2.236   3.662   4.550  0.6743 -2.3303 -0.5487
19918TIP3    H281170   2.090   3.623   4.547 -0.0001  0.1000 -0.2421
19919TIP3   OH281171   3.847   3.525   2.252  0.4499  0.0067  0.7859
19919TIP3    H181172   3.835   3.437   2.217 -1.3199  0.4755  0.1326
19919TIP3    H281173   3.774   3.575   2.214  1.8640  1.9243  0.5419
19920TIP3   OH281174   3.377   4.047   1.324  0.1447  0.6950  1.2249
19920TIP3    H181175   3.295   4.064   1.277  1.0779  0.7032 -0.4348
19920TIP3    H281176   3.423   4.131   1.323  1.5679 -0.0801 -0.6576
19921TIP3   OH281177   5.967   6.264  16.930  0.4900 -0.5909  0.2402
19921TIP3    H181178   5.953   6.345  16.882 -0.4741  0.7392  2.7002
19921TIP3    H281179   5.892   6.209  16.908  0.3705 -0.2361 -0.2288
19922TIP3   OH281180   2.864   3.669   1.387 -0.0427  0.3873  0.2160
19922TIP3    H181181   2.944   3.618   1.399  0.1960  0.4217 -1.1602
19922TIP3    H281182   2.811   3.650   1.464  0.4198 -1.2575  0.1299
19923TIP3   OH281183   0.391   1.495   5.426 -0.2215  0.2735  0.1412
19923TIP3    H181184   0.380   1.399   5.427 -0.9282  0.3504 -0.0282
19923TIP3    H281185   0.439   1.514   5.506 -0.8504 -0.1406  0.6235
19924TIP3   OH281186   3.089   4.764  14.723  0.5980  0.3113  0.2787
19924TIP3    H181187   3.019   4.819  14.689  0.4035  0.5908  1.1104
19924TIP3    H281188   3.101   4.696  14.657  2.2540  2.4999 -1.7723
19925TIP3   OH281189   6.249   4.982   2.174 -0.0151 -0.4681  0.0219
19925TIP3    H181190   6.254   4.921   2.100 -0.3781 -1.1457  0.5403
19925TIP3    H281191   6.200   4.933   2.241  1.7053 -0.4717  1.2965
19926TIP3   OH281192   1.506   2.495  11.703  0.2716 -0.2505  0.1522
19926TIP3    H181193   1.536   2.564  11.762 -0.6364  0.0705  0.2451
19926TIP3    H281194   1.585   2.463  11.661  0.5213  1.9353 -1.0718
19927TIP3   OH281195   3.123   6.351  15.926 -0.2503  0.4185  0.1290
19927TIP3    H181196   3.165   6.408  15.990  1.5900  0.1738 -0.8056
19927TIP3    H281197   3.181   6.355  15.849 -1.1298 -1.1648 -0.6431
19928TIP3   OH281198   2.837   0.554  12.012  0.1740  0.3675 -0.1510
19928TIP3    H181199   2.891   0.571  12.089  1.3593 -0.8590 -0.7013
19928TIP3    H281200   2.786   0.477  12.035 -1.1790  1.3632  0.2629
19929TIP3   OH281201   1.239   6.394  17.212  0.1130  0.6077  0.0513
19929TIP3    H181202   1.207   6.415  17.124 -1.7277  1.2225  0.8288
19929TIP3    H281203   1.176   6.331  17.246  1.8648 -1.0667  0.2538
19930TIP3   OH281204   4.540   5.065  12.200 -0.6397 -0.4324  0.2820
19930TIP3    H181205   4.486   5.081  12.123  0.0200 -1.4899 -0.4091
19930TIP3    H281206   4.585   4.983  12.181  1.5440  0.6563  0.6691
19931TIP3   OH281207   3.640   5.438   6.501  0.4710  0.0480 -0.3109
19931TIP3    H181208   3.705   5.440   6.571  0.7361  0.1658 -0.5611
19931TIP3    H281209   3.662   5.360   6.450 -0.4139 -0.6771  0.3974
19932TIP3   OH281210   5.021   6.776  11.277 -0.0953  0.0299 -0.2903
19932TIP3    H181211   5.013   6.864  11.241  0.8113 -0.4004 -1.5590
19932TIP3    H281212   4.953   6.725  11.232  0.0331 -0.1556 -0.2744
19933TIP3   OH281213   4.620   5.964  11.444 -0.2377 -0.2456  0.6885
19933TIP3    H181214   4.671   6.045  11.437 -1.4712  0.5093  0.4016
19933TIP3    H281215   4.655   5.908  11.375 -1.4866  1.2153 -1.1834
19934TIP3   OH281216   5.266   0.775  13.724  0.5531  0.0158 -0.1025
19934TIP3    H181217   5.321   0.807  13.652  1.6578 -0.3563  0.5553
19934TIP3    H281218   5.191   0.734  13.681 -0.2329  2.2994 -0.9932
19935TIP3   OH281219   6.358   0.982  13.685  0.3187 -0.1304  0.2239
19935TIP3    H181220   6.365   0.886  13.681 -1.1490 -0.3202  1.6675
19935TIP3    H281221   6.397   1.012  13.603  0.4464 -1.9894 -0.4278
19936TIP3   OH281222   0.270   3.593   4.964 -0.5082 -0.2011  0.4449
19936TIP3    H181223   0.216   3.515   4.948 -0.0139 -0.2745 -0.9515
19936TIP3    H281224   0.244   3.654   4.895  1.2963 -0.2979 -0.3566
19937TIP3   OH281225   5.860   0.763  11.998 -0.3104 -0.2300 -0.1550
19937TIP3    H181226   5.892   0.816  12.071 -0.3051 -2.3431  1.3879
19937TIP3    H281227   5.938   0.742  11.948  0.0291 -0.9997  0.7005
19938TIP3   OH281228   2.701   6.332   2.239  0.1640  0.4759 -0.0175
19938TIP3    H181229   2.717   6.426   2.249 -2.7292  1.2426 -2.0091
19938TIP3    H281230   2.669   6.322   2.149  2.0263 -2.6798 -0.4141
19939TIP3   OH281231   5.137   1.165  12.572 -0.3500 -0.4645 -0.4573
19939TIP3    H181232   5.088   1.247  12.581 -0.0283 -0.1225 -1.7492
19939TIP3    H281233   5.162   1.142  12.662 -2.1472 -0.2072  0.1356
19940TIP3   OH281234   2.532   6.776  15.281  0.5096  0.1814  0.3881
19940TIP3    H181235   2.570   6.768  15.369 -2.3842  0.2868  1.7363
19940TIP3    H281236   2.556   6.864  15.252  3.3631 -0.6648  0.1106
19941TIP3   OH281237   2.394   0.940   3.146 -0.6346 -0.4522  0.0884
19941TIP3    H181238   2.303   0.962   3.122 -0.5253  1.1654  1.0737
19941TIP3    H281239   2.387   0.904   3.234 -0.3352 -0.5010  0.0919
19942TIP3   OH281240   4.387   3.174  14.441  0.1573  0.3886  0.3674
19942TIP3    H181241   4.361   3.221  14.362 -1.0081  1.2772  1.2650
19942TIP3    H281242   4.305   3.142  14.479  0.7017 -0.0474  1.2117
19943TIP3   OH281243   5.555   3.509   4.809 -0.7338 -0.7266  0.0743
19943TIP3    H181244   5.513   3.487   4.726 -0.9433  0.0826 -0.0389
19943TIP3    H281245   5.634   3.455   4.811  0.1552  0.4731 -1.4329
19944TIP3   OH281246   2.173   3.894   0.315 -0.3289 -0.2140  0.2267
19944TIP3    H181247   2.087   3.881   0.355  0.5190 -0.5698  1.9819
19944TIP3    H281248   2.174   3.987   0.291 -2.5606 -0.9572 -3.1622
19945TIP3   OH281249   2.694   0.084  14.307 -0.7088 -0.8056 -0.3368
19945TIP3    H181250   2.676   0.006  14.359 -0.9768 -0.0333  0.7515
19945TIP3    H281251   2.682   0.157  14.368 -0.0286  0.0628 -1.2175
19946TIP3   OH281252   0.130   6.652   3.177  0.2203 -0.7158  0.0485
19946TIP3    H181253   0.183   6.572   3.178  0.2552 -0.7287 -1.2841
19946TIP3    H281254   0.191   6.721   3.151 -0.4337 -0.7675 -1.7027
19947TIP3   OH281255   5.286   2.762   1.616  0.0245 -0.4425 -0.4099
19947TIP3    H181256   5.367   2.739   1.570 -0.2023 -1.8684 -0.1257
19947TIP3    H281257   5.248   2.833   1.565  1.5032  0.2807 -0.4936
19948TIP3   OH281258   0.602   6.376  10.701 -0.0346  0.3117  0.5675
19948TIP3    H181259   0.688   6.377  10.744  2.0421  2.0834 -3.4344
19948TIP3    H281260   0.594   6.288  10.666  0.1561  0.1495  0.9282
19949TIP3   OH281261   0.610   0.182   2.653 -0.4798  0.4824 -0.1588
19949TIP3    H181262   0.673   0.129   2.604 -1.0666  1.0876 -1.5928
19949TIP3    H281263   0.661   0.222   2.723  0.0233 -1.7816  0.8211
19950TIP3   OH281264   3.086   2.994   1.611 -0.4252  0.3851  0.4469
19950TIP3    H181265   3.096   2.974   1.704  0.9024  1.1694  0.4796
19950TIP3    H281266   2.991   3.001   1.599 -0.5907  0.9423  1.8853
19951TIP3   OH281267   1.352   0.643   5.865 -0.5083 -0.3646 -0.5052
19951TIP3    H181268   1.303   0.715   5.905  0.4041  0.1870 -0.3757
19951TIP3    H281269   1.386   0.679   5.783 -0.0605 -0.6501 -0.4468
19952TIP3   OH281270   4.006   6.433  15.754  0.3447  0.0504  0.7901
19952TIP3    H181271   3.956   6.513  15.742 -1.4868 -1.0985  0.5959
19952TIP3    H281272   3.941   6.366  15.772  1.5341 -1.9870 -1.9645
19953TIP3   OH281273   0.949   3.315  16.225  0.2283  0.1839 -0.1705
19953TIP3    H181274   1.022   3.267  16.265  0.6812  0.5703 -0.5310
19953TIP3    H281275   0.984   3.403  16.210  0.4544 -0.2861 -2.5035
19954TIP3   OH281276   2.308   2.774  14.901  0.5012 -0.0018 -0.1975
19954TIP3    H181277   2.319   2.767  14.996 -0.9360 -0.4802 -0.0605
19954TIP3    H281278   2.341   2.690  14.867 -0.0210 -0.2781 -0.0276
19955TIP3   OH281279   5.197   0.817  14.813 -0.0826  0.4148 -0.0592
19955TIP3    H181280   5.235   0.732  14.792 -3.9839 -1.5969  0.5455
19955TIP3    H281281   5.119   0.822  14.758  0.7476  4.2356 -1.0261
19956TIP3   OH281282   0.276   4.771  17.161  0.0287  0.0899  0.3815
19956TIP3    H181283   0.228   4.710  17.217  2.2357 -3.3853 -1.3802
19956TIP3    H281284   0.321   4.830  17.222 -1.1123 -0.8331  2.1412
19957TIP3   OH281285   5.678   0.466  10.707  0.0840 -0.7808  0.1975
19957TIP3    H181286   5.658   0.542  10.763  0.6365 -0.2495 -0.3264
19957TIP3    H281287   5.773   0.458  10.710  0.0621 -1.1686 -0.1281
19958TIP3   OH281288   2.269   4.311   0.554 -0.6857  0.2102 -0.2347
19958TIP3    H181289   2.296   4.242   0.615 -1.0963  1.4082  1.3301
19958TIP3    H281290   2.199   4.358   0.600 -0.3084  1.7645 -1.2032
19959TIP3   OH281291   6.176   0.083  14.798 -0.2978 -0.0512  0.2208
19959TIP3    H181292   6.240   0.107  14.731  0.3300 -0.7321  0.5718
19959TIP3    H281293   6.223   0.023  14.856 -1.2864 -0.6538  0.4164
19960TIP3   OH281294   5.972   4.827   4.958 -0.2126 -0.8554 -0.2760
19960TIP3    H181295   5.940   4.859   5.043  1.8125 -1.8848  0.9119
19960TIP3    H281296   5.997   4.906   4.911 -0.9246 -0.3013  0.2531
19961TIP3   OH281297   2.252   5.966  14.042 -0.1416  0.0219 -0.8042
19961TIP3    H181298   2.282   5.893  13.988  0.9876 -0.7171  0.7780
19961TIP3    H281299   2.177   5.932  14.091 -0.4334  0.3325 -1.0294
19962TIP3   OH281300   3.855   0.312  15.678 -0.4823 -0.6224  0.5548
19962TIP3    H181301   3.868   0.221  15.704  0.3406 -0.4382  0.8177
19962TIP3    H281302   3.940   0.354  15.694  0.0579 -0.4826 -2.3981
19963TIP3   OH281303   0.153   1.749  13.008 -0.0912 -0.6018  0.1038
19963TIP3    H181304   0.188   1.703  12.932 -0.4862 -0.0158 -0.4370
19963TIP3    H281305   0.138   1.681  13.073  2.2992 -0.8518  0.4532
19964TIP3   OH281306   6.290   6.087   2.447  0.3258  0.1573  0.0117
19964TIP3    H181307   6.278   6.154   2.515  1.3136  0.9644 -0.5978
19964TIP3    H281308   6.375   6.049   2.465  0.2373 -0.1899 -0.2977
19965TIP3   OH281309   5.454   1.958  10.865  0.9431 -0.1356  0.6497
19965TIP3    H181310   5.534   1.923  10.827  1.2944  0.2059  1.0665
19965TIP3    H281311   5.387   1.893  10.844  1.5387 -0.9361  1.2017
19966LIG      S81312   3.148   3.145  16.875 -0.0670 -0.0388 -0.0619
19966LIG     N181313   3.227   3.708  16.601  0.4573  0.3761  0.0589
19966LIG     N281314   3.324   3.921  16.430  0.4231 -0.0990 -0.4975
19966LIG     N381315   3.193   3.441  16.877 -0.1799  0.1678  0.4878
19966LIG     C181316   3.194   3.576  16.659 -0.2600 -1.2164  0.3159
19966LIG     C281317   3.371   3.747  16.613 -0.1894  0.0909  0.0941
19966LIG     C381318   3.167   3.730  16.460  0.3254  0.2594 -0.0162
19966LIG     C481319   3.387   3.896  16.565 -0.2798 -0.2636 -1.0379
19966LIG     C581320   3.182   3.881  16.433 -0.7141  0.5367  0.6064
19966LIG     C681321   3.230   3.565  16.813 -0.2410 -0.4445 -0.3700
19966LIG     C781322   3.260   3.465  16.577  0.6290 -0.1101  0.0024
19966LIG     C881323   3.396   3.867  16.309 -0.0075 -0.1228 -0.1234
19966LIG     C981324   3.052   3.406  16.898  0.2977  0.0295  0.4140
19966LIG    C1081325   3.281   3.370  16.973  1.0857  1.2075  0.0926
19966LIG    C1181326   3.341   3.927  16.180 -0.1699 -0.2608 -0.3001
19966LIG    C1281327   3.017   3.266  16.896 -0.2580  0.0699  0.1817
19966LIG    C1381328   3.268   3.228  16.969  0.8395  0.1906 -0.0382
19966LIG    C1481329   2.942   3.497  16.902 -0.0216 -0.7685 -0.1043
19966LIG    C1581330   3.376   3.435  17.052  0.1838  0.1668 -0.4200
19966LIG    C1681331   2.886   3.222  16.916 -0.5319  0.3418 -0.6427
19966LIG    C1781332   3.344   3.152  17.051  0.2268  0.7276 -0.2150
19966LIG    C1881333   2.816   3.449  16.926  0.2943  0.5284 -0.0631
19966LIG    C1981334   3.467   3.354  17.125  0.4140 -0.1742 -0.6575
19966LIG    C2081335   2.789   3.314  16.931  0.1549 -0.2146 -0.0801
19966LIG    C2181336   3.442   3.219  17.138  0.2394  0.4479  0.2423
19966LIG     H181337   3.084   3.567  16.656 -0.4256 -0.1167  2.5312
19966LIG     H281338   3.432   3.675  16.555 -0.5690 -1.0490  1.0808
19966LIG     H381339   3.403   3.750  16.719  0.5307  0.6231 -0.1353
19966LIG     H481340   3.058   3.709  16.464  0.7228 -1.6379  1.0744
19966LIG     H581341   3.208   3.659  16.385  0.5657 -1.8766  2.1059
19966LIG     H681342   3.339   3.969  16.633  0.1840 -0.9674  0.0622
19966LIG     H781343   3.497   3.912  16.553 -0.4144  1.5420 -0.0018
19966LIG     H881344   3.125   3.903  16.340  0.2410 -0.9668 -0.3683
19966LIG     H981345   3.143   3.951  16.510  1.1221  2.2709  0.0318
19966LIG    H1081346   3.335   3.597  16.835 -1.0776  1.3702  1.0946
19966LIG    H1181347   3.180   3.647  16.870 -1.8232 -1.8203  0.2341
19966LIG    H1281348   3.254   3.373  16.638  2.1265 -2.1084 -2.7055
19966LIG    H1381349   3.371   3.471  16.583  0.7556 -1.1920 -1.0871
19966LIG    H1481350   3.224   3.463  16.472  2.7006  1.2881 -0.7770
19966LIG    H1581351   3.383   3.757  16.312  0.5416 -0.1903  5.5270
19966LIG    H1681352   3.505   3.886  16.312  0.1571 -1.1571  4.8080
19966LIG    H1781353   3.360   4.037  16.178  0.5408 -0.3901 -1.2292
19966LIG    H1881354   3.232   3.910  16.169 -0.1786 -0.5222  0.2185
19966LIG    H1981355   3.394   3.886  16.091  3.0397 -1.2357  1.9586
19966LIG    H2081356   2.974   3.600  16.898 -0.0244 -0.7656 -0.0549
19966LIG    H2181357   3.391   3.541  17.062 -1.4134  0.3381  0.3439
19966LIG    H2281358   2.865   3.116  16.926 -1.9331  0.7240  0.7775
19966LIG    H2381359   3.336   3.045  17.057  2.6620  0.6270  3.1657
19966LIG    H2481360   2.736   3.521  16.922  0.9745  1.1939 -2.7074
19966LIG    H2581361   3.532   3.407  17.192 -1.3025 -1.2665  1.9817
19966LIG    H2681362   2.683   3.294  16.943 -0.7719  2.7970 -2.5099
19966LIG    H2781363   3.498   3.152  17.201 -0.1690 -0.5662 -0.4661
   6.78697   6.78697  17.23950
